LAMMPS data file - 1 Docked ASO + 99 Free ASOs + 1 Hairpin (unmodified)

1032 atoms
931 bonds
830 angles

4 atom types
1 bond types
1 angle types

-80.000000 80.000000 xlo xhi
-80.000000 80.000000 ylo yhi
-80.000000 80.000000 zlo zhi

Masses

1 329.20
2 305.20
3 345.20
4 306.20

Atoms

1 1 3 0.000000 -5.578000 20.548000 -14.353000
2 1 3 0.000000 -1.739000 18.304000 -16.435000
3 1 3 0.000000 4.202000 17.473000 -16.900000
4 1 2 0.000000 10.109000 16.307000 -15.724000
5 1 4 0.000000 13.892000 12.359000 -14.367000
6 1 3 0.000000 14.357000 7.101000 -12.805000
7 1 4 0.000000 17.219000 3.213000 -11.194000
8 1 4 0.000000 17.160000 -2.611000 -7.841000
9 1 4 0.000000 13.781000 -7.106000 -4.529000
10 1 4 0.000000 8.598000 -10.572000 -3.502000
11 2 3 0.000000 6.200000 -18.293000 1.303000
12 2 2 0.000000 11.826000 -16.769000 -0.282000
13 2 4 0.000000 14.864000 -14.582000 -4.893000
14 2 3 0.000000 14.993000 -11.956000 -10.484000
15 2 1 0.000000 12.426000 -9.940000 -15.598000
16 2 2 0.000000 7.732000 -7.606000 -17.857000
17 2 4 0.000000 3.763000 -3.183000 -18.318000
18 2 4 0.000000 1.611000 0.624000 -14.480000
19 2 4 0.000000 0.089000 3.321000 -9.329000
20 2 2 0.000000 2.466000 6.071000 -5.189000
21 2 1 0.000000 6.436000 9.150000 -2.157000
22 2 3 0.000000 8.843000 14.297000 -1.868000
23 2 2 0.000000 9.022000 19.873000 -3.800000
24 2 2 0.000000 8.786000 23.869000 -7.968000
25 2 2 0.000000 6.160000 28.412000 -10.146000
26 2 2 0.000000 11.347000 31.588000 -11.576000
27 2 1 0.000000 12.725000 25.899000 -11.465000
28 2 1 0.000000 12.008000 20.723000 -14.164000
29 2 1 0.000000 16.188000 17.160000 -11.527000
30 2 2 0.000000 19.755000 13.589000 -10.756000
31 2 1 0.000000 19.715000 8.246000 -7.924000
32 2 1 0.000000 17.704000 3.884000 -4.612000
33 2 1 0.000000 14.080000 -0.712000 -1.421000
34 2 1 0.000000 9.302000 -2.868000 -0.830000
35 2 1 0.000000 4.380000 -5.707000 -2.379000
36 2 1 0.000000 -0.876000 -7.526000 -5.386000
37 2 3 0.000000 -2.393000 -11.401000 -8.758000
38 2 4 0.000000 -0.063000 -15.859000 -11.557000
39 2 2 0.000000 3.680000 -20.032000 -13.782000
40 2 1 0.000000 8.300000 -23.997000 -14.294000
41 2 3 0.000000 11.532000 -27.040000 -10.381000
42 2 2 0.000000 12.517000 -29.449000 -5.237000
43 3 3 0.000000 -49.621125 70.188666 -65.476155
44 3 3 0.000000 -45.782125 67.944666 -67.558155
45 3 3 0.000000 -39.841125 67.113666 -68.023155
46 3 2 0.000000 -33.934125 65.947666 -66.847155
47 3 4 0.000000 -30.151125 61.999666 -65.490155
48 3 3 0.000000 -29.686125 56.741666 -63.928155
49 3 4 0.000000 -26.824125 52.853666 -62.317155
50 3 4 0.000000 -26.883125 47.029666 -58.964155
51 3 4 0.000000 -30.262125 42.534666 -55.652155
52 3 4 0.000000 -35.445125 39.068666 -54.625155
53 4 3 0.000000 4.021723 59.155133 -66.415853
54 4 3 0.000000 7.860723 56.911133 -68.497853
55 4 3 0.000000 13.801723 56.080133 -68.962853
56 4 2 0.000000 19.708723 54.914133 -67.786853
57 4 4 0.000000 23.491723 50.966133 -66.429853
58 4 3 0.000000 23.956723 45.708133 -64.867853
59 4 4 0.000000 26.818723 41.820133 -63.256853
60 4 4 0.000000 26.759723 35.996133 -59.903853
61 4 4 0.000000 23.380723 31.501133 -56.591853
62 4 4 0.000000 18.197723 28.035133 -55.564853
63 5 3 0.000000 -38.080185 -38.638848 64.583714
64 5 3 0.000000 -34.241185 -40.882848 62.501714
65 5 3 0.000000 -28.300185 -41.713848 62.036714
66 5 2 0.000000 -22.393185 -42.879848 63.212714
67 5 4 0.000000 -18.610185 -46.827848 64.569714
68 5 3 0.000000 -18.145185 -52.085848 66.131714
69 5 4 0.000000 -15.283185 -55.973848 67.742714
70 5 4 0.000000 -15.342185 -61.797848 71.095714
71 5 4 0.000000 -18.721185 -66.292848 74.407714
72 5 4 0.000000 -23.904185 -69.758848 75.434714
73 6 3 0.000000 -62.156623 4.903372 26.205443
74 6 3 0.000000 -58.317623 2.659372 24.123443
75 6 3 0.000000 -52.376623 1.828372 23.658443
76 6 2 0.000000 -46.469623 0.662372 24.834443
77 6 4 0.000000 -42.686623 -3.285628 26.191443
78 6 3 0.000000 -42.221623 -8.543628 27.753443
79 6 4 0.000000 -39.359623 -12.431628 29.364443
80 6 4 0.000000 -39.418623 -18.255628 32.717443
81 6 4 0.000000 -42.797623 -22.750628 36.029443
82 6 4 0.000000 -47.980623 -26.216628 37.056443
83 7 3 0.000000 -6.251139 -41.291257 59.719131
84 7 3 0.000000 -2.412139 -43.535257 57.637131
85 7 3 0.000000 3.528861 -44.366257 57.172131
86 7 2 0.000000 9.435861 -45.532257 58.348131
87 7 4 0.000000 13.218861 -49.480257 59.705131
88 7 3 0.000000 13.683861 -54.738257 61.267131
89 7 4 0.000000 16.545861 -58.626257 62.878131
90 7 4 0.000000 16.486861 -64.450257 66.231131
91 7 4 0.000000 13.107861 -68.945257 69.543131
92 7 4 0.000000 7.924861 -72.411257 70.570131
93 8 3 0.000000 11.964647 -36.086000 -67.544061
94 8 3 0.000000 15.803647 -38.330000 -69.626061
95 8 3 0.000000 21.744647 -39.161000 -70.091061
96 8 2 0.000000 27.651647 -40.327000 -68.915061
97 8 4 0.000000 31.434647 -44.275000 -67.558061
98 8 3 0.000000 31.899647 -49.533000 -65.996061
99 8 4 0.000000 34.761647 -53.421000 -64.385061
100 8 4 0.000000 34.702647 -59.245000 -61.032061
101 8 4 0.000000 31.323647 -63.740000 -57.720061
102 8 4 0.000000 26.140647 -67.206000 -56.693061
103 9 3 0.000000 -78.922060 -5.902388 58.044321
104 9 3 0.000000 -75.083060 -8.146388 55.962321
105 9 3 0.000000 -69.142060 -8.977388 55.497321
106 9 2 0.000000 -63.235060 -10.143388 56.673321
107 9 4 0.000000 -59.452060 -14.091388 58.030321
108 9 3 0.000000 -58.987060 -19.349388 59.592321
109 9 4 0.000000 -56.125060 -23.237388 61.203321
110 9 4 0.000000 -56.184060 -29.061388 64.556321
111 9 4 0.000000 -59.563060 -33.556388 67.868321
112 9 4 0.000000 -64.746060 -37.022388 68.895321
113 10 3 0.000000 51.329377 -51.368317 -22.494707
114 10 3 0.000000 55.168377 -53.612317 -24.576707
115 10 3 0.000000 61.109377 -54.443317 -25.041707
116 10 2 0.000000 67.016377 -55.609317 -23.865707
117 10 4 0.000000 70.799377 -59.557317 -22.508707
118 10 3 0.000000 71.264377 -64.815317 -20.946707
119 10 4 0.000000 74.126377 -68.703317 -19.335707
120 10 4 0.000000 74.067377 -74.527317 -15.982707
121 10 4 0.000000 70.688377 -79.022317 -12.670707
122 10 4 0.000000 65.505377 -82.488317 -11.643707
123 11 3 0.000000 10.711236 36.417077 -23.072991
124 11 3 0.000000 14.550236 34.173077 -25.154991
125 11 3 0.000000 20.491236 33.342077 -25.619991
126 11 2 0.000000 26.398236 32.176077 -24.443991
127 11 4 0.000000 30.181236 28.228077 -23.086991
128 11 3 0.000000 30.646236 22.970077 -21.524991
129 11 4 0.000000 33.508236 19.082077 -19.913991
130 11 4 0.000000 33.449236 13.258077 -16.560991
131 11 4 0.000000 30.070236 8.763077 -13.248991
132 11 4 0.000000 24.887236 5.297077 -12.221991
133 12 3 0.000000 -6.394407 65.506181 63.749183
134 12 3 0.000000 -2.555407 63.262181 61.667183
135 12 3 0.000000 3.385593 62.431181 61.202183
136 12 2 0.000000 9.292593 61.265181 62.378183
137 12 4 0.000000 13.075593 57.317181 63.735183
138 12 3 0.000000 13.540593 52.059181 65.297183
139 12 4 0.000000 16.402593 48.171181 66.908183
140 12 4 0.000000 16.343593 42.347181 70.261183
141 12 4 0.000000 12.964593 37.852181 73.573183
142 12 4 0.000000 7.781593 34.386181 74.600183
143 13 3 0.000000 20.148766 72.653335 -39.444773
144 13 3 0.000000 23.987766 70.409335 -41.526773
145 13 3 0.000000 29.928766 69.578335 -41.991773
146 13 2 0.000000 35.835766 68.412335 -40.815773
147 13 4 0.000000 39.618766 64.464335 -39.458773
148 13 3 0.000000 40.083766 59.206335 -37.896773
149 13 4 0.000000 42.945766 55.318335 -36.285773
150 13 4 0.000000 42.886766 49.494335 -32.932773
151 13 4 0.000000 39.507766 44.999335 -29.620773
152 13 4 0.000000 34.324766 41.533335 -28.593773
153 14 3 0.000000 -62.027853 55.030584 -47.800668
154 14 3 0.000000 -58.188853 52.786584 -49.882668
155 14 3 0.000000 -52.247853 51.955584 -50.347668
156 14 2 0.000000 -46.340853 50.789584 -49.171668
157 14 4 0.000000 -42.557853 46.841584 -47.814668
158 14 3 0.000000 -42.092853 41.583584 -46.252668
159 14 4 0.000000 -39.230853 37.695584 -44.641668
160 14 4 0.000000 -39.289853 31.871584 -41.288668
161 14 4 0.000000 -42.668853 27.376584 -37.976668
162 14 4 0.000000 -47.851853 23.910584 -36.949668
163 15 3 0.000000 -27.056883 -31.843107 56.840221
164 15 3 0.000000 -23.217883 -34.087107 54.758221
165 15 3 0.000000 -17.276883 -34.918107 54.293221
166 15 2 0.000000 -11.369883 -36.084107 55.469221
167 15 4 0.000000 -7.586883 -40.032107 56.826221
168 15 3 0.000000 -7.121883 -45.290107 58.388221
169 15 4 0.000000 -4.259883 -49.178107 59.999221
170 15 4 0.000000 -4.318883 -55.002107 63.352221
171 15 4 0.000000 -7.697883 -59.497107 66.664221
172 15 4 0.000000 -12.880883 -62.963107 67.691221
173 16 3 0.000000 24.756009 0.686243 21.198998
174 16 3 0.000000 28.595009 -1.557757 19.116998
175 16 3 0.000000 34.536009 -2.388757 18.651998
176 16 2 0.000000 40.443009 -3.554757 19.827998
177 16 4 0.000000 44.226009 -7.502757 21.184998
178 16 3 0.000000 44.691009 -12.760757 22.746998
179 16 4 0.000000 47.553009 -16.648757 24.357998
180 16 4 0.000000 47.494009 -22.472757 27.710998
181 16 4 0.000000 44.115009 -26.967757 31.022998
182 16 4 0.000000 38.932009 -30.433757 32.049998
183 17 3 0.000000 18.129955 -22.210186 -50.300302
184 17 3 0.000000 21.968955 -24.454186 -52.382302
185 17 3 0.000000 27.909955 -25.285186 -52.847302
186 17 2 0.000000 33.816955 -26.451186 -51.671302
187 17 4 0.000000 37.599955 -30.399186 -50.314302
188 17 3 0.000000 38.064955 -35.657186 -48.752302
189 17 4 0.000000 40.926955 -39.545186 -47.141302
190 17 4 0.000000 40.867955 -45.369186 -43.788302
191 17 4 0.000000 37.488955 -49.864186 -40.476302
192 17 4 0.000000 32.305955 -53.330186 -39.449302
193 18 3 0.000000 13.400846 -3.397759 -67.166555
194 18 3 0.000000 17.239846 -5.641759 -69.248555
195 18 3 0.000000 23.180846 -6.472759 -69.713555
196 18 2 0.000000 29.087846 -7.638759 -68.537555
197 18 4 0.000000 32.870846 -11.586759 -67.180555
198 18 3 0.000000 33.335846 -16.844759 -65.618555
199 18 4 0.000000 36.197846 -20.732759 -64.007555
200 18 4 0.000000 36.138846 -26.556759 -60.654555
201 18 4 0.000000 32.759846 -31.051759 -57.342555
202 18 4 0.000000 27.576846 -34.517759 -56.315555
203 19 3 0.000000 -35.825921 57.921493 49.397225
204 19 3 0.000000 -31.986921 55.677493 47.315225
205 19 3 0.000000 -26.045921 54.846493 46.850225
206 19 2 0.000000 -20.138921 53.680493 48.026225
207 19 4 0.000000 -16.355921 49.732493 49.383225
208 19 3 0.000000 -15.890921 44.474493 50.945225
209 19 4 0.000000 -13.028921 40.586493 52.556225
210 19 4 0.000000 -13.087921 34.762493 55.909225
211 19 4 0.000000 -16.466921 30.267493 59.221225
212 19 4 0.000000 -21.649921 26.801493 60.248225
213 20 3 0.000000 -53.568803 35.451046 -16.802763
214 20 3 0.000000 -49.729803 33.207046 -18.884763
215 20 3 0.000000 -43.788803 32.376046 -19.349763
216 20 2 0.000000 -37.881803 31.210046 -18.173763
217 20 4 0.000000 -34.098803 27.262046 -16.816763
218 20 3 0.000000 -33.633803 22.004046 -15.254763
219 20 4 0.000000 -30.771803 18.116046 -13.643763
220 20 4 0.000000 -30.830803 12.292046 -10.290763
221 20 4 0.000000 -34.209803 7.797046 -6.978763
222 20 4 0.000000 -39.392803 4.331046 -5.951763
223 21 3 0.000000 -45.773671 -47.234694 35.677729
224 21 3 0.000000 -41.934671 -49.478694 33.595729
225 21 3 0.000000 -35.993671 -50.309694 33.130729
226 21 2 0.000000 -30.086671 -51.475694 34.306729
227 21 4 0.000000 -26.303671 -55.423694 35.663729
228 21 3 0.000000 -25.838671 -60.681694 37.225729
229 21 4 0.000000 -22.976671 -64.569694 38.836729
230 21 4 0.000000 -23.035671 -70.393694 42.189729
231 21 4 0.000000 -26.414671 -74.888694 45.501729
232 21 4 0.000000 -31.597671 -78.354694 46.528729
233 22 3 0.000000 33.334463 -10.592618 -68.723925
234 22 3 0.000000 37.173463 -12.836618 -70.805925
235 22 3 0.000000 43.114463 -13.667618 -71.270925
236 22 2 0.000000 49.021463 -14.833618 -70.094925
237 22 4 0.000000 52.804463 -18.781618 -68.737925
238 22 3 0.000000 53.269463 -24.039618 -67.175925
239 22 4 0.000000 56.131463 -27.927618 -65.564925
240 22 4 0.000000 56.072463 -33.751618 -62.211925
241 22 4 0.000000 52.693463 -38.246618 -58.899925
242 22 4 0.000000 47.510463 -41.712618 -57.872925
243 23 3 0.000000 38.007278 -20.383473 8.694563
244 23 3 0.000000 41.846278 -22.627473 6.612563
245 23 3 0.000000 47.787278 -23.458473 6.147563
246 23 2 0.000000 53.694278 -24.624473 7.323563
247 23 4 0.000000 57.477278 -28.572473 8.680563
248 23 3 0.000000 57.942278 -33.830473 10.242563
249 23 4 0.000000 60.804278 -37.718473 11.853563
250 23 4 0.000000 60.745278 -43.542473 15.206563
251 23 4 0.000000 57.366278 -48.037473 18.518563
252 23 4 0.000000 52.183278 -51.503473 19.545563
253 24 3 0.000000 52.918980 -51.597592 10.931976
254 24 3 0.000000 56.757980 -53.841592 8.849976
255 24 3 0.000000 62.698980 -54.672592 8.384976
256 24 2 0.000000 68.605980 -55.838592 9.560976
257 24 4 0.000000 72.388980 -59.786592 10.917976
258 24 3 0.000000 72.853980 -65.044592 12.479976
259 24 4 0.000000 75.715980 -68.932592 14.090976
260 24 4 0.000000 75.656980 -74.756592 17.443976
261 24 4 0.000000 72.277980 -79.251592 20.755976
262 24 4 0.000000 67.094980 -82.717592 21.782976
263 25 3 0.000000 -36.381904 53.146345 -11.492856
264 25 3 0.000000 -32.542904 50.902345 -13.574856
265 25 3 0.000000 -26.601904 50.071345 -14.039856
266 25 2 0.000000 -20.694904 48.905345 -12.863856
267 25 4 0.000000 -16.911904 44.957345 -11.506856
268 25 3 0.000000 -16.446904 39.699345 -9.944856
269 25 4 0.000000 -13.584904 35.811345 -8.333856
270 25 4 0.000000 -13.643904 29.987345 -4.980856
271 25 4 0.000000 -17.022904 25.492345 -1.668856
272 25 4 0.000000 -22.205904 22.026345 -0.641856
273 26 3 0.000000 53.014919 -40.763190 53.342663
274 26 3 0.000000 56.853919 -43.007190 51.260663
275 26 3 0.000000 62.794919 -43.838190 50.795663
276 26 2 0.000000 68.701919 -45.004190 51.971663
277 26 4 0.000000 72.484919 -48.952190 53.328663
278 26 3 0.000000 72.949919 -54.210190 54.890663
279 26 4 0.000000 75.811919 -58.098190 56.501663
280 26 4 0.000000 75.752919 -63.922190 59.854663
281 26 4 0.000000 72.373919 -68.417190 63.166663
282 26 4 0.000000 67.190919 -71.883190 64.193663
283 27 3 0.000000 -58.167072 -50.739485 -11.539948
284 27 3 0.000000 -54.328072 -52.983485 -13.621948
285 27 3 0.000000 -48.387072 -53.814485 -14.086948
286 27 2 0.000000 -42.480072 -54.980485 -12.910948
287 27 4 0.000000 -38.697072 -58.928485 -11.553948
288 27 3 0.000000 -38.232072 -64.186485 -9.991948
289 27 4 0.000000 -35.370072 -68.074485 -8.380948
290 27 4 0.000000 -35.429072 -73.898485 -5.027948
291 27 4 0.000000 -38.808072 -78.393485 -1.715948
292 27 4 0.000000 -43.991072 -81.859485 -0.688948
293 28 3 0.000000 -11.989251 55.957922 23.572001
294 28 3 0.000000 -8.150251 53.713922 21.490001
295 28 3 0.000000 -2.209251 52.882922 21.025001
296 28 2 0.000000 3.697749 51.716922 22.201001
297 28 4 0.000000 7.480749 47.768922 23.558001
298 28 3 0.000000 7.945749 42.510922 25.120001
299 28 4 0.000000 10.807749 38.622922 26.731001
300 28 4 0.000000 10.748749 32.798922 30.084001
301 28 4 0.000000 7.369749 28.303922 33.396001
302 28 4 0.000000 2.186749 24.837922 34.423001
303 29 3 0.000000 46.858737 46.231677 -45.003082
304 29 3 0.000000 50.697737 43.987677 -47.085082
305 29 3 0.000000 56.638737 43.156677 -47.550082
306 29 2 0.000000 62.545737 41.990677 -46.374082
307 29 4 0.000000 66.328737 38.042677 -45.017082
308 29 3 0.000000 66.793737 32.784677 -43.455082
309 29 4 0.000000 69.655737 28.896677 -41.844082
310 29 4 0.000000 69.596737 23.072677 -38.491082
311 29 4 0.000000 66.217737 18.577677 -35.179082
312 29 4 0.000000 61.034737 15.111677 -34.152082
313 30 3 0.000000 -24.396464 75.888828 56.319920
314 30 3 0.000000 -20.557464 73.644828 54.237920
315 30 3 0.000000 -14.616464 72.813828 53.772920
316 30 2 0.000000 -8.709464 71.647828 54.948920
317 30 4 0.000000 -4.926464 67.699828 56.305920
318 30 3 0.000000 -4.461464 62.441828 57.867920
319 30 4 0.000000 -1.599464 58.553828 59.478920
320 30 4 0.000000 -1.658464 52.729828 62.831920
321 30 4 0.000000 -5.037464 48.234828 66.143920
322 30 4 0.000000 -10.220464 44.768828 67.170920
323 31 3 0.000000 2.463657 35.920647 -55.140456
324 31 3 0.000000 6.302657 33.676647 -57.222456
325 31 3 0.000000 12.243657 32.845647 -57.687456
326 31 2 0.000000 18.150657 31.679647 -56.511456
327 31 4 0.000000 21.933657 27.731647 -55.154456
328 31 3 0.000000 22.398657 22.473647 -53.592456
329 31 4 0.000000 25.260657 18.585647 -51.981456
330 31 4 0.000000 25.201657 12.761647 -48.628456
331 31 4 0.000000 21.822657 8.266647 -45.316456
332 31 4 0.000000 16.639657 4.800647 -44.289456
333 32 3 0.000000 41.228457 14.043551 20.777007
334 32 3 0.000000 45.067457 11.799551 18.695007
335 32 3 0.000000 51.008457 10.968551 18.230007
336 32 2 0.000000 56.915457 9.802551 19.406007
337 32 4 0.000000 60.698457 5.854551 20.763007
338 32 3 0.000000 61.163457 0.596551 22.325007
339 32 4 0.000000 64.025457 -3.291449 23.936007
340 32 4 0.000000 63.966457 -9.115449 27.289007
341 32 4 0.000000 60.587457 -13.610449 30.601007
342 32 4 0.000000 55.404457 -17.076449 31.628007
343 33 3 0.000000 19.960738 -32.589772 7.086736
344 33 3 0.000000 23.799738 -34.833772 5.004736
345 33 3 0.000000 29.740738 -35.664772 4.539736
346 33 2 0.000000 35.647738 -36.830772 5.715736
347 33 4 0.000000 39.430738 -40.778772 7.072736
348 33 3 0.000000 39.895738 -46.036772 8.634736
349 33 4 0.000000 42.757738 -49.924772 10.245736
350 33 4 0.000000 42.698738 -55.748772 13.598736
351 33 4 0.000000 39.319738 -60.243772 16.910736
352 33 4 0.000000 34.136738 -63.709772 17.937736
353 34 3 0.000000 -27.927576 59.767924 -30.045507
354 34 3 0.000000 -24.088576 57.523924 -32.127507
355 34 3 0.000000 -18.147576 56.692924 -32.592507
356 34 2 0.000000 -12.240576 55.526924 -31.416507
357 34 4 0.000000 -8.457576 51.578924 -30.059507
358 34 3 0.000000 -7.992576 46.320924 -28.497507
359 34 4 0.000000 -5.130576 42.432924 -26.886507
360 34 4 0.000000 -5.189576 36.608924 -23.533507
361 34 4 0.000000 -8.568576 32.113924 -20.221507
362 34 4 0.000000 -13.751576 28.647924 -19.194507
363 35 3 0.000000 -55.352524 53.052636 12.344620
364 35 3 0.000000 -51.513524 50.808636 10.262620
365 35 3 0.000000 -45.572524 49.977636 9.797620
366 35 2 0.000000 -39.665524 48.811636 10.973620
367 35 4 0.000000 -35.882524 44.863636 12.330620
368 35 3 0.000000 -35.417524 39.605636 13.892620
369 35 4 0.000000 -32.555524 35.717636 15.503620
370 35 4 0.000000 -32.614524 29.893636 18.856620
371 35 4 0.000000 -35.993524 25.398636 22.168620
372 35 4 0.000000 -41.176524 21.932636 23.195620
373 36 3 0.000000 48.501853 -24.071996 -29.129275
374 36 3 0.000000 52.340853 -26.315996 -31.211275
375 36 3 0.000000 58.281853 -27.146996 -31.676275
376 36 2 0.000000 64.188853 -28.312996 -30.500275
377 36 4 0.000000 67.971853 -32.260996 -29.143275
378 36 3 0.000000 68.436853 -37.518996 -27.581275
379 36 4 0.000000 71.298853 -41.406996 -25.970275
380 36 4 0.000000 71.239853 -47.230996 -22.617275
381 36 4 0.000000 67.860853 -51.725996 -19.305275
382 36 4 0.000000 62.677853 -55.191996 -18.278275
383 37 3 0.000000 28.140705 -36.324045 -66.118079
384 37 3 0.000000 31.979705 -38.568045 -68.200079
385 37 3 0.000000 37.920705 -39.399045 -68.665079
386 37 2 0.000000 43.827705 -40.565045 -67.489079
387 37 4 0.000000 47.610705 -44.513045 -66.132079
388 37 3 0.000000 48.075705 -49.771045 -64.570079
389 37 4 0.000000 50.937705 -53.659045 -62.959079
390 37 4 0.000000 50.878705 -59.483045 -59.606079
391 37 4 0.000000 47.499705 -63.978045 -56.294079
392 37 4 0.000000 42.316705 -67.444045 -55.267079
393 38 3 0.000000 52.972943 28.624756 35.000507
394 38 3 0.000000 56.811943 26.380756 32.918507
395 38 3 0.000000 62.752943 25.549756 32.453507
396 38 2 0.000000 68.659943 24.383756 33.629507
397 38 4 0.000000 72.442943 20.435756 34.986507
398 38 3 0.000000 72.907943 15.177756 36.548507
399 38 4 0.000000 75.769943 11.289756 38.159507
400 38 4 0.000000 75.710943 5.465756 41.512507
401 38 4 0.000000 72.331943 0.970756 44.824507
402 38 4 0.000000 67.148943 -2.495244 45.851507
403 39 3 0.000000 -21.019836 67.105567 8.005926
404 39 3 0.000000 -17.180836 64.861567 5.923926
405 39 3 0.000000 -11.239836 64.030567 5.458926
406 39 2 0.000000 -5.332836 62.864567 6.634926
407 39 4 0.000000 -1.549836 58.916567 7.991926
408 39 3 0.000000 -1.084836 53.658567 9.553926
409 39 4 0.000000 1.777164 49.770567 11.164926
410 39 4 0.000000 1.718164 43.946567 14.517926
411 39 4 0.000000 -1.660836 39.451567 17.829926
412 39 4 0.000000 -6.843836 35.985567 18.856926
413 40 3 0.000000 -64.118112 39.313538 52.384376
414 40 3 0.000000 -60.279112 37.069538 50.302376
415 40 3 0.000000 -54.338112 36.238538 49.837376
416 40 2 0.000000 -48.431112 35.072538 51.013376
417 40 4 0.000000 -44.648112 31.124538 52.370376
418 40 3 0.000000 -44.183112 25.866538 53.932376
419 40 4 0.000000 -41.321112 21.978538 55.543376
420 40 4 0.000000 -41.380112 16.154538 58.896376
421 40 4 0.000000 -44.759112 11.659538 62.208376
422 40 4 0.000000 -49.942112 8.193538 63.235376
423 41 3 0.000000 35.683579 67.011529 36.390857
424 41 3 0.000000 39.522579 64.767529 34.308857
425 41 3 0.000000 45.463579 63.936529 33.843857
426 41 2 0.000000 51.370579 62.770529 35.019857
427 41 4 0.000000 55.153579 58.822529 36.376857
428 41 3 0.000000 55.618579 53.564529 37.938857
429 41 4 0.000000 58.480579 49.676529 39.549857
430 41 4 0.000000 58.421579 43.852529 42.902857
431 41 4 0.000000 55.042579 39.357529 46.214857
432 41 4 0.000000 49.859579 35.891529 47.241857
433 42 3 0.000000 -19.741116 21.083211 55.857802
434 42 3 0.000000 -15.902116 18.839211 53.775802
435 42 3 0.000000 -9.961116 18.008211 53.310802
436 42 2 0.000000 -4.054116 16.842211 54.486802
437 42 4 0.000000 -0.271116 12.894211 55.843802
438 42 3 0.000000 0.193884 7.636211 57.405802
439 42 4 0.000000 3.055884 3.748211 59.016802
440 42 4 0.000000 2.996884 -2.075789 62.369802
441 42 4 0.000000 -0.382116 -6.570789 65.681802
442 42 4 0.000000 -5.565116 -10.036789 66.708802
443 43 3 0.000000 -67.787896 -38.286125 -7.537947
444 43 3 0.000000 -63.948896 -40.530125 -9.619947
445 43 3 0.000000 -58.007896 -41.361125 -10.084947
446 43 2 0.000000 -52.100896 -42.527125 -8.908947
447 43 4 0.000000 -48.317896 -46.475125 -7.551947
448 43 3 0.000000 -47.852896 -51.733125 -5.989947
449 43 4 0.000000 -44.990896 -55.621125 -4.378947
450 43 4 0.000000 -45.049896 -61.445125 -1.025947
451 43 4 0.000000 -48.428896 -65.940125 2.286053
452 43 4 0.000000 -53.611896 -69.406125 3.313053
453 44 3 0.000000 20.956902 5.006680 41.512911
454 44 3 0.000000 24.795902 2.762680 39.430911
455 44 3 0.000000 30.736902 1.931680 38.965911
456 44 2 0.000000 36.643902 0.765680 40.141911
457 44 4 0.000000 40.426902 -3.182320 41.498911
458 44 3 0.000000 40.891902 -8.440320 43.060911
459 44 4 0.000000 43.753902 -12.328320 44.671911
460 44 4 0.000000 43.694902 -18.152320 48.024911
461 44 4 0.000000 40.315902 -22.647320 51.336911
462 44 4 0.000000 35.132902 -26.113320 52.363911
463 45 3 0.000000 40.104741 2.790106 54.371662
464 45 3 0.000000 43.943741 0.546106 52.289662
465 45 3 0.000000 49.884741 -0.284894 51.824662
466 45 2 0.000000 55.791741 -1.450894 53.000662
467 45 4 0.000000 59.574741 -5.398894 54.357662
468 45 3 0.000000 60.039741 -10.656894 55.919662
469 45 4 0.000000 62.901741 -14.544894 57.530662
470 45 4 0.000000 62.842741 -20.368894 60.883662
471 45 4 0.000000 59.463741 -24.863894 64.195662
472 45 4 0.000000 54.280741 -28.329894 65.222662
473 46 3 0.000000 -21.768334 48.295150 44.992804
474 46 3 0.000000 -17.929334 46.051150 42.910804
475 46 3 0.000000 -11.988334 45.220150 42.445804
476 46 2 0.000000 -6.081334 44.054150 43.621804
477 46 4 0.000000 -2.298334 40.106150 44.978804
478 46 3 0.000000 -1.833334 34.848150 46.540804
479 46 4 0.000000 1.028666 30.960150 48.151804
480 46 4 0.000000 0.969666 25.136150 51.504804
481 46 4 0.000000 -2.409334 20.641150 54.816804
482 46 4 0.000000 -7.592334 17.175150 55.843804
483 47 3 0.000000 -51.948999 -9.934945 52.435757
484 47 3 0.000000 -48.109999 -12.178945 50.353757
485 47 3 0.000000 -42.168999 -13.009945 49.888757
486 47 2 0.000000 -36.261999 -14.175945 51.064757
487 47 4 0.000000 -32.478999 -18.123945 52.421757
488 47 3 0.000000 -32.013999 -23.381945 53.983757
489 47 4 0.000000 -29.151999 -27.269945 55.594757
490 47 4 0.000000 -29.210999 -33.093945 58.947757
491 47 4 0.000000 -32.589999 -37.588945 62.259757
492 47 4 0.000000 -37.772999 -41.054945 63.286757
493 48 3 0.000000 -38.454705 8.275802 -63.870801
494 48 3 0.000000 -34.615705 6.031802 -65.952801
495 48 3 0.000000 -28.674705 5.200802 -66.417801
496 48 2 0.000000 -22.767705 4.034802 -65.241801
497 48 4 0.000000 -18.984705 0.086802 -63.884801
498 48 3 0.000000 -18.519705 -5.171198 -62.322801
499 48 4 0.000000 -15.657705 -9.059198 -60.711801
500 48 4 0.000000 -15.716705 -14.883198 -57.358801
501 48 4 0.000000 -19.095705 -19.378198 -54.046801
502 48 4 0.000000 -24.278705 -22.844198 -53.019801
503 49 3 0.000000 -4.181451 9.823563 59.395832
504 49 3 0.000000 -0.342451 7.579563 57.313832
505 49 3 0.000000 5.598549 6.748563 56.848832
506 49 2 0.000000 11.505549 5.582563 58.024832
507 49 4 0.000000 15.288549 1.634563 59.381832
508 49 3 0.000000 15.753549 -3.623437 60.943832
509 49 4 0.000000 18.615549 -7.511437 62.554832
510 49 4 0.000000 18.556549 -13.335437 65.907832
511 49 4 0.000000 15.177549 -17.830437 69.219832
512 49 4 0.000000 9.994549 -21.296437 70.246832
513 50 3 0.000000 27.203444 68.739989 -4.235873
514 50 3 0.000000 31.042444 66.495989 -6.317873
515 50 3 0.000000 36.983444 65.664989 -6.782873
516 50 2 0.000000 42.890444 64.498989 -5.606873
517 50 4 0.000000 46.673444 60.550989 -4.249873
518 50 3 0.000000 47.138444 55.292989 -2.687873
519 50 4 0.000000 50.000444 51.404989 -1.076873
520 50 4 0.000000 49.941444 45.580989 2.276127
521 50 4 0.000000 46.562444 41.085989 5.588127
522 50 4 0.000000 41.379444 37.619989 6.615127
523 51 3 0.000000 8.864207 54.786325 28.797393
524 51 3 0.000000 12.703207 52.542325 26.715393
525 51 3 0.000000 18.644207 51.711325 26.250393
526 51 2 0.000000 24.551207 50.545325 27.426393
527 51 4 0.000000 28.334207 46.597325 28.783393
528 51 3 0.000000 28.799207 41.339325 30.345393
529 51 4 0.000000 31.661207 37.451325 31.956393
530 51 4 0.000000 31.602207 31.627325 35.309393
531 51 4 0.000000 28.223207 27.132325 38.621393
532 51 4 0.000000 23.040207 23.666325 39.648393
533 52 3 0.000000 32.892693 71.782227 64.713077
534 52 3 0.000000 36.731693 69.538227 62.631077
535 52 3 0.000000 42.672693 68.707227 62.166077
536 52 2 0.000000 48.579693 67.541227 63.342077
537 52 4 0.000000 52.362693 63.593227 64.699077
538 52 3 0.000000 52.827693 58.335227 66.261077
539 52 4 0.000000 55.689693 54.447227 67.872077
540 52 4 0.000000 55.630693 48.623227 71.225077
541 52 4 0.000000 52.251693 44.128227 74.537077
542 52 4 0.000000 47.068693 40.662227 75.564077
543 53 3 0.000000 8.041866 -45.200955 -12.582212
544 53 3 0.000000 11.880866 -47.444955 -14.664212
545 53 3 0.000000 17.821866 -48.275955 -15.129212
546 53 2 0.000000 23.728866 -49.441955 -13.953212
547 53 4 0.000000 27.511866 -53.389955 -12.596212
548 53 3 0.000000 27.976866 -58.647955 -11.034212
549 53 4 0.000000 30.838866 -62.535955 -9.423212
550 53 4 0.000000 30.779866 -68.359955 -6.070212
551 53 4 0.000000 27.400866 -72.854955 -2.758212
552 53 4 0.000000 22.217866 -76.320955 -1.731212
553 54 3 0.000000 36.581090 -31.511536 -36.166116
554 54 3 0.000000 40.420090 -33.755536 -38.248116
555 54 3 0.000000 46.361090 -34.586536 -38.713116
556 54 2 0.000000 52.268090 -35.752536 -37.537116
557 54 4 0.000000 56.051090 -39.700536 -36.180116
558 54 3 0.000000 56.516090 -44.958536 -34.618116
559 54 4 0.000000 59.378090 -48.846536 -33.007116
560 54 4 0.000000 59.319090 -54.670536 -29.654116
561 54 4 0.000000 55.940090 -59.165536 -26.342116
562 54 4 0.000000 50.757090 -62.631536 -25.315116
563 55 3 0.000000 38.371498 -17.997674 60.580577
564 55 3 0.000000 42.210498 -20.241674 58.498577
565 55 3 0.000000 48.151498 -21.072674 58.033577
566 55 2 0.000000 54.058498 -22.238674 59.209577
567 55 4 0.000000 57.841498 -26.186674 60.566577
568 55 3 0.000000 58.306498 -31.444674 62.128577
569 55 4 0.000000 61.168498 -35.332674 63.739577
570 55 4 0.000000 61.109498 -41.156674 67.092577
571 55 4 0.000000 57.730498 -45.651674 70.404577
572 55 4 0.000000 52.547498 -49.117674 71.431577
573 56 3 0.000000 20.085297 -49.661615 60.680757
574 56 3 0.000000 23.924297 -51.905615 58.598757
575 56 3 0.000000 29.865297 -52.736615 58.133757
576 56 2 0.000000 35.772297 -53.902615 59.309757
577 56 4 0.000000 39.555297 -57.850615 60.666757
578 56 3 0.000000 40.020297 -63.108615 62.228757
579 56 4 0.000000 42.882297 -66.996615 63.839757
580 56 4 0.000000 42.823297 -72.820615 67.192757
581 56 4 0.000000 39.444297 -77.315615 70.504757
582 56 4 0.000000 34.261297 -80.781615 71.531757
583 57 3 0.000000 -53.386997 -47.347028 61.431984
584 57 3 0.000000 -49.547997 -49.591028 59.349984
585 57 3 0.000000 -43.606997 -50.422028 58.884984
586 57 2 0.000000 -37.699997 -51.588028 60.060984
587 57 4 0.000000 -33.916997 -55.536028 61.417984
588 57 3 0.000000 -33.451997 -60.794028 62.979984
589 57 4 0.000000 -30.589997 -64.682028 64.590984
590 57 4 0.000000 -30.648997 -70.506028 67.943984
591 57 4 0.000000 -34.027997 -75.001028 71.255984
592 57 4 0.000000 -39.210997 -78.467028 72.282984
593 58 3 0.000000 -79.141961 -52.609400 -37.968337
594 58 3 0.000000 -75.302961 -54.853400 -40.050337
595 58 3 0.000000 -69.361961 -55.684400 -40.515337
596 58 2 0.000000 -63.454961 -56.850400 -39.339337
597 58 4 0.000000 -59.671961 -60.798400 -37.982337
598 58 3 0.000000 -59.206961 -66.056400 -36.420337
599 58 4 0.000000 -56.344961 -69.944400 -34.809337
600 58 4 0.000000 -56.403961 -75.768400 -31.456337
601 58 4 0.000000 -59.782961 -80.263400 -28.144337
602 58 4 0.000000 -64.965961 -83.729400 -27.117337
603 59 3 0.000000 32.713938 30.033392 -39.191708
604 59 3 0.000000 36.552938 27.789392 -41.273708
605 59 3 0.000000 42.493938 26.958392 -41.738708
606 59 2 0.000000 48.400938 25.792392 -40.562708
607 59 4 0.000000 52.183938 21.844392 -39.205708
608 59 3 0.000000 52.648938 16.586392 -37.643708
609 59 4 0.000000 55.510938 12.698392 -36.032708
610 59 4 0.000000 55.451938 6.874392 -32.679708
611 59 4 0.000000 52.072938 2.379392 -29.367708