LAMMPS data file - U5C mismatch ASO - 1 Docked + 99 Free + 1 Hairpin

1032 atoms
931 bonds
830 angles

4 atom types
1 bond types
1 angle types

-80.000000 80.000000 xlo xhi
-80.000000 80.000000 ylo yhi
-80.000000 80.000000 zlo zhi

Masses

1 329.20
2 305.20
3 345.20
4 306.20

Atoms

1 1 3 0.000000 -5.578000 20.548000 -14.353000
2 1 3 0.000000 -1.739000 18.304000 -16.435000
3 1 3 0.000000 4.202000 17.473000 -16.900000
4 1 2 0.000000 10.109000 16.307000 -15.724000
5 1 2 0.000000 13.892000 12.359000 -14.367000
6 1 3 0.000000 14.357000 7.101000 -12.805000
7 1 4 0.000000 17.219000 3.213000 -11.194000
8 1 4 0.000000 17.160000 -2.611000 -7.841000
9 1 4 0.000000 13.781000 -7.106000 -4.529000
10 1 4 0.000000 8.598000 -10.572000 -3.502000
11 2 3 0.000000 6.200000 -18.293000 1.303000
12 2 2 0.000000 11.826000 -16.769000 -0.282000
13 2 4 0.000000 14.864000 -14.582000 -4.893000
14 2 3 0.000000 14.993000 -11.956000 -10.484000
15 2 1 0.000000 12.426000 -9.940000 -15.598000
16 2 2 0.000000 7.732000 -7.606000 -17.857000
17 2 4 0.000000 3.763000 -3.183000 -18.318000
18 2 4 0.000000 1.611000 0.624000 -14.480000
19 2 4 0.000000 0.089000 3.321000 -9.329000
20 2 2 0.000000 2.466000 6.071000 -5.189000
21 2 1 0.000000 6.436000 9.150000 -2.157000
22 2 3 0.000000 8.843000 14.297000 -1.868000
23 2 2 0.000000 9.022000 19.873000 -3.800000
24 2 2 0.000000 8.786000 23.869000 -7.968000
25 2 2 0.000000 6.160000 28.412000 -10.146000
26 2 2 0.000000 11.347000 31.588000 -11.576000
27 2 1 0.000000 12.725000 25.899000 -11.465000
28 2 1 0.000000 12.008000 20.723000 -14.164000
29 2 1 0.000000 16.188000 17.160000 -11.527000
30 2 2 0.000000 19.755000 13.589000 -10.756000
31 2 1 0.000000 19.715000 8.246000 -7.924000
32 2 1 0.000000 17.704000 3.884000 -4.612000
33 2 1 0.000000 14.080000 -0.712000 -1.421000
34 2 1 0.000000 9.302000 -2.868000 -0.830000
35 2 1 0.000000 4.380000 -5.707000 -2.379000
36 2 1 0.000000 -0.876000 -7.526000 -5.386000
37 2 3 0.000000 -2.393000 -11.401000 -8.758000
38 2 4 0.000000 -0.063000 -15.859000 -11.557000
39 2 2 0.000000 3.680000 -20.032000 -13.782000
40 2 1 0.000000 8.300000 -23.997000 -14.294000
41 2 3 0.000000 11.532000 -27.040000 -10.381000
42 2 2 0.000000 12.517000 -29.449000 -5.237000
43 3 3 0.000000 -9.929186 52.931988 54.325711
44 3 3 0.000000 -6.090186 50.687988 52.243711
45 3 3 0.000000 -0.149186 49.856988 51.778711
46 3 2 0.000000 5.757814 48.690988 52.954711
47 3 2 0.000000 9.540814 44.742988 54.311711
48 3 3 0.000000 10.005814 39.484988 55.873711
49 3 4 0.000000 12.867814 35.596988 57.484711
50 3 4 0.000000 12.808814 29.772988 60.837711
51 3 4 0.000000 9.429814 25.277988 64.149711
52 3 4 0.000000 4.246814 21.811988 65.176711
53 4 3 0.000000 9.283487 14.070480 45.770694
54 4 3 0.000000 13.122487 11.826480 43.688694
55 4 3 0.000000 19.063487 10.995480 43.223694
56 4 2 0.000000 24.970487 9.829480 44.399694
57 4 2 0.000000 28.753487 5.881480 45.756694
58 4 3 0.000000 29.218487 0.623480 47.318694
59 4 4 0.000000 32.080487 -3.264520 48.929694
60 4 4 0.000000 32.021487 -9.088520 52.282694
61 4 4 0.000000 28.642487 -13.583520 55.594694
62 4 4 0.000000 23.459487 -17.049520 56.621694
63 5 3 0.000000 32.911317 65.755670 -47.228980
64 5 3 0.000000 36.750317 63.511670 -49.310980
65 5 3 0.000000 42.691317 62.680670 -49.775980
66 5 2 0.000000 48.598317 61.514670 -48.599980
67 5 2 0.000000 52.381317 57.566670 -47.242980
68 5 3 0.000000 52.846317 52.308670 -45.680980
69 5 4 0.000000 55.708317 48.420670 -44.069980
70 5 4 0.000000 55.649317 42.596670 -40.716980
71 5 4 0.000000 52.270317 38.101670 -37.404980
72 5 4 0.000000 47.087317 34.635670 -36.377980
73 6 3 0.000000 -71.113671 -39.041420 -36.376741
74 6 3 0.000000 -67.274671 -41.285420 -38.458741
75 6 3 0.000000 -61.333671 -42.116420 -38.923741
76 6 2 0.000000 -55.426671 -43.282420 -37.747741
77 6 2 0.000000 -51.643671 -47.230420 -36.390741
78 6 3 0.000000 -51.178671 -52.488420 -34.828741
79 6 4 0.000000 -48.316671 -56.376420 -33.217741
80 6 4 0.000000 -48.375671 -62.200420 -29.864741
81 6 4 0.000000 -51.754671 -66.695420 -26.552741
82 6 4 0.000000 -56.937671 -70.161420 -25.525741
83 7 3 0.000000 28.390042 49.854951 -46.958430
84 7 3 0.000000 32.229042 47.610951 -49.040430
85 7 3 0.000000 38.170042 46.779951 -49.505430
86 7 2 0.000000 44.077042 45.613951 -48.329430
87 7 2 0.000000 47.860042 41.665951 -46.972430
88 7 3 0.000000 48.325042 36.407951 -45.410430
89 7 4 0.000000 51.187042 32.519951 -43.799430
90 7 4 0.000000 51.128042 26.695951 -40.446430
91 7 4 0.000000 47.749042 22.200951 -37.134430
92 7 4 0.000000 42.566042 18.734951 -36.107430
93 8 3 0.000000 10.381632 -9.965055 -60.086025
94 8 3 0.000000 14.220632 -12.209055 -62.168025
95 8 3 0.000000 20.161632 -13.040055 -62.633025
96 8 2 0.000000 26.068632 -14.206055 -61.457025
97 8 2 0.000000 29.851632 -18.154055 -60.100025
98 8 3 0.000000 30.316632 -23.412055 -58.538025
99 8 4 0.000000 33.178632 -27.300055 -56.927025
100 8 4 0.000000 33.119632 -33.124055 -53.574025
101 8 4 0.000000 29.740632 -37.619055 -50.262025
102 8 4 0.000000 24.557632 -41.085055 -49.235025
103 9 3 0.000000 -35.038425 47.235790 -29.596062
104 9 3 0.000000 -31.199425 44.991790 -31.678062
105 9 3 0.000000 -25.258425 44.160790 -32.143062
106 9 2 0.000000 -19.351425 42.994790 -30.967062
107 9 2 0.000000 -15.568425 39.046790 -29.610062
108 9 3 0.000000 -15.103425 33.788790 -28.048062
109 9 4 0.000000 -12.241425 29.900790 -26.437062
110 9 4 0.000000 -12.300425 24.076790 -23.084062
111 9 4 0.000000 -15.679425 19.581790 -19.772062
112 9 4 0.000000 -20.862425 16.115790 -18.745062
113 10 3 0.000000 25.554561 -10.569201 -36.109707
114 10 3 0.000000 29.393561 -12.813201 -38.191707
115 10 3 0.000000 35.334561 -13.644201 -38.656707
116 10 2 0.000000 41.241561 -14.810201 -37.480707
117 10 2 0.000000 45.024561 -18.758201 -36.123707
118 10 3 0.000000 45.489561 -24.016201 -34.561707
119 10 4 0.000000 48.351561 -27.904201 -32.950707
120 10 4 0.000000 48.292561 -33.728201 -29.597707
121 10 4 0.000000 44.913561 -38.223201 -26.285707
122 10 4 0.000000 39.730561 -41.689201 -25.258707
123 11 3 0.000000 -43.610943 62.216344 -6.712881
124 11 3 0.000000 -39.771943 59.972344 -8.794881
125 11 3 0.000000 -33.830943 59.141344 -9.259881
126 11 2 0.000000 -27.923943 57.975344 -8.083881
127 11 2 0.000000 -24.140943 54.027344 -6.726881
128 11 3 0.000000 -23.675943 48.769344 -5.164881
129 11 4 0.000000 -20.813943 44.881344 -3.553881
130 11 4 0.000000 -20.872943 39.057344 -0.200881
131 11 4 0.000000 -24.251943 34.562344 3.111119
132 11 4 0.000000 -29.434943 31.096344 4.138119
133 12 3 0.000000 36.516972 24.746847 59.614138
134 12 3 0.000000 40.355972 22.502847 57.532138
135 12 3 0.000000 46.296972 21.671847 57.067138
136 12 2 0.000000 52.203972 20.505847 58.243138
137 12 2 0.000000 55.986972 16.557847 59.600138
138 12 3 0.000000 56.451972 11.299847 61.162138
139 12 4 0.000000 59.313972 7.411847 62.773138
140 12 4 0.000000 59.254972 1.587847 66.126138
141 12 4 0.000000 55.875972 -2.907153 69.438138
142 12 4 0.000000 50.692972 -6.373153 70.465138
143 13 3 0.000000 -74.807897 67.566049 -2.521168
144 13 3 0.000000 -70.968897 65.322049 -4.603168
145 13 3 0.000000 -65.027897 64.491049 -5.068168
146 13 2 0.000000 -59.120897 63.325049 -3.892168
147 13 2 0.000000 -55.337897 59.377049 -2.535168
148 13 3 0.000000 -54.872897 54.119049 -0.973168
149 13 4 0.000000 -52.010897 50.231049 0.637832
150 13 4 0.000000 -52.069897 44.407049 3.990832
151 13 4 0.000000 -55.448897 39.912049 7.302832
152 13 4 0.000000 -60.631897 36.446049 8.329832
153 14 3 0.000000 -77.209424 62.639968 -53.356864
154 14 3 0.000000 -73.370424 60.395968 -55.438864
155 14 3 0.000000 -67.429424 59.564968 -55.903864
156 14 2 0.000000 -61.522424 58.398968 -54.727864
157 14 2 0.000000 -57.739424 54.450968 -53.370864
158 14 3 0.000000 -57.274424 49.192968 -51.808864
159 14 4 0.000000 -54.412424 45.304968 -50.197864
160 14 4 0.000000 -54.471424 39.480968 -46.844864
161 14 4 0.000000 -57.850424 34.985968 -43.532864
162 14 4 0.000000 -63.033424 31.519968 -42.505864
163 15 3 0.000000 -56.736577 0.333259 7.128502
164 15 3 0.000000 -52.897577 -1.910741 5.046502
165 15 3 0.000000 -46.956577 -2.741741 4.581502
166 15 2 0.000000 -41.049577 -3.907741 5.757502
167 15 2 0.000000 -37.266577 -7.855741 7.114502
168 15 3 0.000000 -36.801577 -13.113741 8.676502
169 15 4 0.000000 -33.939577 -17.001741 10.287502
170 15 4 0.000000 -33.998577 -22.825741 13.640502
171 15 4 0.000000 -37.377577 -27.320741 16.952502
172 15 4 0.000000 -42.560577 -30.786741 17.979502
173 16 3 0.000000 42.148831 7.106401 -28.294316
174 16 3 0.000000 45.987831 4.862401 -30.376316
175 16 3 0.000000 51.928831 4.031401 -30.841316
176 16 2 0.000000 57.835831 2.865401 -29.665316
177 16 2 0.000000 61.618831 -1.082599 -28.308316
178 16 3 0.000000 62.083831 -6.340599 -26.746316
179 16 4 0.000000 64.945831 -10.228599 -25.135316
180 16 4 0.000000 64.886831 -16.052599 -21.782316
181 16 4 0.000000 61.507831 -20.547599 -18.470316
182 16 4 0.000000 56.324831 -24.013599 -17.443316
183 17 3 0.000000 15.415484 52.098165 -4.326682
184 17 3 0.000000 19.254484 49.854165 -6.408682
185 17 3 0.000000 25.195484 49.023165 -6.873682
186 17 2 0.000000 31.102484 47.857165 -5.697682
187 17 2 0.000000 34.885484 43.909165 -4.340682
188 17 3 0.000000 35.350484 38.651165 -2.778682
189 17 4 0.000000 38.212484 34.763165 -1.167682
190 17 4 0.000000 38.153484 28.939165 2.185318
191 17 4 0.000000 34.774484 24.444165 5.497318
192 17 4 0.000000 29.591484 20.978165 6.524318
193 18 3 0.000000 3.566488 -32.198203 16.241856
194 18 3 0.000000 7.405488 -34.442203 14.159856
195 18 3 0.000000 13.346488 -35.273203 13.694856
196 18 2 0.000000 19.253488 -36.439203 14.870856
197 18 2 0.000000 23.036488 -40.387203 16.227856
198 18 3 0.000000 23.501488 -45.645203 17.789856
199 18 4 0.000000 26.363488 -49.533203 19.400856
200 18 4 0.000000 26.304488 -55.357203 22.753856
201 18 4 0.000000 22.925488 -59.852203 26.065856
202 18 4 0.000000 17.742488 -63.318203 27.092856
203 19 3 0.000000 -84.118210 -18.659699 33.979059
204 19 3 0.000000 -80.279210 -20.903699 31.897059
205 19 3 0.000000 -74.338210 -21.734699 31.432059
206 19 2 0.000000 -68.431210 -22.900699 32.608059
207 19 2 0.000000 -64.648210 -26.848699 33.965059
208 19 3 0.000000 -64.183210 -32.106699 35.527059
209 19 4 0.000000 -61.321210 -35.994699 37.138059
210 19 4 0.000000 -61.380210 -41.818699 40.491059
211 19 4 0.000000 -64.759210 -46.313699 43.803059
212 19 4 0.000000 -69.942210 -49.779699 44.830059
213 20 3 0.000000 -61.173294 50.074123 -4.047207
214 20 3 0.000000 -57.334294 47.830123 -6.129207
215 20 3 0.000000 -51.393294 46.999123 -6.594207
216 20 2 0.000000 -45.486294 45.833123 -5.418207
217 20 2 0.000000 -41.703294 41.885123 -4.061207
218 20 3 0.000000 -41.238294 36.627123 -2.499207
219 20 4 0.000000 -38.376294 32.739123 -0.888207
220 20 4 0.000000 -38.435294 26.915123 2.464793
221 20 4 0.000000 -41.814294 22.420123 5.776793
222 20 4 0.000000 -46.997294 18.954123 6.803793
223 21 3 0.000000 22.121583 -44.627812 13.439163
224 21 3 0.000000 25.960583 -46.871812 11.357163
225 21 3 0.000000 31.901583 -47.702812 10.892163
226 21 2 0.000000 37.808583 -48.868812 12.068163
227 21 2 0.000000 41.591583 -52.816812 13.425163
228 21 3 0.000000 42.056583 -58.074812 14.987163
229 21 4 0.000000 44.918583 -61.962812 16.598163
230 21 4 0.000000 44.859583 -67.786812 19.951163
231 21 4 0.000000 41.480583 -72.281812 23.263163
232 21 4 0.000000 36.297583 -75.747812 24.290163
233 22 3 0.000000 3.910156 -0.478513 62.557898
234 22 3 0.000000 7.749156 -2.722513 60.475898
235 22 3 0.000000 13.690156 -3.553513 60.010898
236 22 2 0.000000 19.597156 -4.719513 61.186898
237 22 2 0.000000 23.380156 -8.667513 62.543898
238 22 3 0.000000 23.845156 -13.925513 64.105898
239 22 4 0.000000 26.707156 -17.813513 65.716898
240 22 4 0.000000 26.648156 -23.637513 69.069898
241 22 4 0.000000 23.269156 -28.132513 72.381898
242 22 4 0.000000 18.086156 -31.598513 73.408898
243 23 3 0.000000 -31.113801 -51.672055 -44.670005
244 23 3 0.000000 -27.274801 -53.916055 -46.752005
245 23 3 0.000000 -21.333801 -54.747055 -47.217005
246 23 2 0.000000 -15.426801 -55.913055 -46.041005
247 23 2 0.000000 -11.643801 -59.861055 -44.684005
248 23 3 0.000000 -11.178801 -65.119055 -43.122005
249 23 4 0.000000 -8.316801 -69.007055 -41.511005
250 23 4 0.000000 -8.375801 -74.831055 -38.158005
251 23 4 0.000000 -11.754801 -79.326055 -34.846005
252 23 4 0.000000 -16.937801 -82.792055 -33.819005
253 24 3 0.000000 -32.543903 -54.982803 -27.478161
254 24 3 0.000000 -28.704903 -57.226803 -29.560161
255 24 3 0.000000 -22.763903 -58.057803 -30.025161
256 24 2 0.000000 -16.856903 -59.223803 -28.849161
257 24 2 0.000000 -13.073903 -63.171803 -27.492161
258 24 3 0.000000 -12.608903 -68.429803 -25.930161
259 24 4 0.000000 -9.746903 -72.317803 -24.319161
260 24 4 0.000000 -9.805903 -78.141803 -20.966161
261 24 4 0.000000 -13.184903 -82.636803 -17.654161
262 24 4 0.000000 -18.367903 -86.102803 -16.627161
263 25 3 0.000000 31.873913 -30.272861 22.156740
264 25 3 0.000000 35.712913 -32.516861 20.074740
265 25 3 0.000000 41.653913 -33.347861 19.609740
266 25 2 0.000000 47.560913 -34.513861 20.785740
267 25 2 0.000000 51.343913 -38.461861 22.142740
268 25 3 0.000000 51.808913 -43.719861 23.704740
269 25 4 0.000000 54.670913 -47.607861 25.315740
270 25 4 0.000000 54.611913 -53.431861 28.668740
271 25 4 0.000000 51.232913 -57.926861 31.980740
272 25 4 0.000000 46.049913 -61.392861 33.007740
273 26 3 0.000000 -36.569132 -38.903288 -18.890933
274 26 3 0.000000 -32.730132 -41.147288 -20.972933
275 26 3 0.000000 -26.789132 -41.978288 -21.437933
276 26 2 0.000000 -20.882132 -43.144288 -20.261933
277 26 2 0.000000 -17.099132 -47.092288 -18.904933
278 26 3 0.000000 -16.634132 -52.350288 -17.342933
279 26 4 0.000000 -13.772132 -56.238288 -15.731933
280 26 4 0.000000 -13.831132 -62.062288 -12.378933
281 26 4 0.000000 -17.210132 -66.557288 -9.066933
282 26 4 0.000000 -22.393132 -70.023288 -8.039933
283 27 3 0.000000 -2.364204 -33.570774 42.750136
284 27 3 0.000000 1.474796 -35.814774 40.668136
285 27 3 0.000000 7.415796 -36.645774 40.203136
286 27 2 0.000000 13.322796 -37.811774 41.379136
287 27 2 0.000000 17.105796 -41.759774 42.736136
288 27 3 0.000000 17.570796 -47.017774 44.298136
289 27 4 0.000000 20.432796 -50.905774 45.909136
290 27 4 0.000000 20.373796 -56.729774 49.262136
291 27 4 0.000000 16.994796 -61.224774 52.574136
292 27 4 0.000000 11.811796 -64.690774 53.601136
293 28 3 0.000000 -43.029785 -16.237709 29.308468
294 28 3 0.000000 -39.190785 -18.481709 27.226468
295 28 3 0.000000 -33.249785 -19.312709 26.761468
296 28 2 0.000000 -27.342785 -20.478709 27.937468
297 28 2 0.000000 -23.559785 -24.426709 29.294468
298 28 3 0.000000 -23.094785 -29.684709 30.856468
299 28 4 0.000000 -20.232785 -33.572709 32.467468
300 28 4 0.000000 -20.291785 -39.396709 35.820468
301 28 4 0.000000 -23.670785 -43.891709 39.132468
302 28 4 0.000000 -28.853785 -47.357709 40.159468
303 29 3 0.000000 -1.286311 -9.656679 51.728366
304 29 3 0.000000 2.552689 -11.900679 49.646366
305 29 3 0.000000 8.493689 -12.731679 49.181366
306 29 2 0.000000 14.400689 -13.897679 50.357366
307 29 2 0.000000 18.183689 -17.845679 51.714366
308 29 3 0.000000 18.648689 -23.103679 53.276366
309 29 4 0.000000 21.510689 -26.991679 54.887366
310 29 4 0.000000 21.451689 -32.815679 58.240366
311 29 4 0.000000 18.072689 -37.310679 61.552366
312 29 4 0.000000 12.889689 -40.776679 62.579366
313 30 3 0.000000 54.588037 -8.971003 53.605729
314 30 3 0.000000 58.427037 -11.215003 51.523729
315 30 3 0.000000 64.368037 -12.046003 51.058729
316 30 2 0.000000 70.275037 -13.212003 52.234729
317 30 2 0.000000 74.058037 -17.160003 53.591729
318 30 3 0.000000 74.523037 -22.418003 55.153729
319 30 4 0.000000 77.385037 -26.306003 56.764729
320 30 4 0.000000 77.326037 -32.130003 60.117729
321 30 4 0.000000 73.947037 -36.625003 63.429729
322 30 4 0.000000 68.764037 -40.091003 64.456729
323 31 3 0.000000 -34.482976 -30.573955 60.143810
324 31 3 0.000000 -30.643976 -32.817955 58.061810
325 31 3 0.000000 -24.702976 -33.648955 57.596810
326 31 2 0.000000 -18.795976 -34.814955 58.772810
327 31 2 0.000000 -15.012976 -38.762955 60.129810
328 31 3 0.000000 -14.547976 -44.020955 61.691810
329 31 4 0.000000 -11.685976 -47.908955 63.302810
330 31 4 0.000000 -11.744976 -53.732955 66.655810
331 31 4 0.000000 -15.123976 -58.227955 69.967810
332 31 4 0.000000 -20.306976 -61.693955 70.994810
333 32 3 0.000000 17.025536 -38.584791 30.182727
334 32 3 0.000000 20.864536 -40.828791 28.100727
335 32 3 0.000000 26.805536 -41.659791 27.635727
336 32 2 0.000000 32.712536 -42.825791 28.811727
337 32 2 0.000000 36.495536 -46.773791 30.168727
338 32 3 0.000000 36.960536 -52.031791 31.730727
339 32 4 0.000000 39.822536 -55.919791 33.341727
340 32 4 0.000000 39.763536 -61.743791 36.694727
341 32 4 0.000000 36.384536 -66.238791 40.006727
342 32 4 0.000000 31.201536 -69.704791 41.033727
343 33 3 0.000000 -2.221103 -33.295736 -21.265197
344 33 3 0.000000 1.617897 -35.539736 -23.347197
345 33 3 0.000000 7.558897 -36.370736 -23.812197
346 33 2 0.000000 13.465897 -37.536736 -22.636197
347 33 2 0.000000 17.248897 -41.484736 -21.279197
348 33 3 0.000000 17.713897 -46.742736 -19.717197
349 33 4 0.000000 20.575897 -50.630736 -18.106197
350 33 4 0.000000 20.516897 -56.454736 -14.753197
351 33 4 0.000000 17.137897 -60.949736 -11.441197
352 33 4 0.000000 11.954897 -64.415736 -10.414197
353 34 3 0.000000 6.297553 -51.722720 50.128179
354 34 3 0.000000 10.136553 -53.966720 48.046179
355 34 3 0.000000 16.077553 -54.797720 47.581179
356 34 2 0.000000 21.984553 -55.963720 48.757179
357 34 2 0.000000 25.767553 -59.911720 50.114179
358 34 3 0.000000 26.232553 -65.169720 51.676179
359 34 4 0.000000 29.094553 -69.057720 53.287179
360 34 4 0.000000 29.035553 -74.881720 56.640179
361 34 4 0.000000 25.656553 -79.376720 59.952179
362 34 4 0.000000 20.473553 -82.842720 60.979179
363 35 3 0.000000 -48.967616 17.909081 -65.785825
364 35 3 0.000000 -45.128616 15.665081 -67.867825
365 35 3 0.000000 -39.187616 14.834081 -68.332825
366 35 2 0.000000 -33.280616 13.668081 -67.156825
367 35 2 0.000000 -29.497616 9.720081 -65.799825
368 35 3 0.000000 -29.032616 4.462081 -64.237825
369 35 4 0.000000 -26.170616 0.574081 -62.626825
370 35 4 0.000000 -26.229616 -5.249919 -59.273825
371 35 4 0.000000 -29.608616 -9.744919 -55.961825
372 35 4 0.000000 -34.791616 -13.210919 -54.934825
373 36 3 0.000000 54.477133 35.722188 18.911467
374 36 3 0.000000 58.316133 33.478188 16.829467
375 36 3 0.000000 64.257133 32.647188 16.364467
376 36 2 0.000000 70.164133 31.481188 17.540467
377 36 2 0.000000 73.947133 27.533188 18.897467
378 36 3 0.000000 74.412133 22.275188 20.459467
379 36 4 0.000000 77.274133 18.387188 22.070467
380 36 4 0.000000 77.215133 12.563188 25.423467
381 36 4 0.000000 73.836133 8.068188 28.735467
382 36 4 0.000000 68.653133 4.602188 29.762467
383 37 3 0.000000 -82.014253 39.611365 -14.239421
384 37 3 0.000000 -78.175253 37.367365 -16.321421
385 37 3 0.000000 -72.234253 36.536365 -16.786421
386 37 2 0.000000 -66.327253 35.370365 -15.610421
387 37 2 0.000000 -62.544253 31.422365 -14.253421
388 37 3 0.000000 -62.079253 26.164365 -12.691421
389 37 4 0.000000 -59.217253 22.276365 -11.080421
390 37 4 0.000000 -59.276253 16.452365 -7.727421
391 37 4 0.000000 -62.655253 11.957365 -4.415421
392 37 4 0.000000 -67.838253 8.491365 -3.388421
393 38 3 0.000000 -63.340306 40.373284 15.655588
394 38 3 0.000000 -59.501306 38.129284 13.573588
395 38 3 0.000000 -53.560306 37.298284 13.108588
396 38 2 0.000000 -47.653306 36.132284 14.284588
397 38 2 0.000000 -43.870306 32.184284 15.641588
398 38 3 0.000000 -43.405306 26.926284 17.203588
399 38 4 0.000000 -40.543306 23.038284 18.814588
400 38 4 0.000000 -40.602306 17.214284 22.167588
401 38 4 0.000000 -43.981306 12.719284 25.479588
402 38 4 0.000000 -49.164306 9.253284 26.506588
403 39 3 0.000000 -42.621796 35.679441 20.159615
404 39 3 0.000000 -38.782796 33.435441 18.077615
405 39 3 0.000000 -32.841796 32.604441 17.612615
406 39 2 0.000000 -26.934796 31.438441 18.788615
407 39 2 0.000000 -23.151796 27.490441 20.145615
408 39 3 0.000000 -22.686796 22.232441 21.707615
409 39 4 0.000000 -19.824796 18.344441 23.318615
410 39 4 0.000000 -19.883796 12.520441 26.671615
411 39 4 0.000000 -23.262796 8.025441 29.983615
412 39 4 0.000000 -28.445796 4.559441 31.010615
413 40 3 0.000000 -46.981299 27.835207 -53.385107
414 40 3 0.000000 -43.142299 25.591207 -55.467107
415 40 3 0.000000 -37.201299 24.760207 -55.932107
416 40 2 0.000000 -31.294299 23.594207 -54.756107
417 40 2 0.000000 -27.511299 19.646207 -53.399107
418 40 3 0.000000 -27.046299 14.388207 -51.837107
419 40 4 0.000000 -24.184299 10.500207 -50.226107
420 40 4 0.000000 -24.243299 4.676207 -46.873107
421 40 4 0.000000 -27.622299 0.181207 -43.561107
422 40 4 0.000000 -32.805299 -3.284793 -42.534107
423 41 3 0.000000 -68.295260 -40.991843 -57.711081
424 41 3 0.000000 -64.456260 -43.235843 -59.793081
425 41 3 0.000000 -58.515260 -44.066843 -60.258081
426 41 2 0.000000 -52.608260 -45.232843 -59.082081
427 41 2 0.000000 -48.825260 -49.180843 -57.725081
428 41 3 0.000000 -48.360260 -54.438843 -56.163081
429 41 4 0.000000 -45.498260 -58.326843 -54.552081
430 41 4 0.000000 -45.557260 -64.150843 -51.199081
431 41 4 0.000000 -48.936260 -68.645843 -47.887081
432 41 4 0.000000 -54.119260 -72.111843 -46.860081
433 42 3 0.000000 -56.967567 -28.988686 -35.768852
434 42 3 0.000000 -53.128567 -31.232686 -37.850852
435 42 3 0.000000 -47.187567 -32.063686 -38.315852
436 42 2 0.000000 -41.280567 -33.229686 -37.139852
437 42 2 0.000000 -37.497567 -37.177686 -35.782852
438 42 3 0.000000 -37.032567 -42.435686 -34.220852
439 42 4 0.000000 -34.170567 -46.323686 -32.609852
440 42 4 0.000000 -34.229567 -52.147686 -29.256852
441 42 4 0.000000 -37.608567 -56.642686 -25.944852
442 42 4 0.000000 -42.791567 -60.108686 -24.917852
443 43 3 0.000000 -11.537645 -28.719353 25.893145
444 43 3 0.000000 -7.698645 -30.963353 23.811145
445 43 3 0.000000 -1.757645 -31.794353 23.346145
446 43 2 0.000000 4.149355 -32.960353 24.522145
447 43 2 0.000000 7.932355 -36.908353 25.879145
448 43 3 0.000000 8.397355 -42.166353 27.441145
449 43 4 0.000000 11.259355 -46.054353 29.052145
450 43 4 0.000000 11.200355 -51.878353 32.405145
451 43 4 0.000000 7.821355 -56.373353 35.717145
452 43 4 0.000000 2.638355 -59.839353 36.744145
453 44 3 0.000000 -43.428932 -51.436801 -3.098340
454 44 3 0.000000 -39.589932 -53.680801 -5.180340
455 44 3 0.000000 -33.648932 -54.511801 -5.645340
456 44 2 0.000000 -27.741932 -55.677801 -4.469340
457 44 2 0.000000 -23.958932 -59.625801 -3.112340
458 44 3 0.000000 -23.493932 -64.883801 -1.550340
459 44 4 0.000000 -20.631932 -68.771801 0.060660
460 44 4 0.000000 -20.690932 -74.595801 3.413660
461 44 4 0.000000 -24.069932 -79.090801 6.725660
462 44 4 0.000000 -29.252932 -82.556801 7.752660
463 45 3 0.000000 -55.700942 73.683808 -26.303494
464 45 3 0.000000 -51.861942 71.439808 -28.385494
465 45 3 0.000000 -45.920942 70.608808 -28.850494
466 45 2 0.000000 -40.013942 69.442808 -27.674494
467 45 2 0.000000 -36.230942 65.494808 -26.317494
468 45 3 0.000000 -35.765942 60.236808 -24.755494
469 45 4 0.000000 -32.903942 56.348808 -23.144494
470 45 4 0.000000 -32.962942 50.524808 -19.791494
471 45 4 0.000000 -36.341942 46.029808 -16.479494
472 45 4 0.000000 -41.524942 42.563808 -15.452494
473 46 3 0.000000 -84.394780 37.075039 54.375206
474 46 3 0.000000 -80.555780 34.831039 52.293206
475 46 3 0.000000 -74.614780 34.000039 51.828206
476 46 2 0.000000 -68.707780 32.834039 53.004206
477 46 2 0.000000 -64.924780 28.886039 54.361206
478 46 3 0.000000 -64.459780 23.628039 55.923206
479 46 4 0.000000 -61.597780 19.740039 57.534206
480 46 4 0.000000 -61.656780 13.916039 60.887206
481 46 4 0.000000 -65.035780 9.421039 64.199206
482 46 4 0.000000 -70.218780 5.955039 65.226206
483 47 3 0.000000 -72.166526 14.685149 28.710906
484 47 3 0.000000 -68.327526 12.441149 26.628906
485 47 3 0.000000 -62.386526 11.610149 26.163906
486 47 2 0.000000 -56.479526 10.444149 27.339906
487 47 2 0.000000 -52.696526 6.496149 28.696906
488 47 3 0.000000 -52.231526 1.238149 30.258906
489 47 4 0.000000 -49.369526 -2.649851 31.869906
490 47 4 0.000000 -49.428526 -8.473851 35.222906
491 47 4 0.000000 -52.807526 -12.968851 38.534906
492 47 4 0.000000 -57.990526 -16.434851 39.561906
493 48 3 0.000000 -70.597433 -21.128706 -40.225560
494 48 3 0.000000 -66.758433 -23.372706 -42.307560
495 48 3 0.000000 -60.817433 -24.203706 -42.772560
496 48 2 0.000000 -54.910433 -25.369706 -41.596560
497 48 2 0.000000 -51.127433 -29.317706 -40.239560
498 48 3 0.000000 -50.662433 -34.575706 -38.677560
499 48 4 0.000000 -47.800433 -38.463706 -37.066560
500 48 4 0.000000 -47.859433 -44.287706 -33.713560
501 48 4 0.000000 -51.238433 -48.782706 -30.401560
502 48 4 0.000000 -56.421433 -52.248706 -29.374560
503 49 3 0.000000 53.635130 -15.510495 -7.589170
504 49 3 0.000000 57.474130 -17.754495 -9.671170
505 49 3 0.000000 63.415130 -18.585495 -10.136170
506 49 2 0.000000 69.322130 -19.751495 -8.960170
507 49 2 0.000000 73.105130 -23.699495 -7.603170
508 49 3 0.000000 73.570130 -28.957495 -6.041170
509 49 4 0.000000 76.432130 -32.845495 -4.430170
510 49 4 0.000000 76.373130 -38.669495 -1.077170
511 49 4 0.000000 72.994130 -43.164495 2.234830
512 49 4 0.000000 67.811130 -46.630495 3.261830
513 50 3 0.000000 -78.353628 62.326222 20.281704
514 50 3 0.000000 -74.514628 60.082222 18.199704
515 50 3 0.000000 -68.573628 59.251222 17.734704
516 50 2 0.000000 -62.666628 58.085222 18.910704
517 50 2 0.000000 -58.883628 54.137222 20.267704
518 50 3 0.000000 -58.418628 48.879222 21.829704
519 50 4 0.000000 -55.556628 44.991222 23.440704
520 50 4 0.000000 -55.615628 39.167222 26.793704
521 50 4 0.000000 -58.994628 34.672222 30.105704
522 50 4 0.000000 -64.177628 31.206222 31.132704
523 51 3 0.000000 -60.906381 -6.899763 -11.307968
524 51 3 0.000000 -57.067381 -9.143763 -13.389968
525 51 3 0.000000 -51.126381 -9.974763 -13.854968
526 51 2 0.000000 -45.219381 -11.140763 -12.678968
527 51 2 0.000000 -41.436381 -15.088763 -11.321968
528 51 3 0.000000 -40.971381 -20.346763 -9.759968
529 51 4 0.000000 -38.109381 -24.234763 -8.148968
530 51 4 0.000000 -38.168381 -30.058763 -4.795968
531 51 4 0.000000 -41.547381 -34.553763 -1.483968
532 51 4 0.000000 -46.730381 -38.019763 -0.456968
533 52 3 0.000000 2.274885 66.032975 -59.574816
534 52 3 0.000000 6.113885 63.788975 -61.656816
535 52 3 0.000000 12.054885 62.957975 -62.121816
536 52 2 0.000000 17.961885 61.791975 -60.945816
537 52 2 0.000000 21.744885 57.843975 -59.588816
538 52 3 0.000000 22.209885 52.585975 -58.026816
539 52 4 0.000000 25.071885 48.697975 -56.415816
540 52 4 0.000000 25.012885 42.873975 -53.062816
541 52 4 0.000000 21.633885 38.378975 -49.750816
542 52 4 0.000000 16.450885 34.912975 -48.723816
543 53 3 0.000000 29.316901 -31.351881 -16.479148
544 53 3 0.000000 33.155901 -33.595881 -18.561148
545 53 3 0.000000 39.096901 -34.426881 -19.026148
546 53 2 0.000000 45.003901 -35.592881 -17.850148
547 53 2 0.000000 48.786901 -39.540881 -16.493148
548 53 3 0.000000 49.251901 -44.798881 -14.931148
549 53 4 0.000000 52.113901 -48.686881 -13.320148
550 53 4 0.000000 52.054901 -54.510881 -9.967148
551 53 4 0.000000 48.675901 -59.005881 -6.655148
552 53 4 0.000000 43.492901 -62.471881 -5.628148
553 54 3 0.000000 34.315921 55.032274 18.250508
554 54 3 0.000000 38.154921 52.788274 16.168508
555 54 3 0.000000 44.095921 51.957274 15.703508
556 54 2 0.000000 50.002921 50.791274 16.879508
557 54 2 0.000000 53.785921 46.843274 18.236508
558 54 3 0.000000 54.250921 41.585274 19.798508
559 54 4 0.000000 57.112921 37.697274 21.409508
560 54 4 0.000000 57.053921 31.873274 24.762508
561 54 4 0.000000 53.674921 27.378274 28.074508
562 54 4 0.000000 48.491921 23.912274 29.101508
563 55 3 0.000000 -26.534220 25.751442 39.729070
564 55 3 0.000000 -22.695220 23.507442 37.647070
565 55 3 0.000000 -16.754220 22.676442 37.182070
566 55 2 0.000000 -10.847220 21.510442 38.358070
567 55 2 0.000000 -7.064220 17.562442 39.715070
568 55 3 0.000000 -6.599220 12.304442 41.277070
569 55 4 0.000000 -3.737220 8.416442 42.888070
570 55 4 0.000000 -3.796220 2.592442 46.241070
571 55 4 0.000000 -7.175220 -1.902558 49.553070
572 55 4 0.000000 -12.358220 -5.368558 50.580070
573 56 3 0.000000 -34.574252 -52.919328 23.236979
574 56 3 0.000000 -30.735252 -55.163328 21.154979
575 56 3 0.000000 -24.794252 -55.994328 20.689979
576 56 2 0.000000 -18.887252 -57.160328 21.865979
577 56 2 0.000000 -15.104252 -61.108328 23.222979
578 56 3 0.000000 -14.639252 -66.366328 24.784979
579 56 4 0.000000 -11.777252 -70.254328 26.395979
580 56 4 0.000000 -11.836252 -76.078328 29.748979
581 56 4 0.000000 -15.215252 -80.573328 33.060979
582 56 4 0.000000 -20.398252 -84.039328 34.087979
583 57 3 0.000000 32.617007 79.328641 -54.296254
584 57 3 0.000000 36.456007 77.084641 -56.378254
585 57 3 0.000000 42.397007 76.253641 -56.843254
586 57 2 0.000000 48.304007 75.087641 -55.667254
587 57 2 0.000000 52.087007 71.139641 -54.310254
588 57 3 0.000000 52.552007 65.881641 -52.748254
589 57 4 0.000000 55.414007 61.993641 -51.137254
590 57 4 0.000000 55.355007 56.169641 -47.784254
591 57 4 0.000000 51.976007 51.674641 -44.472254
592 57 4 0.000000 46.793007 48.208641 -43.445254
593 58 3 0.000000 44.077618 -41.142353 -15.008203
594 58 3 0.000000 47.916618 -43.386353 -17.090203
595 58 3 0.000000 53.857618 -44.217353 -17.555203
596 58 2 0.000000 59.764618 -45.383353 -16.379203
597 58 2 0.000000 63.547618 -49.331353 -15.022203
598 58 3 0.000000 64.012618 -54.589353 -13.460203
599 58 4 0.000000 66.874618 -58.477353 -11.849203
600 58 4 0.000000 66.815618 -64.301353 -8.496203
601 58 4 0.000000 63.436618 -68.796353 -5.184203
602 58 4 0.000000 58.253618 -72.262353 -4.157203
603 59 3 0.000000 13.861445 37.956449 34.866021
604 59 3 0.000000 17.700445 35.712449 32.784021
605 59 3 0.000000 23.641445 34.881449 32.319021
606 59 2 0.000000 29.548445 33.715449 33.495021
607 59 2 0.000000 33.331445 29.767449 34.852021
608 59 3 0.000000 33.796445 24.509449 36.414021