LAMMPS data file - Unmod ASO + AAtoCC hairpin - 1 Docked + 99 Free + 1 Hairpin

1032 atoms
931 bonds
830 angles

4 atom types
1 bond types
1 angle types

-80.000000 80.000000 xlo xhi
-80.000000 80.000000 ylo yhi
-80.000000 80.000000 zlo zhi

Masses

1 329.20
2 305.20
3 345.20
4 306.20

Atoms

1 1 3 0.000000 -5.578000 20.548000 -14.353000
2 1 3 0.000000 -1.739000 18.304000 -16.435000
3 1 3 0.000000 4.202000 17.473000 -16.900000
4 1 2 0.000000 10.109000 16.307000 -15.724000
5 1 4 0.000000 13.892000 12.359000 -14.367000
6 1 3 0.000000 14.357000 7.101000 -12.805000
7 1 4 0.000000 17.219000 3.213000 -11.194000
8 1 4 0.000000 17.160000 -2.611000 -7.841000
9 1 4 0.000000 13.781000 -7.106000 -4.529000
10 1 4 0.000000 8.598000 -10.572000 -3.502000
11 2 3 0.000000 6.200000 -18.293000 1.303000
12 2 2 0.000000 11.826000 -16.769000 -0.282000
13 2 4 0.000000 14.864000 -14.582000 -4.893000
14 2 3 0.000000 14.993000 -11.956000 -10.484000
15 2 1 0.000000 12.426000 -9.940000 -15.598000
16 2 2 0.000000 7.732000 -7.606000 -17.857000
17 2 4 0.000000 3.763000 -3.183000 -18.318000
18 2 4 0.000000 1.611000 0.624000 -14.480000
19 2 4 0.000000 0.089000 3.321000 -9.329000
20 2 2 0.000000 2.466000 6.071000 -5.189000
21 2 1 0.000000 6.436000 9.150000 -2.157000
22 2 3 0.000000 8.843000 14.297000 -1.868000
23 2 2 0.000000 9.022000 19.873000 -3.800000
24 2 2 0.000000 8.786000 23.869000 -7.968000
25 2 2 0.000000 6.160000 28.412000 -10.146000
26 2 2 0.000000 11.347000 31.588000 -11.576000
27 2 1 0.000000 12.725000 25.899000 -11.465000
28 2 1 0.000000 12.008000 20.723000 -14.164000
29 2 1 0.000000 16.188000 17.160000 -11.527000
30 2 2 0.000000 19.755000 13.589000 -10.756000
31 2 2 0.000000 19.715000 8.246000 -7.924000
32 2 2 0.000000 17.704000 3.884000 -4.612000
33 2 1 0.000000 14.080000 -0.712000 -1.421000
34 2 1 0.000000 9.302000 -2.868000 -0.830000
35 2 1 0.000000 4.380000 -5.707000 -2.379000
36 2 1 0.000000 -0.876000 -7.526000 -5.386000
37 2 3 0.000000 -2.393000 -11.401000 -8.758000
38 2 4 0.000000 -0.063000 -15.859000 -11.557000
39 2 2 0.000000 3.680000 -20.032000 -13.782000
40 2 1 0.000000 8.300000 -23.997000 -14.294000
41 2 3 0.000000 11.532000 -27.040000 -10.381000
42 2 2 0.000000 12.517000 -29.449000 -5.237000
43 3 3 0.000000 16.905759 80.660306 10.818796
44 3 3 0.000000 20.744759 78.416306 8.736796
45 3 3 0.000000 26.685759 77.585306 8.271796
46 3 2 0.000000 32.592759 76.419306 9.447796
47 3 4 0.000000 36.375759 72.471306 10.804796
48 3 3 0.000000 36.840759 67.213306 12.366796
49 3 4 0.000000 39.702759 63.325306 13.977796
50 3 4 0.000000 39.643759 57.501306 17.330796
51 3 4 0.000000 36.264759 53.006306 20.642796
52 3 4 0.000000 31.081759 49.540306 21.669796
53 4 3 0.000000 -12.312790 82.124081 -30.330168
54 4 3 0.000000 -8.473790 79.880081 -32.412168
55 4 3 0.000000 -2.532790 79.049081 -32.877168
56 4 2 0.000000 3.374210 77.883081 -31.701168
57 4 4 0.000000 7.157210 73.935081 -30.344168
58 4 3 0.000000 7.622210 68.677081 -28.782168
59 4 4 0.000000 10.484210 64.789081 -27.171168
60 4 4 0.000000 10.425210 58.965081 -23.818168
61 4 4 0.000000 7.046210 54.470081 -20.506168
62 4 4 0.000000 1.863210 51.004081 -19.479168
63 5 3 0.000000 -42.731345 -25.889462 47.212860
64 5 3 0.000000 -38.892345 -28.133462 45.130860
65 5 3 0.000000 -32.951345 -28.964462 44.665860
66 5 2 0.000000 -27.044345 -30.130462 45.841860
67 5 4 0.000000 -23.261345 -34.078462 47.198860
68 5 3 0.000000 -22.796345 -39.336462 48.760860
69 5 4 0.000000 -19.934345 -43.224462 50.371860
70 5 4 0.000000 -19.993345 -49.048462 53.724860
71 5 4 0.000000 -23.372345 -53.543462 57.036860
72 5 4 0.000000 -28.555345 -57.009462 58.063860
73 6 3 0.000000 -81.739908 58.117989 23.972686
74 6 3 0.000000 -77.900908 55.873989 21.890686
75 6 3 0.000000 -71.959908 55.042989 21.425686
76 6 2 0.000000 -66.052908 53.876989 22.601686
77 6 4 0.000000 -62.269908 49.928989 23.958686
78 6 3 0.000000 -61.804908 44.670989 25.520686
79 6 4 0.000000 -58.942908 40.782989 27.131686
80 6 4 0.000000 -59.001908 34.958989 30.484686
81 6 4 0.000000 -62.380908 30.463989 33.796686
82 6 4 0.000000 -67.563908 26.997989 34.823686
83 7 3 0.000000 44.851043 -35.293530 -67.304918
84 7 3 0.000000 48.690043 -37.537530 -69.386918
85 7 3 0.000000 54.631043 -38.368530 -69.851918
86 7 2 0.000000 60.538043 -39.534530 -68.675918
87 7 4 0.000000 64.321043 -43.482530 -67.318918
88 7 3 0.000000 64.786043 -48.740530 -65.756918
89 7 4 0.000000 67.648043 -52.628530 -64.145918
90 7 4 0.000000 67.589043 -58.452530 -60.792918
91 7 4 0.000000 64.210043 -62.947530 -57.480918
92 7 4 0.000000 59.027043 -66.413530 -56.453918
93 8 3 0.000000 -34.986295 -37.576453 -21.196395
94 8 3 0.000000 -31.147295 -39.820453 -23.278395
95 8 3 0.000000 -25.206295 -40.651453 -23.743395
96 8 2 0.000000 -19.299295 -41.817453 -22.567395
97 8 4 0.000000 -15.516295 -45.765453 -21.210395
98 8 3 0.000000 -15.051295 -51.023453 -19.648395
99 8 4 0.000000 -12.189295 -54.911453 -18.037395
100 8 4 0.000000 -12.248295 -60.735453 -14.684395
101 8 4 0.000000 -15.627295 -65.230453 -11.372395
102 8 4 0.000000 -20.810295 -68.696453 -10.345395
103 9 3 0.000000 -3.276301 -24.334419 40.962393
104 9 3 0.000000 0.562699 -26.578419 38.880393
105 9 3 0.000000 6.503699 -27.409419 38.415393
106 9 2 0.000000 12.410699 -28.575419 39.591393
107 9 4 0.000000 16.193699 -32.523419 40.948393
108 9 3 0.000000 16.658699 -37.781419 42.510393
109 9 4 0.000000 19.520699 -41.669419 44.121393
110 9 4 0.000000 19.461699 -47.493419 47.474393
111 9 4 0.000000 16.082699 -51.988419 50.786393
112 9 4 0.000000 10.899699 -55.454419 51.813393
113 10 3 0.000000 -71.911383 -0.981845 55.915452
114 10 3 0.000000 -68.072383 -3.225845 53.833452
115 10 3 0.000000 -62.131383 -4.056845 53.368452
116 10 2 0.000000 -56.224383 -5.222845 54.544452
117 10 4 0.000000 -52.441383 -9.170845 55.901452
118 10 3 0.000000 -51.976383 -14.428845 57.463452
119 10 4 0.000000 -49.114383 -18.316845 59.074452
120 10 4 0.000000 -49.173383 -24.140845 62.427452
121 10 4 0.000000 -52.552383 -28.635845 65.739452
122 10 4 0.000000 -57.735383 -32.101845 66.766452
123 11 3 0.000000 18.019134 44.347674 38.418587
124 11 3 0.000000 21.858134 42.103674 36.336587
125 11 3 0.000000 27.799134 41.272674 35.871587
126 11 2 0.000000 33.706134 40.106674 37.047587
127 11 4 0.000000 37.489134 36.158674 38.404587
128 11 3 0.000000 37.954134 30.900674 39.966587
129 11 4 0.000000 40.816134 27.012674 41.577587
130 11 4 0.000000 40.757134 21.188674 44.930587
131 11 4 0.000000 37.378134 16.693674 48.242587
132 11 4 0.000000 32.195134 13.227674 49.269587
133 12 3 0.000000 -60.571751 58.645134 23.955314
134 12 3 0.000000 -56.732751 56.401134 21.873314
135 12 3 0.000000 -50.791751 55.570134 21.408314
136 12 2 0.000000 -44.884751 54.404134 22.584314
137 12 4 0.000000 -41.101751 50.456134 23.941314
138 12 3 0.000000 -40.636751 45.198134 25.503314
139 12 4 0.000000 -37.774751 41.310134 27.114314
140 12 4 0.000000 -37.833751 35.486134 30.467314
141 12 4 0.000000 -41.212751 30.991134 33.779314
142 12 4 0.000000 -46.395751 27.525134 34.806314
143 13 3 0.000000 -4.105555 70.118190 10.744368
144 13 3 0.000000 -0.266555 67.874190 8.662368
145 13 3 0.000000 5.674445 67.043190 8.197368
146 13 2 0.000000 11.581445 65.877190 9.373368
147 13 4 0.000000 15.364445 61.929190 10.730368
148 13 3 0.000000 15.829445 56.671190 12.292368
149 13 4 0.000000 18.691445 52.783190 13.903368
150 13 4 0.000000 18.632445 46.959190 17.256368
151 13 4 0.000000 15.253445 42.464190 20.568368
152 13 4 0.000000 10.070445 38.998190 21.595368
153 14 3 0.000000 -42.723044 45.356911 8.091717
154 14 3 0.000000 -38.884044 43.112911 6.009717
155 14 3 0.000000 -32.943044 42.281911 5.544717
156 14 2 0.000000 -27.036044 41.115911 6.720717
157 14 4 0.000000 -23.253044 37.167911 8.077717
158 14 3 0.000000 -22.788044 31.909911 9.639717
159 14 4 0.000000 -19.926044 28.021911 11.250717
160 14 4 0.000000 -19.985044 22.197911 14.603717
161 14 4 0.000000 -23.364044 17.702911 17.915717
162 14 4 0.000000 -28.547044 14.236911 18.942717
163 15 3 0.000000 -73.791265 -49.124421 35.338211
164 15 3 0.000000 -69.952265 -51.368421 33.256211
165 15 3 0.000000 -64.011265 -52.199421 32.791211
166 15 2 0.000000 -58.104265 -53.365421 33.967211
167 15 4 0.000000 -54.321265 -57.313421 35.324211
168 15 3 0.000000 -53.856265 -62.571421 36.886211
169 15 4 0.000000 -50.994265 -66.459421 38.497211
170 15 4 0.000000 -51.053265 -72.283421 41.850211
171 15 4 0.000000 -54.432265 -76.778421 45.162211
172 15 4 0.000000 -59.615265 -80.244421 46.189211
173 16 3 0.000000 -36.067871 57.446238 -14.274960
174 16 3 0.000000 -32.228871 55.202238 -16.356960
175 16 3 0.000000 -26.287871 54.371238 -16.821960
176 16 2 0.000000 -20.380871 53.205238 -15.645960
177 16 4 0.000000 -16.597871 49.257238 -14.288960
178 16 3 0.000000 -16.132871 43.999238 -12.726960
179 16 4 0.000000 -13.270871 40.111238 -11.115960
180 16 4 0.000000 -13.329871 34.287238 -7.762960
181 16 4 0.000000 -16.708871 29.792238 -4.450960
182 16 4 0.000000 -21.891871 26.326238 -3.423960
183 17 3 0.000000 36.718254 64.816512 -40.847526
184 17 3 0.000000 40.557254 62.572512 -42.929526
185 17 3 0.000000 46.498254 61.741512 -43.394526
186 17 2 0.000000 52.405254 60.575512 -42.218526
187 17 4 0.000000 56.188254 56.627512 -40.861526
188 17 3 0.000000 56.653254 51.369512 -39.299526
189 17 4 0.000000 59.515254 47.481512 -37.688526
190 17 4 0.000000 59.456254 41.657512 -34.335526
191 17 4 0.000000 56.077254 37.162512 -31.023526
192 17 4 0.000000 50.894254 33.696512 -29.996526
193 18 3 0.000000 6.610986 27.368629 -70.987187
194 18 3 0.000000 10.449986 25.124629 -73.069187
195 18 3 0.000000 16.390986 24.293629 -73.534187
196 18 2 0.000000 22.297986 23.127629 -72.358187
197 18 4 0.000000 26.080986 19.179629 -71.001187
198 18 3 0.000000 26.545986 13.921629 -69.439187
199 18 4 0.000000 29.407986 10.033629 -67.828187
200 18 4 0.000000 29.348986 4.209629 -64.475187
201 18 4 0.000000 25.969986 -0.285371 -61.163187
202 18 4 0.000000 20.786986 -3.751371 -60.136187
203 19 3 0.000000 24.060507 -3.405425 -29.918325
204 19 3 0.000000 27.899507 -5.649425 -32.000325
205 19 3 0.000000 33.840507 -6.480425 -32.465325
206 19 2 0.000000 39.747507 -7.646425 -31.289325
207 19 4 0.000000 43.530507 -11.594425 -29.932325
208 19 3 0.000000 43.995507 -16.852425 -28.370325
209 19 4 0.000000 46.857507 -20.740425 -26.759325
210 19 4 0.000000 46.798507 -26.564425 -23.406325
211 19 4 0.000000 43.419507 -31.059425 -20.094325
212 19 4 0.000000 38.236507 -34.525425 -19.067325
213 20 3 0.000000 -79.012585 18.636562 -51.646797
214 20 3 0.000000 -75.173585 16.392562 -53.728797
215 20 3 0.000000 -69.232585 15.561562 -54.193797
216 20 2 0.000000 -63.325585 14.395562 -53.017797
217 20 4 0.000000 -59.542585 10.447562 -51.660797
218 20 3 0.000000 -59.077585 5.189562 -50.098797
219 20 4 0.000000 -56.215585 1.301562 -48.487797
220 20 4 0.000000 -56.274585 -4.522438 -45.134797
221 20 4 0.000000 -59.653585 -9.017438 -41.822797
222 20 4 0.000000 -64.836585 -12.483438 -40.795797
223 21 3 0.000000 -14.441875 -26.041996 -65.515226
224 21 3 0.000000 -10.602875 -28.285996 -67.597226
225 21 3 0.000000 -4.661875 -29.116996 -68.062226
226 21 2 0.000000 1.245125 -30.282996 -66.886226
227 21 4 0.000000 5.028125 -34.230996 -65.529226
228 21 3 0.000000 5.493125 -39.488996 -63.967226
229 21 4 0.000000 8.355125 -43.376996 -62.356226
230 21 4 0.000000 8.296125 -49.200996 -59.003226
231 21 4 0.000000 4.917125 -53.695996 -55.691226
232 21 4 0.000000 -0.265875 -57.161996 -54.664226
233 22 3 0.000000 -1.459593 13.708508 -41.496012
234 22 3 0.000000 2.379407 11.464508 -43.578012
235 22 3 0.000000 8.320407 10.633508 -44.043012
236 22 2 0.000000 14.227407 9.467508 -42.867012
237 22 4 0.000000 18.010407 5.519508 -41.510012
238 22 3 0.000000 18.475407 0.261508 -39.948012
239 22 4 0.000000 21.337407 -3.626492 -38.337012
240 22 4 0.000000 21.278407 -9.450492 -34.984012
241 22 4 0.000000 17.899407 -13.945492 -31.672012
242 22 4 0.000000 12.716407 -17.411492 -30.645012
243 23 3 0.000000 -44.208476 -1.748463 -54.081534
244 23 3 0.000000 -40.369476 -3.992463 -56.163534
245 23 3 0.000000 -34.428476 -4.823463 -56.628534
246 23 2 0.000000 -28.521476 -5.989463 -55.452534
247 23 4 0.000000 -24.738476 -9.937463 -54.095534
248 23 3 0.000000 -24.273476 -15.195463 -52.533534
249 23 4 0.000000 -21.411476 -19.083463 -50.922534
250 23 4 0.000000 -21.470476 -24.907463 -47.569534
251 23 4 0.000000 -24.849476 -29.402463 -44.257534
252 23 4 0.000000 -30.032476 -32.868463 -43.230534
253 24 3 0.000000 -73.221784 23.048083 -65.684446
254 24 3 0.000000 -69.382784 20.804083 -67.766446
255 24 3 0.000000 -63.441784 19.973083 -68.231446
256 24 2 0.000000 -57.534784 18.807083 -67.055446
257 24 4 0.000000 -53.751784 14.859083 -65.698446
258 24 3 0.000000 -53.286784 9.601083 -64.136446
259 24 4 0.000000 -50.424784 5.713083 -62.525446
260 24 4 0.000000 -50.483784 -0.110917 -59.172446
261 24 4 0.000000 -53.862784 -4.605917 -55.860446
262 24 4 0.000000 -59.045784 -8.071917 -54.833446
263 25 3 0.000000 -28.891318 -45.042542 -2.332764
264 25 3 0.000000 -25.052318 -47.286542 -4.414764
265 25 3 0.000000 -19.111318 -48.117542 -4.879764
266 25 2 0.000000 -13.204318 -49.283542 -3.703764
267 25 4 0.000000 -9.421318 -53.231542 -2.346764
268 25 3 0.000000 -8.956318 -58.489542 -0.784764
269 25 4 0.000000 -6.094318 -62.377542 0.826236
270 25 4 0.000000 -6.153318 -68.201542 4.179236
271 25 4 0.000000 -9.532318 -72.696542 7.491236
272 25 4 0.000000 -14.715318 -76.162542 8.518236
273 26 3 0.000000 23.557419 -38.701076 -53.706093
274 26 3 0.000000 27.396419 -40.945076 -55.788093
275 26 3 0.000000 33.337419 -41.776076 -56.253093
276 26 2 0.000000 39.244419 -42.942076 -55.077093
277 26 4 0.000000 43.027419 -46.890076 -53.720093
278 26 3 0.000000 43.492419 -52.148076 -52.158093
279 26 4 0.000000 46.354419 -56.036076 -50.547093
280 26 4 0.000000 46.295419 -61.860076 -47.194093
281 26 4 0.000000 42.916419 -66.355076 -43.882093
282 26 4 0.000000 37.733419 -69.821076 -42.855093
283 27 3 0.000000 -57.324198 29.285957 30.405486
284 27 3 0.000000 -53.485198 27.041957 28.323486
285 27 3 0.000000 -47.544198 26.210957 27.858486
286 27 2 0.000000 -41.637198 25.044957 29.034486
287 27 4 0.000000 -37.854198 21.096957 30.391486
288 27 3 0.000000 -37.389198 15.838957 31.953486
289 27 4 0.000000 -34.527198 11.950957 33.564486
290 27 4 0.000000 -34.586198 6.126957 36.917486
291 27 4 0.000000 -37.965198 1.631957 40.229486
292 27 4 0.000000 -43.148198 -1.834043 41.256486
293 28 3 0.000000 -50.303682 -46.923443 36.160066
294 28 3 0.000000 -46.464682 -49.167443 34.078066
295 28 3 0.000000 -40.523682 -49.998443 33.613066
296 28 2 0.000000 -34.616682 -51.164443 34.789066
297 28 4 0.000000 -30.833682 -55.112443 36.146066
298 28 3 0.000000 -30.368682 -60.370443 37.708066
299 28 4 0.000000 -27.506682 -64.258443 39.319066
300 28 4 0.000000 -27.565682 -70.082443 42.672066
301 28 4 0.000000 -30.944682 -74.577443 45.984066
302 28 4 0.000000 -36.127682 -78.043443 47.011066
303 29 3 0.000000 -39.500470 72.425731 -60.044749
304 29 3 0.000000 -35.661470 70.181731 -62.126749
305 29 3 0.000000 -29.720470 69.350731 -62.591749
306 29 2 0.000000 -23.813470 68.184731 -61.415749
307 29 4 0.000000 -20.030470 64.236731 -60.058749
308 29 3 0.000000 -19.565470 58.978731 -58.496749
309 29 4 0.000000 -16.703470 55.090731 -56.885749
310 29 4 0.000000 -16.762470 49.266731 -53.532749
311 29 4 0.000000 -20.141470 44.771731 -50.220749
312 29 4 0.000000 -25.324470 41.305731 -49.193749
313 30 3 0.000000 -39.874729 26.189201 -69.199044
314 30 3 0.000000 -36.035729 23.945201 -71.281044
315 30 3 0.000000 -30.094729 23.114201 -71.746044
316 30 2 0.000000 -24.187729 21.948201 -70.570044
317 30 4 0.000000 -20.404729 18.000201 -69.213044
318 30 3 0.000000 -19.939729 12.742201 -67.651044
319 30 4 0.000000 -17.077729 8.854201 -66.040044
320 30 4 0.000000 -17.136729 3.030201 -62.687044
321 30 4 0.000000 -20.515729 -1.464799 -59.375044
322 30 4 0.000000 -25.698729 -4.930799 -58.348044
323 31 3 0.000000 -42.103461 81.317668 13.682939
324 31 3 0.000000 -38.264461 79.073668 11.600939
325 31 3 0.000000 -32.323461 78.242668 11.135939
326 31 2 0.000000 -26.416461 77.076668 12.311939
327 31 4 0.000000 -22.633461 73.128668 13.668939
328 31 3 0.000000 -22.168461 67.870668 15.230939
329 31 4 0.000000 -19.306461 63.982668 16.841939
330 31 4 0.000000 -19.365461 58.158668 20.194939
331 31 4 0.000000 -22.744461 53.663668 23.506939
332 31 4 0.000000 -27.927461 50.197668 24.533939
333 32 3 0.000000 53.844186 4.955815 -52.173413
334 32 3 0.000000 57.683186 2.711815 -54.255413
335 32 3 0.000000 63.624186 1.880815 -54.720413
336 32 2 0.000000 69.531186 0.714815 -53.544413
337 32 4 0.000000 73.314186 -3.233185 -52.187413
338 32 3 0.000000 73.779186 -8.491185 -50.625413
339 32 4 0.000000 76.641186 -12.379185 -49.014413
340 32 4 0.000000 76.582186 -18.203185 -45.661413
341 32 4 0.000000 73.203186 -22.698185 -42.349413
342 32 4 0.000000 68.020186 -26.164185 -41.322413
343 33 3 0.000000 -78.495243 57.590469 -44.632070
344 33 3 0.000000 -74.656243 55.346469 -46.714070
345 33 3 0.000000 -68.715243 54.515469 -47.179070
346 33 2 0.000000 -62.808243 53.349469 -46.003070
347 33 4 0.000000 -59.025243 49.401469 -44.646070
348 33 3 0.000000 -58.560243 44.143469 -43.084070
349 33 4 0.000000 -55.698243 40.255469 -41.473070
350 33 4 0.000000 -55.757243 34.431469 -38.120070
351 33 4 0.000000 -59.136243 29.936469 -34.808070
352 33 4 0.000000 -64.319243 26.470469 -33.781070
353 34 3 0.000000 -32.443189 49.129130 46.798980
354 34 3 0.000000 -28.604189 46.885130 44.716980
355 34 3 0.000000 -22.663189 46.054130 44.251980
356 34 2 0.000000 -16.756189 44.888130 45.427980
357 34 4 0.000000 -12.973189 40.940130 46.784980
358 34 3 0.000000 -12.508189 35.682130 48.346980
359 34 4 0.000000 -9.646189 31.794130 49.957980
360 34 4 0.000000 -9.705189 25.970130 53.310980
361 34 4 0.000000 -13.084189 21.475130 56.622980
362 34 4 0.000000 -18.267189 18.009130 57.649980
363 35 3 0.000000 -69.046056 -49.318278 60.263728
364 35 3 0.000000 -65.207056 -51.562278 58.181728
365 35 3 0.000000 -59.266056 -52.393278 57.716728
366 35 2 0.000000 -53.359056 -53.559278 58.892728
367 35 4 0.000000 -49.576056 -57.507278 60.249728
368 35 3 0.000000 -49.111056 -62.765278 61.811728
369 35 4 0.000000 -46.249056 -66.653278 63.422728
370 35 4 0.000000 -46.308056 -72.477278 66.775728
371 35 4 0.000000 -49.687056 -76.972278 70.087728
372 35 4 0.000000 -54.870056 -80.438278 71.114728
373 36 3 0.000000 44.964057 64.671729 42.230754
374 36 3 0.000000 48.803057 62.427729 40.148754
375 36 3 0.000000 54.744057 61.596729 39.683754
376 36 2 0.000000 60.651057 60.430729 40.859754
377 36 4 0.000000 64.434057 56.482729 42.216754
378 36 3 0.000000 64.899057 51.224729 43.778754
379 36 4 0.000000 67.761057 47.336729 45.389754
380 36 4 0.000000 67.702057 41.512729 48.742754
381 36 4 0.000000 64.323057 37.017729 52.054754
382 36 4 0.000000 59.140057 33.551729 53.081754
383 37 3 0.000000 -82.855439 40.177732 -57.009081
384 37 3 0.000000 -79.016439 37.933732 -59.091081
385 37 3 0.000000 -73.075439 37.102732 -59.556081
386 37 2 0.000000 -67.168439 35.936732 -58.380081
387 37 4 0.000000 -63.385439 31.988732 -57.023081
388 37 3 0.000000 -62.920439 26.730732 -55.461081
389 37 4 0.000000 -60.058439 22.842732 -53.850081
390 37 4 0.000000 -60.117439 17.018732 -50.497081
391 37 4 0.000000 -63.496439 12.523732 -47.185081
392 37 4 0.000000 -68.679439 9.057732 -46.158081
393 38 3 0.000000 -21.769480 -53.768864 -43.326664
394 38 3 0.000000 -17.930480 -56.012864 -45.408664
395 38 3 0.000000 -11.989480 -56.843864 -45.873664
396 38 2 0.000000 -6.082480 -58.009864 -44.697664
397 38 4 0.000000 -2.299480 -61.957864 -43.340664
398 38 3 0.000000 -1.834480 -67.215864 -41.778664
399 38 4 0.000000 1.027520 -71.103864 -40.167664
400 38 4 0.000000 0.968520 -76.927864 -36.814664
401 38 4 0.000000 -2.410480 -81.422864 -33.502664
402 38 4 0.000000 -7.593480 -84.888864 -32.475664
403 39 3 0.000000 -9.457336 -28.421411 0.669223
404 39 3 0.000000 -5.618336 -30.665411 -1.412777
405 39 3 0.000000 0.322664 -31.496411 -1.877777
406 39 2 0.000000 6.229664 -32.662411 -0.701777
407 39 4 0.000000 10.012664 -36.610411 0.655223
408 39 3 0.000000 10.477664 -41.868411 2.217223
409 39 4 0.000000 13.339664 -45.756411 3.828223
410 39 4 0.000000 13.280664 -51.580411 7.181223
411 39 4 0.000000 9.901664 -56.075411 10.493223
412 39 4 0.000000 4.718664 -59.541411 11.520223
413 40 3 0.000000 -48.565980 10.670086 29.601302
414 40 3 0.000000 -44.726980 8.426086 27.519302
415 40 3 0.000000 -38.785980 7.595086 27.054302
416 40 2 0.000000 -32.878980 6.429086 28.230302
417 40 4 0.000000 -29.095980 2.481086 29.587302
418 40 3 0.000000 -28.630980 -2.776914 31.149302
419 40 4 0.000000 -25.768980 -6.664914 32.760302
420 40 4 0.000000 -25.827980 -12.488914 36.113302
421 40 4 0.000000 -29.206980 -16.983914 39.425302
422 40 4 0.000000 -34.389980 -20.449914 40.452302
423 41 3 0.000000 -64.989461 40.872132 -70.013608
424 41 3 0.000000 -61.150461 38.628132 -72.095608
425 41 3 0.000000 -55.209461 37.797132 -72.560608
426 41 2 0.000000 -49.302461 36.631132 -71.384608
427 41 4 0.000000 -45.519461 32.683132 -70.027608
428 41 3 0.000000 -45.054461 27.425132 -68.465608
429 41 4 0.000000 -42.192461 23.537132 -66.854608
430 41 4 0.000000 -42.251461 17.713132 -63.501608
431 41 4 0.000000 -45.630461 13.218132 -60.189608
432 41 4 0.000000 -50.813461 9.752132 -59.162608
433 42 3 0.000000 -60.933349 -17.191704 37.898389
434 42 3 0.000000 -57.094349 -19.435704 35.816389
435 42 3 0.000000 -51.153349 -20.266704 35.351389
436 42 2 0.000000 -45.246349 -21.432704 36.527389
437 42 4 0.000000 -41.463349 -25.380704 37.884389
438 42 3 0.000000 -40.998349 -30.638704 39.446389
439 42 4 0.000000 -38.136349 -34.526704 41.057389
440 42 4 0.000000 -38.195349 -40.350704 44.410389
441 42 4 0.000000 -41.574349 -44.845704 47.722389
442 42 4 0.000000 -46.757349 -48.311704 48.749389
443 43 3 0.000000 1.736969 -49.521665 19.078102
444 43 3 0.000000 5.575969 -51.765665 16.996102
445 43 3 0.000000 11.516969 -52.596665 16.531102
446 43 2 0.000000 17.423969 -53.762665 17.707102
447 43 4 0.000000 21.206969 -57.710665 19.064102
448 43 3 0.000000 21.671969 -62.968665 20.626102
449 43 4 0.000000 24.533969 -66.856665 22.237102
450 43 4 0.000000 24.474969 -72.680665 25.590102
451 43 4 0.000000 21.095969 -77.175665 28.902102
452 43 4 0.000000 15.912969 -80.641665 29.929102
453 44 3 0.000000 -83.611315 -2.543279 -34.604547
454 44 3 0.000000 -79.772315 -4.787279 -36.686547
455 44 3 0.000000 -73.831315 -5.618279 -37.151547
456 44 2 0.000000 -67.924315 -6.784279 -35.975547
457 44 4 0.000000 -64.141315 -10.732279 -34.618547
458 44 3 0.000000 -63.676315 -15.990279 -33.056547
459 44 4 0.000000 -60.814315 -19.878279 -31.445547
460 44 4 0.000000 -60.873315 -25.702279 -28.092547
461 44 4 0.000000 -64.252315 -30.197279 -24.780547
462 44 4 0.000000 -69.435315 -33.663279 -23.753547
463 45 3 0.000000 34.513512 35.460452 48.411518
464 45 3 0.000000 38.352512 33.216452 46.329518
465 45 3 0.000000 44.293512 32.385452 45.864518
466 45 2 0.000000 50.200512 31.219452 47.040518
467 45 4 0.000000 53.983512 27.271452 48.397518
468 45 3 0.000000 54.448512 22.013452 49.959518
469 45 4 0.000000 57.310512 18.125452 51.570518
470 45 4 0.000000 57.251512 12.301452 54.923518
471 45 4 0.000000 53.872512 7.806452 58.235518
472 45 4 0.000000 48.689512 4.340452 59.262518
473 46 3 0.000000 -52.414493 -3.655432 64.137672
474 46 3 0.000000 -48.575493 -5.899432 62.055672
475 46 3 0.000000 -42.634493 -6.730432 61.590672
476 46 2 0.000000 -36.727493 -7.896432 62.766672
477 46 4 0.000000 -32.944493 -11.844432 64.123672
478 46 3 0.000000 -32.479493 -17.102432 65.685672
479 46 4 0.000000 -29.617493 -20.990432 67.296672
480 46 4 0.000000 -29.676493 -26.814432 70.649672
481 46 4 0.000000 -33.055493 -31.309432 73.961672
482 46 4 0.000000 -38.238493 -34.775432 74.988672
483 47 3 0.000000 -20.660023 72.735396 -69.579616
484 47 3 0.000000 -16.821023 70.491396 -71.661616
485 47 3 0.000000 -10.880023 69.660396 -72.126616
486 47 2 0.000000 -4.973023 68.494396 -70.950616
487 47 4 0.000000 -1.190023 64.546396 -69.593616
488 47 3 0.000000 -0.725023 59.288396 -68.031616
489 47 4 0.000000 2.136977 55.400396 -66.420616
490 47 4 0.000000 2.077977 49.576396 -63.067616
491 47 4 0.000000 -1.301023 45.081396 -59.755616
492 47 4 0.000000 -6.484023 41.615396 -58.728616
493 48 3 0.000000 -50.143200 17.164551 -25.888251
494 48 3 0.000000 -46.304200 14.920551 -27.970251
495 48 3 0.000000 -40.363200 14.089551 -28.435251
496 48 2 0.000000 -34.456200 12.923551 -27.259251
497 48 4 0.000000 -30.673200 8.975551 -25.902251
498 48 3 0.000000 -30.208200 3.717551 -24.340251
499 48 4 0.000000 -27.346200 -0.170449 -22.729251
500 48 4 0.000000 -27.405200 -5.994449 -19.376251
501 48 4 0.000000 -30.784200 -10.489449 -16.064251
502 48 4 0.000000 -35.967200 -13.955449 -15.037251
503 49 3 0.000000 -35.510268 30.578736 -39.519333
504 49 3 0.000000 -31.671268 28.334736 -41.601333
505 49 3 0.000000 -25.730268 27.503736 -42.066333
506 49 2 0.000000 -19.823268 26.337736 -40.890333
507 49 4 0.000000 -16.040268 22.389736 -39.533333
508 49 3 0.000000 -15.575268 17.131736 -37.971333
509 49 4 0.000000 -12.713268 13.243736 -36.360333
510 49 4 0.000000 -12.772268 7.419736 -33.007333
511 49 4 0.000000 -16.151268 2.924736 -29.695333
512 49 4 0.000000 -21.334268 -0.541264 -28.668333
513 50 3 0.000000 52.176097 13.221605 41.077000
514 50 3 0.000000 56.015097 10.977605 38.995000
515 50 3 0.000000 61.956097 10.146605 38.530000
516 50 2 0.000000 67.863097 8.980605 39.706000
517 50 4 0.000000 71.646097 5.032605 41.063000
518 50 3 0.000000 72.111097 -0.225395 42.625000
519 50 4 0.000000 74.973097 -4.113395 44.236000
520 50 4 0.000000 74.914097 -9.937395 47.589000
521 50 4 0.000000 71.535097 -14.432395 50.901000
522 50 4 0.000000 66.352097 -17.898395 51.928000
523 51 3 0.000000 2.832831 66.061218 52.068292
524 51 3 0.000000 6.671831 63.817218 49.986292
525 51 3 0.000000 12.612831 62.986218 49.521292
526 51 2 0.000000 18.519831 61.820218 50.697292
527 51 4 0.000000 22.302831 57.872218 52.054292
528 51 3 0.000000 22.767831 52.614218 53.616292
529 51 4 0.000000 25.629831 48.726218 55.227292
530 51 4 0.000000 25.570831 42.902218 58.580292
531 51 4 0.000000 22.191831 38.407218 61.892292
532 51 4 0.000000 17.008831 34.941218 62.919292
533 52 3 0.000000 29.302109 -52.828374 5.103509
534 52 3 0.000000 33.141109 -55.072374 3.021509
535 52 3 0.000000 39.082109 -55.903374 2.556509
536 52 2 0.000000 44.989109 -57.069374 3.732509
537 52 4 0.000000 48.772109 -61.017374 5.089509
538 52 3 0.000000 49.237109 -66.275374 6.651509
539 52 4 0.000000 52.099109 -70.163374 8.262509
540 52 4 0.000000 52.040109 -75.987374 11.615509
541 52 4 0.000000 48.661109 -80.482374 14.927509
542 52 4 0.000000 43.478109 -83.948374 15.954509
543 53 3 0.000000 7.192346 -44.662298 -19.079003
544 53 3 0.000000 11.031346 -46.906298 -21.161003
545 53 3 0.000000 16.972346 -47.737298 -21.626003
546 53 2 0.000000 22.879346 -48.903298 -20.450003
547 53 4 0.000000 26.662346 -52.851298 -19.093003
548 53 3 0.000000 27.127346 -58.109298 -17.531003
549 53 4 0.000000 29.989346 -61.997298 -15.920003
550 53 4 0.000000 29.930346 -67.821298 -12.567003
551 53 4 0.000000 26.551346 -72.316298 -9.255003
552 53 4 0.000000 21.368346 -75.782298 -8.228003
553 54 3 0.000000 49.706697 28.789175 14.985444
554 54 3 0.000000 53.545697 26.545175 12.903444
555 54 3 0.000000 59.486697 25.714175 12.438444
556 54 2 0.000000 65.393697 24.548175 13.614444
557 54 4 0.000000 69.176697 20.600175 14.971444
558 54 3 0.000000 69.641697 15.342175 16.533444
559 54 4 0.000000 72.503697 11.454175 18.144444
560 54 4 0.000000 72.444697 5.630175 21.497444
561 54 4 0.000000 69.065697 1.135175 24.809444
562 54 4 0.000000 63.882697 -2.330825 25.836444
563 55 3 0.000000 -52.938183 -23.303087 -51.203118
564 55 3 0.000000 -49.099183 -25.547087 -53.285118
565 55 3 0.000000 -43.158183 -26.378087 -53.750118
566 55 2 0.000000 -37.251183 -27.544087 -52.574118
567 55 4 0.000000 -33.468183 -31.492087 -51.217118
568 55 3 0.000000 -33.003183 -36.750087 -49.655118
569 55 4 0.000000 -30.141183 -40.638087 -48.044118
570 55 4 0.000000 -30.200183 -46.462087 -44.691118
571 55 4 0.000000 -33.579183 -50.957087 -41.379118
572 55 4 0.000000 -38.762183 -54.423087 -40.352118
573 56 3 0.000000 51.097104 70.409355 -26.488137
574 56 3 0.000000 54.936104 68.165355 -28.570137
575 56 3 0.000000 60.877104 67.334355 -29.035137
576 56 2 0.000000 66.784104 66.168355 -27.859137
577 56 4 0.000000 70.567104 62.220355 -26.502137
578 56 3 0.000000 71.032104 56.962355 -24.940137
579 56 4 0.000000 73.894104 53.074355 -23.329137
580 56 4 0.000000 73.835104 47.250355 -19.976137
581 56 4 0.000000 70.456104 42.755355 -16.664137
582 56 4 0.000000 65.273104 39.289355 -15.637137
583 57 3 0.000000 -8.988564 55.061108 48.174273
584 57 3 0.000000 -5.149564 52.817108 46.092273
585 57 3 0.000000 0.791436 51.986108 45.627273
586 57 2 0.000000 6.698436 50.820108 46.803273
587 57 4 0.000000 10.481436 46.872108 48.160273
588 57 3 0.000000 10.946436 41.614108 49.722273
589 57 4 0.000000 13.808436 37.726108 51.333273
590 57 4 0.000000 13.749436 31.902108 54.686273
591 57 4 0.000000 10.370436 27.407108 57.998273
592 57 4 0.000000 5.187436 23.941108 59.025273
593 58 3 0.000000 -65.842751 82.442412 64.020767
594 58 3 0.000000 -62.003751 80.198412 61.938767
595 58 3 0.000000 -56.062751 79.367412 61.473767
596 58 2 0.000000 -50.155751 78.201412 62.649767
597 58 4 0.000000 -46.372751 74.253412 64.006767
598 58 3 0.000000 -45.907751 68.995412 65.568767
599 58 4 0.000000 -43.045751 65.107412 67.179767
600 58 4 0.000000 -43.104751 59.283412 70.532767
601 58 4 0.000000 -46.483751 54.788412 73.844767
602 58 4 0.000000 -51.666751 51.322412 74.871767
603 59 3 0.000000 -40.328630 21.074042 60.216219
604 59 3 0.000000 -36.489630 18.830042 58.134219
605 59 3 0.000000 -30.548630 17.999042 57.669219
606 59 2 0.000000 -24.641630 16.833042 58.845219
607 59 4 0.000000 -20.858630 12.885042 60.202219
608 59 3 0.000000 -20.393630 7.627042 61.764219