LAMMPS data file — single RNA C3' beads: GGCAGAUCUGAGCCUGGGAGCUCUCUGCC

29 atoms
28 bonds
27 angles

4 atom types
1 bond types
1 angle types

-500.600000     500.600000  xlo xhi
-500.600000     500.600000  ylo yhi
-500.600000     500.600000  zlo zhi

Masses

1 329.20
2 305.20
3 345.20
4 306.20

Atoms

1 1 3 0.000000 -6.646000 9.132000 -4.312000
2 1 3 0.000000 -1.934000 7.560000 -6.902000
3 1 2 0.000000 3.197000 5.718000 -5.365000
4 1 1 0.000000 7.928000 5.078000 -2.556000
5 1 3 0.000000 10.228000 4.203000 3.113000
6 1 1 0.000000 9.697000 2.792000 8.437000
7 1 4 0.000000 6.389000 -2.030000 10.057000
8 1 2 0.000000 5.255000 -7.630000 11.109000
9 1 4 0.000000 0.445000 -9.827000 13.166000
10 1 3 0.000000 -1.786000 -6.893000 16.979000
11 1 1 0.000000 -7.554000 -5.164000 17.079000
12 1 3 0.000000 -12.319000 -3.427000 14.657000
13 1 2 0.000000 -16.705000 -2.700000 10.975000
14 1 2 0.000000 -19.539000 -6.608000 9.088000
15 1 4 0.000000 -17.718000 -10.321000 12.685000
16 1 3 0.000000 -14.353000 -13.171000 9.135000
17 1 3 0.000000 -16.671000 -14.615000 3.411000
18 1 3 0.000000 -14.784000 -11.692000 0.059000
19 1 1 0.000000 -13.058000 -8.278000 -3.538000
20 1 3 0.000000 -11.812000 -3.761000 -1.359000
21 1 2 0.000000 -11.006000 1.320000 2.106000
22 1 4 0.000000 -9.074000 4.130000 7.128000
23 1 2 0.000000 -5.909000 5.075000 12.332000
24 1 4 0.000000 -0.809000 6.175000 14.320000
25 1 2 0.000000 2.199000 10.112000 11.579000
26 1 4 0.000000 4.739000 13.818000 7.941000
27 1 3 0.000000 6.865000 16.769000 3.109000
28 1 2 0.000000 4.249000 18.706000 -1.500000
29 1 2 0.000000 0.583000 20.069000 -5.450000

Bonds

1 1 1 2
2 1 2 3
3 1 3 4
4 1 4 5
5 1 5 6
6 1 6 7
7 1 7 8
8 1 8 9
9 1 9 10
10 1 10 11
11 1 11 12
12 1 12 13
13 1 13 14
14 1 14 15
15 1 15 16
16 1 16 17
17 1 17 18
18 1 18 19
19 1 19 20
20 1 20 21
21 1 21 22
22 1 22 23
23 1 23 24
24 1 24 25
25 1 25 26
26 1 26 27
27 1 27 28
28 1 28 29

Angles

1 1 1 2 3
2 1 2 3 4
3 1 3 4 5
4 1 4 5 6
5 1 5 6 7
6 1 6 7 8
7 1 7 8 9
8 1 8 9 10
9 1 9 10 11
10 1 10 11 12
11 1 11 12 13
12 1 12 13 14
13 1 13 14 15
14 1 14 15 16
15 1 15 16 17
16 1 16 17 18
17 1 17 18 19
18 1 18 19 20
19 1 19 20 21
20 1 20 21 22
21 1 21 22 23
22 1 22 23 24
23 1 23 24 25
24 1 24 25 26
25 1 25 26 27
26 1 26 27 28
27 1 27 28 29
