LAMMPS data file — single RNA C3' beads: CCGUUGAAUCUCACGG

16 atoms
15 bonds
14 angles

4 atom types
1 bond types
1 angle types

-500.600000     500.600000  xlo xhi
-500.600000     500.600000  ylo yhi
-500.600000     500.600000  zlo zhi

Masses

1 329.20
2 305.20
3 345.20
4 306.20

Atoms

1 1 2 0.000000 3.527000 -7.717000 -10.862000
2 1 2 0.000000 3.040000 -11.041000 -6.094000
3 1 3 0.000000 2.221000 -10.739000 -0.453000
4 1 4 0.000000 1.271000 -8.519000 5.072000
5 1 4 0.000000 -1.934000 -3.160000 7.229000
6 1 3 0.000000 -1.244000 2.940000 8.589000
7 1 1 0.000000 -5.331000 7.426000 7.906000
8 1 1 0.000000 -9.473000 9.269000 3.873000
9 1 4 0.000000 -12.362000 9.547000 -1.683000
10 1 2 0.000000 -8.569000 8.084000 -5.699000
11 1 4 0.000000 -3.101000 5.198000 -7.625000
12 1 2 0.000000 2.386000 6.004000 -4.280000
13 1 1 0.000000 4.615000 4.084000 0.641000
14 1 2 0.000000 8.554000 1.378000 0.743000
15 1 3 0.000000 12.694000 -3.147000 1.185000
16 1 3 0.000000 15.232000 -6.869000 -2.565000

Bonds

1 1 1 2
2 1 2 3
3 1 3 4
4 1 4 5
5 1 5 6
6 1 6 7
7 1 7 8
8 1 8 9
9 1 9 10
10 1 10 11
11 1 11 12
12 1 12 13
13 1 13 14
14 1 14 15
15 1 15 16

Angles

1 1 1 2 3
2 1 2 3 4
3 1 3 4 5
4 1 4 5 6
5 1 5 6 7
6 1 6 7 8
7 1 7 8 9
8 1 8 9 10
9 1 9 10 11
10 1 10 11 12
11 1 11 12 13
12 1 12 13 14
13 1 13 14 15
14 1 14 15 16
