LAMMPS data file — Week 13 combined RNA+ASO | target=7LYJ | aso=CGGUGUAAGA | n_aso=500 | box=±640.0

5066 atoms
4565 bonds
4064 angles

4 atom types
1 bond types
1 angle types

-640.000000  640.000000  xlo xhi
-640.000000  640.000000  ylo yhi
-640.000000  640.000000  zlo zhi

Masses

1 329.20
2 305.20
3 345.20
4 306.20

Atoms

1 1 2 0.000000 20.000000 0.000000 0.000000
2 1 3 0.000000 25.900000 0.000000 0.000000
3 1 3 0.000000 31.800000 0.000000 0.000000
4 1 4 0.000000 37.700000 0.000000 0.000000
5 1 3 0.000000 43.600000 0.000000 0.000000
6 1 4 0.000000 49.500000 0.000000 0.000000
7 1 1 0.000000 55.400000 0.000000 0.000000
8 1 1 0.000000 61.300000 0.000000 0.000000
9 1 3 0.000000 67.200000 0.000000 0.000000
10 1 1 0.000000 73.100000 0.000000 0.000000
11 2 2 0.000000 2.035273 -1.454939 -5.263727
12 2 3 0.000000 -0.766727 -6.502939 -4.423727
13 2 3 0.000000 -5.322727 -9.458939 -2.332727
14 2 4 0.000000 -10.686727 -9.262939 -0.255727
15 2 3 0.000000 -15.665727 -6.447939 0.528273
16 2 4 0.000000 -19.019727 -1.928939 -0.557727
17 2 1 0.000000 -20.236727 2.554061 -3.887727
18 2 1 0.000000 -19.405727 5.849061 -8.575727
19 2 3 0.000000 -17.035727 6.677061 -13.786727
20 2 4 0.000000 -13.810727 7.693061 -18.960727
21 2 3 0.000000 -13.521727 5.320061 -24.051727
22 2 2 0.000000 -18.390727 4.604061 -27.166727
23 2 1 0.000000 -22.751727 7.610061 -27.785727
24 2 3 0.000000 -25.251727 5.661061 -23.033727
25 2 2 0.000000 -25.745727 1.848061 -18.688727
26 2 2 0.000000 -24.206727 -3.020939 -15.814727
27 2 2 0.000000 -20.286727 -6.736939 -13.593727
28 2 3 0.000000 -14.834727 -6.812939 -12.274727
29 2 4 0.000000 -8.925727 -7.221939 -11.874727
30 2 2 0.000000 -6.745727 -2.241939 -13.668727
31 2 4 0.000000 -6.538727 3.008061 -11.259727
32 2 4 0.000000 -7.523727 6.594061 -6.898727
33 2 1 0.000000 -9.390727 7.820061 -1.549727
34 2 2 0.000000 -10.140727 5.948061 3.775273
35 2 1 0.000000 -9.804727 1.844061 7.813273
36 2 2 0.000000 -7.241727 -3.010939 9.473273
37 2 2 0.000000 -2.778727 -6.626939 8.991273
38 2 3 0.000000 2.464273 -7.569939 6.688273
39 2 4 0.000000 7.381273 -6.270939 3.771273
40 2 3 0.000000 11.599273 -2.655939 2.100273
41 2 2 0.000000 13.877273 2.429061 3.110273
42 2 3 0.000000 14.500273 6.997061 6.554273
43 2 3 0.000000 13.887273 9.351061 11.861273
44 2 2 0.000000 13.523273 8.204061 17.492273
45 2 1 0.000000 13.130273 4.623061 22.042273
46 2 2 0.000000 14.430273 -0.441939 24.179273
47 2 1 0.000000 17.276273 -5.486939 23.807273
48 2 3 0.000000 22.093273 -8.256939 22.139273
49 2 2 0.000000 27.474273 -7.575939 20.369273
50 2 3 0.000000 31.969273 -4.069939 19.780273
51 2 3 0.000000 34.498273 0.513061 22.126273
52 2 1 0.000000 33.791273 3.040061 26.728273
53 2 1 0.000000 29.810273 7.000061 25.579273
54 2 1 0.000000 26.899273 10.524061 22.081273
55 2 2 0.000000 25.405273 7.851061 17.130273
56 2 3 0.000000 25.814273 3.866061 12.902273
57 2 2 0.000000 24.186273 -1.092939 10.458273
58 2 4 0.000000 20.341273 -5.274939 10.305273
59 2 3 0.000000 15.309273 -7.991939 11.820273
60 2 1 0.000000 10.426273 -10.435939 13.459273
61 2 4 0.000000 7.382273 -6.375939 16.757273
62 2 3 0.000000 3.976273 -1.856939 18.047273
63 2 4 0.000000 2.429273 3.736061 15.827273
64 2 2 0.000000 2.390273 8.217061 12.228273
65 2 3 0.000000 2.786273 9.779061 6.734273
66 2 4 0.000000 3.549273 8.281061 1.271273
67 2 1 0.000000 3.573273 5.537061 -4.116727
68 2 4 0.000000 0.140273 6.240061 -8.650727
69 2 1 0.000000 -2.881727 6.096061 -14.228727
70 2 2 0.000000 -6.216727 2.494061 -18.233727
71 2 1 0.000000 -7.540727 -3.007939 -21.438727
72 2 3 0.000000 -10.077727 -7.610939 -22.929727
73 2 3 0.000000 -15.905727 -9.772939 -23.759727
74 2 3 0.000000 -21.609727 -9.830939 -24.399727
75 2 2 0.000000 -26.818727 -7.906939 -26.148727
76 2 4 0.000000 -31.268727 -3.593939 -28.320727
77 3 2 0.000000 149.127766 -598.486448 -283.463059
78 3 3 0.000000 155.027766 -598.486448 -283.463059
79 3 3 0.000000 160.927766 -598.486448 -283.463059
80 3 4 0.000000 166.827766 -598.486448 -283.463059
81 3 3 0.000000 172.727766 -598.486448 -283.463059
82 3 4 0.000000 178.627766 -598.486448 -283.463059
83 3 1 0.000000 184.527766 -598.486448 -283.463059
84 3 1 0.000000 190.427766 -598.486448 -283.463059
85 3 3 0.000000 196.327766 -598.486448 -283.463059
86 3 1 0.000000 202.227766 -598.486448 -283.463059
87 4 2 0.000000 -375.304470 297.953730 222.641354
88 4 3 0.000000 -369.404470 297.953730 222.641354
89 4 3 0.000000 -363.504470 297.953730 222.641354
90 4 4 0.000000 -357.604470 297.953730 222.641354
91 4 3 0.000000 -351.704470 297.953730 222.641354
92 4 4 0.000000 -345.804470 297.953730 222.641354
93 4 1 0.000000 -339.904470 297.953730 222.641354
94 4 1 0.000000 -334.004470 297.953730 222.641354
95 4 3 0.000000 -328.104470 297.953730 222.641354
96 4 1 0.000000 -322.204470 297.953730 222.641354
97 5 2 0.000000 467.596255 -520.457071 -98.378507
98 5 3 0.000000 473.496255 -520.457071 -98.378507
99 5 3 0.000000 479.396255 -520.457071 -98.378507
100 5 4 0.000000 485.296255 -520.457071 -98.378507
101 5 3 0.000000 491.196255 -520.457071 -98.378507
102 5 4 0.000000 497.096255 -520.457071 -98.378507
103 5 1 0.000000 502.996255 -520.457071 -98.378507
104 5 1 0.000000 508.896255 -520.457071 -98.378507
105 5 3 0.000000 514.796255 -520.457071 -98.378507
106 5 1 0.000000 520.696255 -520.457071 -98.378507
107 6 2 0.000000 -619.005504 -354.516152 6.747663
108 6 3 0.000000 -613.105504 -354.516152 6.747663
109 6 3 0.000000 -607.205504 -354.516152 6.747663
110 6 4 0.000000 -601.305504 -354.516152 6.747663
111 6 3 0.000000 -595.405504 -354.516152 6.747663
112 6 4 0.000000 -589.505504 -354.516152 6.747663
113 6 1 0.000000 -583.605504 -354.516152 6.747663
114 6 1 0.000000 -577.705504 -354.516152 6.747663
115 6 3 0.000000 -571.805504 -354.516152 6.747663
116 6 1 0.000000 -565.905504 -354.516152 6.747663
117 7 2 0.000000 -623.114678 -379.464560 188.854392
118 7 3 0.000000 -617.214678 -379.464560 188.854392
119 7 3 0.000000 -611.314678 -379.464560 188.854392
120 7 4 0.000000 -605.414678 -379.464560 188.854392
121 7 3 0.000000 -599.514678 -379.464560 188.854392
122 7 4 0.000000 -593.614678 -379.464560 188.854392
123 7 1 0.000000 -587.714678 -379.464560 188.854392
124 7 1 0.000000 -581.814678 -379.464560 188.854392
125 7 3 0.000000 -575.914678 -379.464560 188.854392
126 7 1 0.000000 -570.014678 -379.464560 188.854392
127 8 2 0.000000 30.076266 -352.244816 112.474762
128 8 3 0.000000 35.976266 -352.244816 112.474762
129 8 3 0.000000 41.876266 -352.244816 112.474762
130 8 4 0.000000 47.776266 -352.244816 112.474762
131 8 3 0.000000 53.676266 -352.244816 112.474762
132 8 4 0.000000 59.576266 -352.244816 112.474762
133 8 1 0.000000 65.476266 -352.244816 112.474762
134 8 1 0.000000 71.376266 -352.244816 112.474762
135 8 3 0.000000 77.276266 -352.244816 112.474762
136 8 1 0.000000 83.176266 -352.244816 112.474762
137 9 2 0.000000 363.332375 -621.811563 385.332257
138 9 3 0.000000 369.232375 -621.811563 385.332257
139 9 3 0.000000 375.132375 -621.811563 385.332257
140 9 4 0.000000 381.032375 -621.811563 385.332257
141 9 3 0.000000 386.932375 -621.811563 385.332257
142 9 4 0.000000 392.832375 -621.811563 385.332257
143 9 1 0.000000 398.732375 -621.811563 385.332257
144 9 1 0.000000 404.632375 -621.811563 385.332257
145 9 3 0.000000 410.532375 -621.811563 385.332257
146 9 1 0.000000 416.432375 -621.811563 385.332257
147 10 2 0.000000 223.105638 -201.284349 -434.095830
148 10 3 0.000000 229.005638 -201.284349 -434.095830
149 10 3 0.000000 234.905638 -201.284349 -434.095830
150 10 4 0.000000 240.805638 -201.284349 -434.095830
151 10 3 0.000000 246.705638 -201.284349 -434.095830
152 10 4 0.000000 252.605638 -201.284349 -434.095830
153 10 1 0.000000 258.505638 -201.284349 -434.095830
154 10 1 0.000000 264.405638 -201.284349 -434.095830
155 10 3 0.000000 270.305638 -201.284349 -434.095830
156 10 1 0.000000 276.205638 -201.284349 -434.095830
157 11 2 0.000000 549.538471 -205.890873 -513.140237
158 11 3 0.000000 555.438471 -205.890873 -513.140237
159 11 3 0.000000 561.338471 -205.890873 -513.140237
160 11 4 0.000000 567.238471 -205.890873 -513.140237
161 11 3 0.000000 573.138471 -205.890873 -513.140237
162 11 4 0.000000 579.038471 -205.890873 -513.140237
163 11 1 0.000000 584.938471 -205.890873 -513.140237
164 11 1 0.000000 590.838471 -205.890873 -513.140237
165 11 3 0.000000 596.738471 -205.890873 -513.140237
166 11 1 0.000000 602.638471 -205.890873 -513.140237
167 12 2 0.000000 -534.687365 437.842902 130.694800
168 12 3 0.000000 -528.787365 437.842902 130.694800
169 12 3 0.000000 -522.887365 437.842902 130.694800
170 12 4 0.000000 -516.987365 437.842902 130.694800
171 12 3 0.000000 -511.087365 437.842902 130.694800
172 12 4 0.000000 -505.187365 437.842902 130.694800
173 12 1 0.000000 -499.287365 437.842902 130.694800
174 12 1 0.000000 -493.387365 437.842902 130.694800
175 12 3 0.000000 -487.487365 437.842902 130.694800
176 12 1 0.000000 -481.587365 437.842902 130.694800
177 13 2 0.000000 360.431624 289.462051 45.647395
178 13 3 0.000000 366.331624 289.462051 45.647395
179 13 3 0.000000 372.231624 289.462051 45.647395
180 13 4 0.000000 378.131624 289.462051 45.647395
181 13 3 0.000000 384.031624 289.462051 45.647395
182 13 4 0.000000 389.931624 289.462051 45.647395
183 13 1 0.000000 395.831624 289.462051 45.647395
184 13 1 0.000000 401.731624 289.462051 45.647395
185 13 3 0.000000 407.631624 289.462051 45.647395
186 13 1 0.000000 413.531624 289.462051 45.647395
187 14 2 0.000000 569.575863 -153.046685 65.571195
188 14 3 0.000000 575.475863 -153.046685 65.571195
189 14 3 0.000000 581.375863 -153.046685 65.571195
190 14 4 0.000000 587.275863 -153.046685 65.571195
191 14 3 0.000000 593.175863 -153.046685 65.571195
192 14 4 0.000000 599.075863 -153.046685 65.571195
193 14 1 0.000000 604.975863 -153.046685 65.571195
194 14 1 0.000000 610.875863 -153.046685 65.571195
195 14 3 0.000000 616.775863 -153.046685 65.571195
196 14 1 0.000000 622.675863 -153.046685 65.571195
197 15 2 0.000000 388.499877 149.334888 455.750694
198 15 3 0.000000 394.399877 149.334888 455.750694
199 15 3 0.000000 400.299877 149.334888 455.750694
200 15 4 0.000000 406.199877 149.334888 455.750694
201 15 3 0.000000 412.099877 149.334888 455.750694
202 15 4 0.000000 417.999877 149.334888 455.750694
203 15 1 0.000000 423.899877 149.334888 455.750694
204 15 1 0.000000 429.799877 149.334888 455.750694
205 15 3 0.000000 435.699877 149.334888 455.750694
206 15 1 0.000000 441.599877 149.334888 455.750694
207 16 2 0.000000 70.913703 257.760514 -572.261277
208 16 3 0.000000 76.813703 257.760514 -572.261277
209 16 3 0.000000 82.713703 257.760514 -572.261277
210 16 4 0.000000 88.613703 257.760514 -572.261277
211 16 3 0.000000 94.513703 257.760514 -572.261277
212 16 4 0.000000 100.413703 257.760514 -572.261277
213 16 1 0.000000 106.313703 257.760514 -572.261277
214 16 1 0.000000 112.213703 257.760514 -572.261277
215 16 3 0.000000 118.113703 257.760514 -572.261277
216 16 1 0.000000 124.013703 257.760514 -572.261277
217 17 2 0.000000 -369.398173 -265.371166 -529.462109
218 17 3 0.000000 -363.498173 -265.371166 -529.462109
219 17 3 0.000000 -357.598173 -265.371166 -529.462109
220 17 4 0.000000 -351.698173 -265.371166 -529.462109
221 17 3 0.000000 -345.798173 -265.371166 -529.462109
222 17 4 0.000000 -339.898173 -265.371166 -529.462109
223 17 1 0.000000 -333.998173 -265.371166 -529.462109
224 17 1 0.000000 -328.098173 -265.371166 -529.462109
225 17 3 0.000000 -322.198173 -265.371166 -529.462109
226 17 1 0.000000 -316.298173 -265.371166 -529.462109
227 18 2 0.000000 -363.233483 -502.738199 -279.753260
228 18 3 0.000000 -357.333483 -502.738199 -279.753260
229 18 3 0.000000 -351.433483 -502.738199 -279.753260
230 18 4 0.000000 -345.533483 -502.738199 -279.753260
231 18 3 0.000000 -339.633483 -502.738199 -279.753260
232 18 4 0.000000 -333.733483 -502.738199 -279.753260
233 18 1 0.000000 -327.833483 -502.738199 -279.753260
234 18 1 0.000000 -321.933483 -502.738199 -279.753260
235 18 3 0.000000 -316.033483 -502.738199 -279.753260
236 18 1 0.000000 -310.133483 -502.738199 -279.753260
237 19 2 0.000000 144.412400 -170.311454 -163.571981
238 19 3 0.000000 150.312400 -170.311454 -163.571981
239 19 3 0.000000 156.212400 -170.311454 -163.571981
240 19 4 0.000000 162.112400 -170.311454 -163.571981
241 19 3 0.000000 168.012400 -170.311454 -163.571981
242 19 4 0.000000 173.912400 -170.311454 -163.571981
243 19 1 0.000000 179.812400 -170.311454 -163.571981
244 19 1 0.000000 185.712400 -170.311454 -163.571981
245 19 3 0.000000 191.612400 -170.311454 -163.571981
246 19 1 0.000000 197.512400 -170.311454 -163.571981
247 20 2 0.000000 -392.571141 -293.607944 550.184781
248 20 3 0.000000 -386.671141 -293.607944 550.184781
249 20 3 0.000000 -380.771141 -293.607944 550.184781
250 20 4 0.000000 -374.871141 -293.607944 550.184781
251 20 3 0.000000 -368.971141 -293.607944 550.184781
252 20 4 0.000000 -363.071141 -293.607944 550.184781
253 20 1 0.000000 -357.171141 -293.607944 550.184781
254 20 1 0.000000 -351.271141 -293.607944 550.184781
255 20 3 0.000000 -345.371141 -293.607944 550.184781
256 20 1 0.000000 -339.471141 -293.607944 550.184781
257 21 2 0.000000 159.974585 137.505067 -414.365303
258 21 3 0.000000 165.874585 137.505067 -414.365303
259 21 3 0.000000 171.774585 137.505067 -414.365303
260 21 4 0.000000 177.674585 137.505067 -414.365303
261 21 3 0.000000 183.574585 137.505067 -414.365303
262 21 4 0.000000 189.474585 137.505067 -414.365303
263 21 1 0.000000 195.374585 137.505067 -414.365303
264 21 1 0.000000 201.274585 137.505067 -414.365303
265 21 3 0.000000 207.174585 137.505067 -414.365303
266 21 1 0.000000 213.074585 137.505067 -414.365303
267 22 2 0.000000 262.149765 -424.112858 -151.886143
268 22 3 0.000000 268.049765 -424.112858 -151.886143
269 22 3 0.000000 273.949765 -424.112858 -151.886143
270 22 4 0.000000 279.849765 -424.112858 -151.886143
271 22 3 0.000000 285.749765 -424.112858 -151.886143
272 22 4 0.000000 291.649765 -424.112858 -151.886143
273 22 1 0.000000 297.549765 -424.112858 -151.886143
274 22 1 0.000000 303.449765 -424.112858 -151.886143
275 22 3 0.000000 309.349765 -424.112858 -151.886143
276 22 1 0.000000 315.249765 -424.112858 -151.886143
277 23 2 0.000000 590.249422 176.399697 71.756677
278 23 3 0.000000 596.149422 176.399697 71.756677
279 23 3 0.000000 602.049422 176.399697 71.756677
280 23 4 0.000000 607.949422 176.399697 71.756677
281 23 3 0.000000 613.849422 176.399697 71.756677
282 23 4 0.000000 619.749422 176.399697 71.756677
283 23 1 0.000000 625.649422 176.399697 71.756677
284 23 1 0.000000 631.549422 176.399697 71.756677
285 23 3 0.000000 637.449422 176.399697 71.756677
286 23 1 0.000000 643.349422 176.399697 71.756677
287 24 2 0.000000 206.063956 431.993419 347.759889
288 24 3 0.000000 211.963956 431.993419 347.759889
289 24 3 0.000000 217.863956 431.993419 347.759889
290 24 4 0.000000 223.763956 431.993419 347.759889
291 24 3 0.000000 229.663956 431.993419 347.759889
292 24 4 0.000000 235.563956 431.993419 347.759889
293 24 1 0.000000 241.463956 431.993419 347.759889
294 24 1 0.000000 247.363956 431.993419 347.759889
295 24 3 0.000000 253.263956 431.993419 347.759889
296 24 1 0.000000 259.163956 431.993419 347.759889
297 25 2 0.000000 -367.949429 -589.553693 -232.529159
298 25 3 0.000000 -362.049429 -589.553693 -232.529159
299 25 3 0.000000 -356.149429 -589.553693 -232.529159
300 25 4 0.000000 -350.249429 -589.553693 -232.529159
301 25 3 0.000000 -344.349429 -589.553693 -232.529159
302 25 4 0.000000 -338.449429 -589.553693 -232.529159
303 25 1 0.000000 -332.549429 -589.553693 -232.529159
304 25 1 0.000000 -326.649429 -589.553693 -232.529159
305 25 3 0.000000 -320.749429 -589.553693 -232.529159
306 25 1 0.000000 -314.849429 -589.553693 -232.529159
307 26 2 0.000000 -319.196496 -364.161617 558.066240
308 26 3 0.000000 -313.296496 -364.161617 558.066240
309 26 3 0.000000 -307.396496 -364.161617 558.066240
310 26 4 0.000000 -301.496496 -364.161617 558.066240
311 26 3 0.000000 -295.596496 -364.161617 558.066240
312 26 4 0.000000 -289.696496 -364.161617 558.066240
313 26 1 0.000000 -283.796496 -364.161617 558.066240
314 26 1 0.000000 -277.896496 -364.161617 558.066240
315 26 3 0.000000 -271.996496 -364.161617 558.066240
316 26 1 0.000000 -266.096496 -364.161617 558.066240
317 27 2 0.000000 447.673209 -233.505870 195.852718
318 27 3 0.000000 453.573209 -233.505870 195.852718
319 27 3 0.000000 459.473209 -233.505870 195.852718
320 27 4 0.000000 465.373209 -233.505870 195.852718
321 27 3 0.000000 471.273209 -233.505870 195.852718
322 27 4 0.000000 477.173209 -233.505870 195.852718
323 27 1 0.000000 483.073209 -233.505870 195.852718
324 27 1 0.000000 488.973209 -233.505870 195.852718
325 27 3 0.000000 494.873209 -233.505870 195.852718
326 27 1 0.000000 500.773209 -233.505870 195.852718
327 28 2 0.000000 -158.053805 522.329963 -51.846666
328 28 3 0.000000 -152.153805 522.329963 -51.846666
329 28 3 0.000000 -146.253805 522.329963 -51.846666
330 28 4 0.000000 -140.353805 522.329963 -51.846666
331 28 3 0.000000 -134.453805 522.329963 -51.846666
332 28 4 0.000000 -128.553805 522.329963 -51.846666
333 28 1 0.000000 -122.653805 522.329963 -51.846666
334 28 1 0.000000 -116.753805 522.329963 -51.846666
335 28 3 0.000000 -110.853805 522.329963 -51.846666
336 28 1 0.000000 -104.953805 522.329963 -51.846666
337 29 2 0.000000 -322.800990 -319.249340 77.323849
338 29 3 0.000000 -316.900990 -319.249340 77.323849
339 29 3 0.000000 -311.000990 -319.249340 77.323849
340 29 4 0.000000 -305.100990 -319.249340 77.323849
341 29 3 0.000000 -299.200990 -319.249340 77.323849
342 29 4 0.000000 -293.300990 -319.249340 77.323849
343 29 1 0.000000 -287.400990 -319.249340 77.323849
344 29 1 0.000000 -281.500990 -319.249340 77.323849
345 29 3 0.000000 -275.600990 -319.249340 77.323849
346 29 1 0.000000 -269.700990 -319.249340 77.323849
347 30 2 0.000000 -325.495573 106.578348 501.256833
348 30 3 0.000000 -319.595573 106.578348 501.256833
349 30 3 0.000000 -313.695573 106.578348 501.256833
350 30 4 0.000000 -307.795573 106.578348 501.256833
351 30 3 0.000000 -301.895573 106.578348 501.256833
352 30 4 0.000000 -295.995573 106.578348 501.256833
353 30 1 0.000000 -290.095573 106.578348 501.256833
354 30 1 0.000000 -284.195573 106.578348 501.256833
355 30 3 0.000000 -278.295573 106.578348 501.256833
356 30 1 0.000000 -272.395573 106.578348 501.256833
357 31 2 0.000000 -153.305364 -353.655843 626.897384
358 31 3 0.000000 -147.405364 -353.655843 626.897384
359 31 3 0.000000 -141.505364 -353.655843 626.897384
360 31 4 0.000000 -135.605364 -353.655843 626.897384
361 31 3 0.000000 -129.705364 -353.655843 626.897384
362 31 4 0.000000 -123.805364 -353.655843 626.897384
363 31 1 0.000000 -117.905364 -353.655843 626.897384
364 31 1 0.000000 -112.005364 -353.655843 626.897384
365 31 3 0.000000 -106.105364 -353.655843 626.897384
366 31 1 0.000000 -100.205364 -353.655843 626.897384
367 32 2 0.000000 -14.546870 -515.454141 -570.633367
368 32 3 0.000000 -8.646870 -515.454141 -570.633367
369 32 3 0.000000 -2.746870 -515.454141 -570.633367
370 32 4 0.000000 3.153130 -515.454141 -570.633367
371 32 3 0.000000 9.053130 -515.454141 -570.633367
372 32 4 0.000000 14.953130 -515.454141 -570.633367
373 32 1 0.000000 20.853130 -515.454141 -570.633367
374 32 1 0.000000 26.753130 -515.454141 -570.633367
375 32 3 0.000000 32.653130 -515.454141 -570.633367
376 32 1 0.000000 38.553130 -515.454141 -570.633367
377 33 2 0.000000 -518.392096 160.582013 368.019999
378 33 3 0.000000 -512.492096 160.582013 368.019999
379 33 3 0.000000 -506.592096 160.582013 368.019999
380 33 4 0.000000 -500.692096 160.582013 368.019999
381 33 3 0.000000 -494.792096 160.582013 368.019999
382 33 4 0.000000 -488.892096 160.582013 368.019999
383 33 1 0.000000 -482.992096 160.582013 368.019999
384 33 1 0.000000 -477.092096 160.582013 368.019999
385 33 3 0.000000 -471.192096 160.582013 368.019999
386 33 1 0.000000 -465.292096 160.582013 368.019999
387 34 2 0.000000 -124.628442 -549.955090 -149.159699
388 34 3 0.000000 -118.728442 -549.955090 -149.159699
389 34 3 0.000000 -112.828442 -549.955090 -149.159699
390 34 4 0.000000 -106.928442 -549.955090 -149.159699
391 34 3 0.000000 -101.028442 -549.955090 -149.159699
392 34 4 0.000000 -95.128442 -549.955090 -149.159699
393 34 1 0.000000 -89.228442 -549.955090 -149.159699
394 34 1 0.000000 -83.328442 -549.955090 -149.159699
395 34 3 0.000000 -77.428442 -549.955090 -149.159699
396 34 1 0.000000 -71.528442 -549.955090 -149.159699
397 35 2 0.000000 598.562939 36.684075 593.558756
398 35 3 0.000000 604.462939 36.684075 593.558756
399 35 3 0.000000 610.362939 36.684075 593.558756
400 35 4 0.000000 616.262939 36.684075 593.558756
401 35 3 0.000000 622.162939 36.684075 593.558756
402 35 4 0.000000 628.062939 36.684075 593.558756
403 35 1 0.000000 633.962939 36.684075 593.558756
404 35 1 0.000000 639.862939 36.684075 593.558756
405 35 3 0.000000 645.762939 36.684075 593.558756
406 35 1 0.000000 651.662939 36.684075 593.558756
407 36 2 0.000000 428.032425 -615.533912 278.109492
408 36 3 0.000000 433.932425 -615.533912 278.109492
409 36 3 0.000000 439.832425 -615.533912 278.109492
410 36 4 0.000000 445.732425 -615.533912 278.109492
411 36 3 0.000000 451.632425 -615.533912 278.109492
412 36 4 0.000000 457.532425 -615.533912 278.109492
413 36 1 0.000000 463.432425 -615.533912 278.109492
414 36 1 0.000000 469.332425 -615.533912 278.109492
415 36 3 0.000000 475.232425 -615.533912 278.109492
416 36 1 0.000000 481.132425 -615.533912 278.109492
417 37 2 0.000000 202.405065 46.582616 -293.800261
418 37 3 0.000000 208.305065 46.582616 -293.800261
419 37 3 0.000000 214.205065 46.582616 -293.800261
420 37 4 0.000000 220.105065 46.582616 -293.800261
421 37 3 0.000000 226.005065 46.582616 -293.800261
422 37 4 0.000000 231.905065 46.582616 -293.800261
423 37 1 0.000000 237.805065 46.582616 -293.800261
424 37 1 0.000000 243.705065 46.582616 -293.800261
425 37 3 0.000000 249.605065 46.582616 -293.800261
426 37 1 0.000000 255.505065 46.582616 -293.800261
427 38 2 0.000000 151.061866 -489.444261 -82.195784
428 38 3 0.000000 156.961866 -489.444261 -82.195784
429 38 3 0.000000 162.861866 -489.444261 -82.195784
430 38 4 0.000000 168.761866 -489.444261 -82.195784
431 38 3 0.000000 174.661866 -489.444261 -82.195784
432 38 4 0.000000 180.561866 -489.444261 -82.195784
433 38 1 0.000000 186.461866 -489.444261 -82.195784
434 38 1 0.000000 192.361866 -489.444261 -82.195784
435 38 3 0.000000 198.261866 -489.444261 -82.195784
436 38 1 0.000000 204.161866 -489.444261 -82.195784
437 39 2 0.000000 -84.858130 571.808069 473.574705
438 39 3 0.000000 -78.958130 571.808069 473.574705
439 39 3 0.000000 -73.058130 571.808069 473.574705
440 39 4 0.000000 -67.158130 571.808069 473.574705
441 39 3 0.000000 -61.258130 571.808069 473.574705
442 39 4 0.000000 -55.358130 571.808069 473.574705
443 39 1 0.000000 -49.458130 571.808069 473.574705
444 39 1 0.000000 -43.558130 571.808069 473.574705
445 39 3 0.000000 -37.658130 571.808069 473.574705
446 39 1 0.000000 -31.758130 571.808069 473.574705
447 40 2 0.000000 -324.679796 0.738502 -404.898631
448 40 3 0.000000 -318.779796 0.738502 -404.898631
449 40 3 0.000000 -312.879796 0.738502 -404.898631
450 40 4 0.000000 -306.979796 0.738502 -404.898631
451 40 3 0.000000 -301.079796 0.738502 -404.898631
452 40 4 0.000000 -295.179796 0.738502 -404.898631
453 40 1 0.000000 -289.279796 0.738502 -404.898631
454 40 1 0.000000 -283.379796 0.738502 -404.898631
455 40 3 0.000000 -277.479796 0.738502 -404.898631
456 40 1 0.000000 -271.579796 0.738502 -404.898631
457 41 2 0.000000 493.361078 466.853398 -253.959563
458 41 3 0.000000 499.261078 466.853398 -253.959563
459 41 3 0.000000 505.161078 466.853398 -253.959563
460 41 4 0.000000 511.061078 466.853398 -253.959563
461 41 3 0.000000 516.961078 466.853398 -253.959563
462 41 4 0.000000 522.861078 466.853398 -253.959563
463 41 1 0.000000 528.761078 466.853398 -253.959563
464 41 1 0.000000 534.661078 466.853398 -253.959563
465 41 3 0.000000 540.561078 466.853398 -253.959563
466 41 1 0.000000 546.461078 466.853398 -253.959563
467 42 2 0.000000 148.526364 137.302466 -437.422522
468 42 3 0.000000 154.426364 137.302466 -437.422522
469 42 3 0.000000 160.326364 137.302466 -437.422522
470 42 4 0.000000 166.226364 137.302466 -437.422522
471 42 3 0.000000 172.126364 137.302466 -437.422522
472 42 4 0.000000 178.026364 137.302466 -437.422522
473 42 1 0.000000 183.926364 137.302466 -437.422522
474 42 1 0.000000 189.826364 137.302466 -437.422522
475 42 3 0.000000 195.726364 137.302466 -437.422522
476 42 1 0.000000 201.626364 137.302466 -437.422522
477 43 2 0.000000 304.213608 49.617578 351.069363
478 43 3 0.000000 310.113608 49.617578 351.069363
479 43 3 0.000000 316.013608 49.617578 351.069363
480 43 4 0.000000 321.913608 49.617578 351.069363
481 43 3 0.000000 327.813608 49.617578 351.069363
482 43 4 0.000000 333.713608 49.617578 351.069363
483 43 1 0.000000 339.613608 49.617578 351.069363
484 43 1 0.000000 345.513608 49.617578 351.069363
485 43 3 0.000000 351.413608 49.617578 351.069363
486 43 1 0.000000 357.313608 49.617578 351.069363
487 44 2 0.000000 11.695627 -629.279411 -221.563368
488 44 3 0.000000 17.595627 -629.279411 -221.563368
489 44 3 0.000000 23.495627 -629.279411 -221.563368
490 44 4 0.000000 29.395627 -629.279411 -221.563368
491 44 3 0.000000 35.295627 -629.279411 -221.563368
492 44 4 0.000000 41.195627 -629.279411 -221.563368
493 44 1 0.000000 47.095627 -629.279411 -221.563368
494 44 1 0.000000 52.995627 -629.279411 -221.563368
495 44 3 0.000000 58.895627 -629.279411 -221.563368
496 44 1 0.000000 64.795627 -629.279411 -221.563368
497 45 2 0.000000 -632.009305 540.664256 477.189566
498 45 3 0.000000 -626.109305 540.664256 477.189566
499 45 3 0.000000 -620.209305 540.664256 477.189566
500 45 4 0.000000 -614.309305 540.664256 477.189566
501 45 3 0.000000 -608.409305 540.664256 477.189566
502 45 4 0.000000 -602.509305 540.664256 477.189566
503 45 1 0.000000 -596.609305 540.664256 477.189566
504 45 1 0.000000 -590.709305 540.664256 477.189566
505 45 3 0.000000 -584.809305 540.664256 477.189566
506 45 1 0.000000 -578.909305 540.664256 477.189566
507 46 2 0.000000 391.348567 -242.532202 -557.014290
508 46 3 0.000000 397.248567 -242.532202 -557.014290
509 46 3 0.000000 403.148567 -242.532202 -557.014290
510 46 4 0.000000 409.048567 -242.532202 -557.014290
511 46 3 0.000000 414.948567 -242.532202 -557.014290
512 46 4 0.000000 420.848567 -242.532202 -557.014290
513 46 1 0.000000 426.748567 -242.532202 -557.014290
514 46 1 0.000000 432.648567 -242.532202 -557.014290
515 46 3 0.000000 438.548567 -242.532202 -557.014290
516 46 1 0.000000 444.448567 -242.532202 -557.014290
517 47 2 0.000000 449.742095 563.156301 -522.076650
518 47 3 0.000000 455.642095 563.156301 -522.076650
519 47 3 0.000000 461.542095 563.156301 -522.076650
520 47 4 0.000000 467.442095 563.156301 -522.076650
521 47 3 0.000000 473.342095 563.156301 -522.076650
522 47 4 0.000000 479.242095 563.156301 -522.076650
523 47 1 0.000000 485.142095 563.156301 -522.076650
524 47 1 0.000000 491.042095 563.156301 -522.076650
525 47 3 0.000000 496.942095 563.156301 -522.076650
526 47 1 0.000000 502.842095 563.156301 -522.076650
527 48 2 0.000000 -44.202016 -542.792227 328.358728
528 48 3 0.000000 -38.302016 -542.792227 328.358728
529 48 3 0.000000 -32.402016 -542.792227 328.358728
530 48 4 0.000000 -26.502016 -542.792227 328.358728
531 48 3 0.000000 -20.602016 -542.792227 328.358728
532 48 4 0.000000 -14.702016 -542.792227 328.358728
533 48 1 0.000000 -8.802016 -542.792227 328.358728
534 48 1 0.000000 -2.902016 -542.792227 328.358728
535 48 3 0.000000 2.997984 -542.792227 328.358728
536 48 1 0.000000 8.897984 -542.792227 328.358728
537 49 2 0.000000 308.401381 -468.226755 -31.144204
538 49 3 0.000000 314.301381 -468.226755 -31.144204
539 49 3 0.000000 320.201381 -468.226755 -31.144204
540 49 4 0.000000 326.101381 -468.226755 -31.144204
541 49 3 0.000000 332.001381 -468.226755 -31.144204
542 49 4 0.000000 337.901381 -468.226755 -31.144204
543 49 1 0.000000 343.801381 -468.226755 -31.144204
544 49 1 0.000000 349.701381 -468.226755 -31.144204
545 49 3 0.000000 355.601381 -468.226755 -31.144204
546 49 1 0.000000 361.501381 -468.226755 -31.144204
547 50 2 0.000000 36.202528 -296.028648 469.265632
548 50 3 0.000000 42.102528 -296.028648 469.265632
549 50 3 0.000000 48.002528 -296.028648 469.265632
550 50 4 0.000000 53.902528 -296.028648 469.265632
551 50 3 0.000000 59.802528 -296.028648 469.265632
552 50 4 0.000000 65.702528 -296.028648 469.265632
553 50 1 0.000000 71.602528 -296.028648 469.265632
554 50 1 0.000000 77.502528 -296.028648 469.265632
555 50 3 0.000000 83.402528 -296.028648 469.265632
556 50 1 0.000000 89.302528 -296.028648 469.265632
557 51 2 0.000000 -123.396195 -363.134261 49.513072
558 51 3 0.000000 -117.496195 -363.134261 49.513072
559 51 3 0.000000 -111.596195 -363.134261 49.513072
560 51 4 0.000000 -105.696195 -363.134261 49.513072
561 51 3 0.000000 -99.796195 -363.134261 49.513072
562 51 4 0.000000 -93.896195 -363.134261 49.513072
563 51 1 0.000000 -87.996195 -363.134261 49.513072
564 51 1 0.000000 -82.096195 -363.134261 49.513072
565 51 3 0.000000 -76.196195 -363.134261 49.513072
566 51 1 0.000000 -70.296195 -363.134261 49.513072
567 52 2 0.000000 263.163147 -376.549660 -237.237473
568 52 3 0.000000 269.063147 -376.549660 -237.237473
569 52 3 0.000000 274.963147 -376.549660 -237.237473
570 52 4 0.000000 280.863147 -376.549660 -237.237473
571 52 3 0.000000 286.763147 -376.549660 -237.237473
572 52 4 0.000000 292.663147 -376.549660 -237.237473
573 52 1 0.000000 298.563147 -376.549660 -237.237473
574 52 1 0.000000 304.463147 -376.549660 -237.237473
575 52 3 0.000000 310.363147 -376.549660 -237.237473
576 52 1 0.000000 316.263147 -376.549660 -237.237473
577 53 2 0.000000 597.338189 188.846353 -77.993894
578 53 3 0.000000 603.238189 188.846353 -77.993894
579 53 3 0.000000 609.138189 188.846353 -77.993894
580 53 4 0.000000 615.038189 188.846353 -77.993894
581 53 3 0.000000 620.938189 188.846353 -77.993894
582 53 4 0.000000 626.838189 188.846353 -77.993894