LAMMPS data file — Week 13 combined RNA+ASO | target=7LYJ | aso=CGGUGUAAGA | n_aso=20 | box=±220.0

266 atoms
245 bonds
224 angles

4 atom types
1 bond types
1 angle types

-220.000000  220.000000  xlo xhi
-220.000000  220.000000  ylo yhi
-220.000000  220.000000  zlo zhi

Masses

1 329.20
2 305.20
3 345.20
4 306.20

Atoms

1 1 2 0.000000 20.000000 0.000000 0.000000
2 1 3 0.000000 25.900000 0.000000 0.000000
3 1 3 0.000000 31.800000 0.000000 0.000000
4 1 4 0.000000 37.700000 0.000000 0.000000
5 1 3 0.000000 43.600000 0.000000 0.000000
6 1 4 0.000000 49.500000 0.000000 0.000000
7 1 1 0.000000 55.400000 0.000000 0.000000
8 1 1 0.000000 61.300000 0.000000 0.000000
9 1 3 0.000000 67.200000 0.000000 0.000000
10 1 1 0.000000 73.100000 0.000000 0.000000
11 2 2 0.000000 2.035273 -1.454939 -5.263727
12 2 3 0.000000 -0.766727 -6.502939 -4.423727
13 2 3 0.000000 -5.322727 -9.458939 -2.332727
14 2 4 0.000000 -10.686727 -9.262939 -0.255727
15 2 3 0.000000 -15.665727 -6.447939 0.528273
16 2 4 0.000000 -19.019727 -1.928939 -0.557727
17 2 1 0.000000 -20.236727 2.554061 -3.887727
18 2 1 0.000000 -19.405727 5.849061 -8.575727
19 2 3 0.000000 -17.035727 6.677061 -13.786727
20 2 4 0.000000 -13.810727 7.693061 -18.960727
21 2 3 0.000000 -13.521727 5.320061 -24.051727
22 2 2 0.000000 -18.390727 4.604061 -27.166727
23 2 1 0.000000 -22.751727 7.610061 -27.785727
24 2 3 0.000000 -25.251727 5.661061 -23.033727
25 2 2 0.000000 -25.745727 1.848061 -18.688727
26 2 2 0.000000 -24.206727 -3.020939 -15.814727
27 2 2 0.000000 -20.286727 -6.736939 -13.593727
28 2 3 0.000000 -14.834727 -6.812939 -12.274727
29 2 4 0.000000 -8.925727 -7.221939 -11.874727
30 2 2 0.000000 -6.745727 -2.241939 -13.668727
31 2 4 0.000000 -6.538727 3.008061 -11.259727
32 2 4 0.000000 -7.523727 6.594061 -6.898727
33 2 1 0.000000 -9.390727 7.820061 -1.549727
34 2 2 0.000000 -10.140727 5.948061 3.775273
35 2 1 0.000000 -9.804727 1.844061 7.813273
36 2 2 0.000000 -7.241727 -3.010939 9.473273
37 2 2 0.000000 -2.778727 -6.626939 8.991273
38 2 3 0.000000 2.464273 -7.569939 6.688273
39 2 4 0.000000 7.381273 -6.270939 3.771273
40 2 3 0.000000 11.599273 -2.655939 2.100273
41 2 2 0.000000 13.877273 2.429061 3.110273
42 2 3 0.000000 14.500273 6.997061 6.554273
43 2 3 0.000000 13.887273 9.351061 11.861273
44 2 2 0.000000 13.523273 8.204061 17.492273
45 2 1 0.000000 13.130273 4.623061 22.042273
46 2 2 0.000000 14.430273 -0.441939 24.179273
47 2 1 0.000000 17.276273 -5.486939 23.807273
48 2 3 0.000000 22.093273 -8.256939 22.139273
49 2 2 0.000000 27.474273 -7.575939 20.369273
50 2 3 0.000000 31.969273 -4.069939 19.780273
51 2 3 0.000000 34.498273 0.513061 22.126273
52 2 1 0.000000 33.791273 3.040061 26.728273
53 2 1 0.000000 29.810273 7.000061 25.579273
54 2 1 0.000000 26.899273 10.524061 22.081273
55 2 2 0.000000 25.405273 7.851061 17.130273
56 2 3 0.000000 25.814273 3.866061 12.902273
57 2 2 0.000000 24.186273 -1.092939 10.458273
58 2 4 0.000000 20.341273 -5.274939 10.305273
59 2 3 0.000000 15.309273 -7.991939 11.820273
60 2 1 0.000000 10.426273 -10.435939 13.459273
61 2 4 0.000000 7.382273 -6.375939 16.757273
62 2 3 0.000000 3.976273 -1.856939 18.047273
63 2 4 0.000000 2.429273 3.736061 15.827273
64 2 2 0.000000 2.390273 8.217061 12.228273
65 2 3 0.000000 2.786273 9.779061 6.734273
66 2 4 0.000000 3.549273 8.281061 1.271273
67 2 1 0.000000 3.573273 5.537061 -4.116727
68 2 4 0.000000 0.140273 6.240061 -8.650727
69 2 1 0.000000 -2.881727 6.096061 -14.228727
70 2 2 0.000000 -6.216727 2.494061 -18.233727
71 2 1 0.000000 -7.540727 -3.007939 -21.438727
72 2 3 0.000000 -10.077727 -7.610939 -22.929727
73 2 3 0.000000 -15.905727 -9.772939 -23.759727
74 2 3 0.000000 -21.609727 -9.830939 -24.399727
75 2 2 0.000000 -26.818727 -7.906939 -26.148727
76 2 4 0.000000 -31.268727 -3.593939 -28.320727
77 3 2 0.000000 32.009255 -199.495483 -94.487686
78 3 3 0.000000 37.909255 -199.495483 -94.487686
79 3 3 0.000000 43.809255 -199.495483 -94.487686
80 3 4 0.000000 49.709255 -199.495483 -94.487686
81 3 3 0.000000 55.609255 -199.495483 -94.487686
82 3 4 0.000000 61.509255 -199.495483 -94.487686
83 3 1 0.000000 67.409255 -199.495483 -94.487686
84 3 1 0.000000 73.309255 -199.495483 -94.487686
85 3 3 0.000000 79.209255 -199.495483 -94.487686
86 3 1 0.000000 85.109255 -199.495483 -94.487686
87 4 2 0.000000 -142.801490 99.317910 74.213785
88 4 3 0.000000 -136.901490 99.317910 74.213785
89 4 3 0.000000 -131.001490 99.317910 74.213785
90 4 4 0.000000 -125.101490 99.317910 74.213785
91 4 3 0.000000 -119.201490 99.317910 74.213785
92 4 4 0.000000 -113.301490 99.317910 74.213785
93 4 1 0.000000 -107.401490 99.317910 74.213785
94 4 1 0.000000 -101.501490 99.317910 74.213785
95 4 3 0.000000 -95.601490 99.317910 74.213785
96 4 1 0.000000 -89.701490 99.317910 74.213785
97 5 2 0.000000 138.165418 -173.485690 -32.792836
98 5 3 0.000000 144.065418 -173.485690 -32.792836
99 5 3 0.000000 149.965418 -173.485690 -32.792836
100 5 4 0.000000 155.865418 -173.485690 -32.792836
101 5 3 0.000000 161.765418 -173.485690 -32.792836
102 5 4 0.000000 167.665418 -173.485690 -32.792836
103 5 1 0.000000 173.565418 -173.485690 -32.792836
104 5 1 0.000000 179.465418 -173.485690 -32.792836
105 5 3 0.000000 185.365418 -173.485690 -32.792836
106 5 1 0.000000 191.265418 -173.485690 -32.792836
107 6 2 0.000000 -224.035168 -118.172051 2.249221
108 6 3 0.000000 -218.135168 -118.172051 2.249221
109 6 3 0.000000 -212.235168 -118.172051 2.249221
110 6 4 0.000000 -206.335168 -118.172051 2.249221
111 6 3 0.000000 -200.435168 -118.172051 2.249221
112 6 4 0.000000 -194.535168 -118.172051 2.249221
113 6 1 0.000000 -188.635168 -118.172051 2.249221
114 6 1 0.000000 -182.735168 -118.172051 2.249221
115 6 3 0.000000 -176.835168 -118.172051 2.249221
116 6 1 0.000000 -170.935168 -118.172051 2.249221
117 7 2 0.000000 -225.404893 -126.488187 62.951464
118 7 3 0.000000 -219.504893 -126.488187 62.951464
119 7 3 0.000000 -213.604893 -126.488187 62.951464
120 7 4 0.000000 -207.704893 -126.488187 62.951464
121 7 3 0.000000 -201.804893 -126.488187 62.951464
122 7 4 0.000000 -195.904893 -126.488187 62.951464
123 7 1 0.000000 -190.004893 -126.488187 62.951464
124 7 1 0.000000 -184.104893 -126.488187 62.951464
125 7 3 0.000000 -178.204893 -126.488187 62.951464
126 7 1 0.000000 -172.304893 -126.488187 62.951464
127 8 2 0.000000 -7.674578 -117.414939 37.491587
128 8 3 0.000000 -1.774578 -117.414939 37.491587
129 8 3 0.000000 4.125422 -117.414939 37.491587
130 8 4 0.000000 10.025422 -117.414939 37.491587
131 8 3 0.000000 15.925422 -117.414939 37.491587
132 8 4 0.000000 21.825422 -117.414939 37.491587
133 8 1 0.000000 27.725422 -117.414939 37.491587
134 8 1 0.000000 33.625422 -117.414939 37.491587
135 8 3 0.000000 39.525422 -117.414939 37.491587
136 8 1 0.000000 45.425422 -117.414939 37.491587
137 9 2 0.000000 103.410792 -207.270521 128.444086
138 9 3 0.000000 109.310792 -207.270521 128.444086
139 9 3 0.000000 115.210792 -207.270521 128.444086
140 9 4 0.000000 121.110792 -207.270521 128.444086
141 9 3 0.000000 127.010792 -207.270521 128.444086
142 9 4 0.000000 132.910792 -207.270521 128.444086
143 9 1 0.000000 138.810792 -207.270521 128.444086
144 9 1 0.000000 144.710792 -207.270521 128.444086
145 9 3 0.000000 150.610792 -207.270521 128.444086
146 9 1 0.000000 156.510792 -207.270521 128.444086
147 10 2 0.000000 56.668546 -67.094783 -144.698610
148 10 3 0.000000 62.568546 -67.094783 -144.698610
149 10 3 0.000000 68.468546 -67.094783 -144.698610
150 10 4 0.000000 74.368546 -67.094783 -144.698610
151 10 3 0.000000 80.268546 -67.094783 -144.698610
152 10 4 0.000000 86.168546 -67.094783 -144.698610
153 10 1 0.000000 92.068546 -67.094783 -144.698610
154 10 1 0.000000 97.968546 -67.094783 -144.698610
155 10 3 0.000000 103.868546 -67.094783 -144.698610
156 10 1 0.000000 109.768546 -67.094783 -144.698610
157 11 2 0.000000 165.479490 -68.630291 -171.046746
158 11 3 0.000000 171.379490 -68.630291 -171.046746
159 11 3 0.000000 177.279490 -68.630291 -171.046746
160 11 4 0.000000 183.179490 -68.630291 -171.046746
161 11 3 0.000000 189.079490 -68.630291 -171.046746
162 11 4 0.000000 194.979490 -68.630291 -171.046746
163 11 1 0.000000 200.879490 -68.630291 -171.046746
164 11 1 0.000000 206.779490 -68.630291 -171.046746
165 11 3 0.000000 212.679490 -68.630291 -171.046746
166 11 1 0.000000 218.579490 -68.630291 -171.046746
167 12 2 0.000000 -195.929122 145.947634 43.564933
168 12 3 0.000000 -190.029122 145.947634 43.564933
169 12 3 0.000000 -184.129122 145.947634 43.564933
170 12 4 0.000000 -178.229122 145.947634 43.564933
171 12 3 0.000000 -172.329122 145.947634 43.564933
172 12 4 0.000000 -166.429122 145.947634 43.564933
173 12 1 0.000000 -160.529122 145.947634 43.564933
174 12 1 0.000000 -154.629122 145.947634 43.564933
175 12 3 0.000000 -148.729122 145.947634 43.564933
176 12 1 0.000000 -142.829122 145.947634 43.564933
177 13 2 0.000000 102.443875 96.487350 15.215798
178 13 3 0.000000 108.343875 96.487350 15.215798
179 13 3 0.000000 114.243875 96.487350 15.215798
180 13 4 0.000000 120.143875 96.487350 15.215798
181 13 3 0.000000 126.043875 96.487350 15.215798
182 13 4 0.000000 131.943875 96.487350 15.215798
183 13 1 0.000000 137.843875 96.487350 15.215798
184 13 1 0.000000 143.743875 96.487350 15.215798
185 13 3 0.000000 149.643875 96.487350 15.215798
186 13 1 0.000000 155.543875 96.487350 15.215798
187 14 2 0.000000 172.158621 -51.015562 21.857065
188 14 3 0.000000 178.058621 -51.015562 21.857065
189 14 3 0.000000 183.958621 -51.015562 21.857065
190 14 4 0.000000 189.858621 -51.015562 21.857065
191 14 3 0.000000 195.758621 -51.015562 21.857065
192 14 4 0.000000 201.658621 -51.015562 21.857065
193 14 1 0.000000 207.558621 -51.015562 21.857065
194 14 1 0.000000 213.458621 -51.015562 21.857065
195 14 3 0.000000 219.358621 -51.015562 21.857065
196 14 1 0.000000 225.258621 -51.015562 21.857065
197 15 2 0.000000 111.799959 49.778296 151.916898
198 15 3 0.000000 117.699959 49.778296 151.916898
199 15 3 0.000000 123.599959 49.778296 151.916898
200 15 4 0.000000 129.499959 49.778296 151.916898
201 15 3 0.000000 135.399959 49.778296 151.916898
202 15 4 0.000000 141.299959 49.778296 151.916898
203 15 1 0.000000 147.199959 49.778296 151.916898
204 15 1 0.000000 153.099959 49.778296 151.916898
205 15 3 0.000000 158.999959 49.778296 151.916898
206 15 1 0.000000 164.899959 49.778296 151.916898
207 16 2 0.000000 5.937901 85.920171 -190.753759
208 16 3 0.000000 11.837901 85.920171 -190.753759
209 16 3 0.000000 17.737901 85.920171 -190.753759
210 16 4 0.000000 23.637901 85.920171 -190.753759
211 16 3 0.000000 29.537901 85.920171 -190.753759
212 16 4 0.000000 35.437901 85.920171 -190.753759
213 16 1 0.000000 41.337901 85.920171 -190.753759
214 16 1 0.000000 47.237901 85.920171 -190.753759
215 16 3 0.000000 53.137901 85.920171 -190.753759
216 16 1 0.000000 59.037901 85.920171 -190.753759
217 17 2 0.000000 -140.832724 -88.457055 -176.487370
218 17 3 0.000000 -134.932724 -88.457055 -176.487370
219 17 3 0.000000 -129.032724 -88.457055 -176.487370
220 17 4 0.000000 -123.132724 -88.457055 -176.487370
221 17 3 0.000000 -117.232724 -88.457055 -176.487370
222 17 4 0.000000 -111.332724 -88.457055 -176.487370
223 17 1 0.000000 -105.432724 -88.457055 -176.487370
224 17 1 0.000000 -99.532724 -88.457055 -176.487370
225 17 3 0.000000 -93.632724 -88.457055 -176.487370
226 17 1 0.000000 -87.732724 -88.457055 -176.487370
227 18 2 0.000000 -138.777828 -167.579400 -93.251087
228 18 3 0.000000 -132.877828 -167.579400 -93.251087
229 18 3 0.000000 -126.977828 -167.579400 -93.251087
230 18 4 0.000000 -121.077828 -167.579400 -93.251087
231 18 3 0.000000 -115.177828 -167.579400 -93.251087
232 18 4 0.000000 -109.277828 -167.579400 -93.251087
233 18 1 0.000000 -103.377828 -167.579400 -93.251087
234 18 1 0.000000 -97.477828 -167.579400 -93.251087
235 18 3 0.000000 -91.577828 -167.579400 -93.251087
236 18 1 0.000000 -85.677828 -167.579400 -93.251087
237 19 2 0.000000 30.437467 -56.770485 -54.523994
238 19 3 0.000000 36.337467 -56.770485 -54.523994
239 19 3 0.000000 42.237467 -56.770485 -54.523994
240 19 4 0.000000 48.137467 -56.770485 -54.523994
241 19 3 0.000000 54.037467 -56.770485 -54.523994
242 19 4 0.000000 59.937467 -56.770485 -54.523994
243 19 1 0.000000 65.837467 -56.770485 -54.523994
244 19 1 0.000000 71.737467 -56.770485 -54.523994
245 19 3 0.000000 77.637467 -56.770485 -54.523994
246 19 1 0.000000 83.537467 -56.770485 -54.523994
247 20 2 0.000000 -148.557047 -97.869315 183.394927
248 20 3 0.000000 -142.657047 -97.869315 183.394927
249 20 3 0.000000 -136.757047 -97.869315 183.394927
250 20 4 0.000000 -130.857047 -97.869315 183.394927
251 20 3 0.000000 -124.957047 -97.869315 183.394927
252 20 4 0.000000 -119.057047 -97.869315 183.394927
253 20 1 0.000000 -113.157047 -97.869315 183.394927
254 20 1 0.000000 -107.257047 -97.869315 183.394927
255 20 3 0.000000 -101.357047 -97.869315 183.394927
256 20 1 0.000000 -95.457047 -97.869315 183.394927
257 21 2 0.000000 35.624862 45.835022 -138.121768
258 21 3 0.000000 41.524862 45.835022 -138.121768
259 21 3 0.000000 47.424862 45.835022 -138.121768
260 21 4 0.000000 53.324862 45.835022 -138.121768
261 21 3 0.000000 59.224862 45.835022 -138.121768
262 21 4 0.000000 65.124862 45.835022 -138.121768
263 21 1 0.000000 71.024862 45.835022 -138.121768
264 21 1 0.000000 76.924862 45.835022 -138.121768
265 21 3 0.000000 82.824862 45.835022 -138.121768
266 21 1 0.000000 88.724862 45.835022 -138.121768

Bonds

1 1 1 2
2 1 2 3
3 1 3 4
4 1 4 5
5 1 5 6
6 1 6 7
7 1 7 8
8 1 8 9
9 1 9 10
10 1 11 12
11 1 12 13
12 1 13 14
13 1 14 15
14 1 15 16
15 1 16 17
16 1 17 18
17 1 18 19
18 1 19 20
19 1 20 21
20 1 21 22
21 1 22 23
22 1 23 24
23 1 24 25
24 1 25 26
25 1 26 27
26 1 27 28
27 1 28 29
28 1 29 30
29 1 30 31
30 1 31 32
31 1 32 33
32 1 33 34
33 1 34 35
34 1 35 36
35 1 36 37
36 1 37 38
37 1 38 39
38 1 39 40
39 1 40 41
40 1 41 42
41 1 42 43
42 1 43 44
43 1 44 45
44 1 45 46
45 1 46 47
46 1 47 48
47 1 48 49
48 1 49 50
49 1 50 51
50 1 51 52
51 1 52 53
52 1 53 54
53 1 54 55
54 1 55 56
55 1 56 57
56 1 57 58
57 1 58 59
58 1 59 60
59 1 60 61
60 1 61 62
61 1 62 63
62 1 63 64
63 1 64 65
64 1 65 66
65 1 66 67
66 1 67 68
67 1 68 69
68 1 69 70
69 1 70 71
70 1 71 72
71 1 72 73
72 1 73 74
73 1 74 75
74 1 75 76
75 1 77 78
76 1 78 79
77 1 79 80
78 1 80 81
79 1 81 82
80 1 82 83
81 1 83 84
82 1 84 85
83 1 85 86
84 1 87 88
85 1 88 89
86 1 89 90
87 1 90 91
88 1 91 92
89 1 92 93
90 1 93 94
91 1 94 95
92 1 95 96
93 1 97 98
94 1 98 99
95 1 99 100
96 1 100 101
97 1 101 102
98 1 102 103
99 1 103 104
100 1 104 105
101 1 105 106
102 1 107 108
103 1 108 109
104 1 109 110
105 1 110 111
106 1 111 112
107 1 112 113
108 1 113 114
109 1 114 115
110 1 115 116
111 1 117 118
112 1 118 119
113 1 119 120
114 1 120 121
115 1 121 122
116 1 122 123
117 1 123 124
118 1 124 125
119 1 125 126
120 1 127 128
121 1 128 129
122 1 129 130
123 1 130 131
124 1 131 132
125 1 132 133
126 1 133 134
127 1 134 135
128 1 135 136
129 1 137 138
130 1 138 139
131 1 139 140
132 1 140 141
133 1 141 142
134 1 142 143
135 1 143 144
136 1 144 145
137 1 145 146
138 1 147 148
139 1 148 149
140 1 149 150
141 1 150 151
142 1 151 152
143 1 152 153
144 1 153 154
145 1 154 155
146 1 155 156
147 1 157 158
148 1 158 159
149 1 159 160
150 1 160 161
151 1 161 162
152 1 162 163
153 1 163 164
154 1 164 165
155 1 165 166
156 1 167 168
157 1 168 169
158 1 169 170
159 1 170 171
160 1 171 172
161 1 172 173
162 1 173 174
163 1 174 175
164 1 175 176
165 1 177 178
166 1 178 179
167 1 179 180
168 1 180 181
169 1 181 182
170 1 182 183
171 1 183 184
172 1 184 185
173 1 185 186
174 1 187 188
175 1 188 189
176 1 189 190
177 1 190 191
178 1 191 192
179 1 192 193
180 1 193 194
181 1 194 195
182 1 195 196
183 1 197 198
184 1 198 199
185 1 199 200
186 1 200 201
187 1 201 202
188 1 202 203
189 1 203 204
190 1 204 205
191 1 205 206
192 1 207 208
193 1 208 209
194 1 209 210
195 1 210 211
196 1 211 212
197 1 212 213
198 1 213 214
199 1 214 215
200 1 215 216
201 1 217 218
202 1 218 219
203 1 219 220
204 1 220 221
205 1 221 222
206 1 222 223
207 1 223 224
208 1 224 225
209 1 225 226
210 1 227 228
211 1 228 229
212 1 229 230
213 1 230 231
214 1 231 232
215 1 232 233
216 1 233 234
217 1 234 235
218 1 235 236
219 1 237 238
220 1 238 239
221 1 239 240
222 1 240 241
223 1 241 242
224 1 242 243
225 1 243 244
226 1 244 245
227 1 245 246
228 1 247 248
229 1 248 249
230 1 249 250
231 1 250 251
232 1 251 252
233 1 252 253
234 1 253 254
235 1 254 255
236 1 255 256
237 1 257 258
238 1 258 259
239 1 259 260
240 1 260 261
241 1 261 262
242 1 262 263
243 1 263 264
244 1 264 265
245 1 265 266

Angles

1 1 1 2 3
2 1 2 3 4
3 1 3 4 5
4 1 4 5 6
5 1 5 6 7
6 1 6 7 8
7 1 7 8 9
8 1 8 9 10
9 1 11 12 13
10 1 12 13 14
11 1 13 14 15
12 1 14 15 16
13 1 15 16 17
14 1 16 17 18
15 1 17 18 19
16 1 18 19 20
17 1 19 20 21
18 1 20 21 22
19 1 21 22 23
20 1 22 23 24
21 1 23 24 25
22 1 24 25 26
23 1 25 26 27
24 1 26 27 28
25 1 27 28 29
26 1 28 29 30
27 1 29 30 31
28 1 30 31 32
29 1 31 32 33
30 1 32 33 34
31 1 33 34 35
32 1 34 35 36
33 1 35 36 37
34 1 36 37 38
35 1 37 38 39
36 1 38 39 40
37 1 39 40 41
38 1 40 41 42
39 1 41 42 43
40 1 42 43 44
41 1 43 44 45
42 1 44 45 46
43 1 45 46 47
44 1 46 47 48
45 1 47 48 49
46 1 48 49 50
47 1 49 50 51
48 1 50 51 52
49 1 51 52 53
50 1 52 53 54
51 1 53 54 55
52 1 54 55 56
53 1 55 56 57
54 1 56 57 58
55 1 57 58 59
56 1 58 59 60
57 1 59 60 61
58 1 60 61 62
59 1 61 62 63
60 1 62 63 64
61 1 63 64 65
62 1 64 65 66
63 1 65 66 67
64 1 66 67 68
65 1 67 68 69
66 1 68 69 70
67 1 69 70 71
68 1 70 71 72
69 1 71 72 73
70 1 72 73 74
71 1 73 74 75
72 1 74 75 76
73 1 77 78 79
74 1 78 79 80
75 1 79 80 81
76 1 80 81 82
77 1 81 82 83
78 1 82 83 84
79 1 83 84 85
80 1 84 85 86
81 1 87 88 89
82 1 88 89 90
83 1 89 90 91
84 1 90 91 92
85 1 91 92 93
86 1 92 93 94
87 1 93 94 95
88 1 94 95 96
89 1 97 98 99
90 1 98 99 100
91 1 99 100 101
92 1 100 101 102
93 1 101 102 103
94 1 102 103 104
95 1 103 104 105
96 1 104 105 106
97 1 107 108 109
98 1 108 109 110
99 1 109 110 111
100 1 110 111 112
101 1 111 112 113
102 1 112 113 114
103 1 113 114 115
104 1 114 115 116
105 1 117 118 119
106 1 118 119 120
107 1 119 120 121
108 1 120 121 122
109 1 121 122 123
110 1 122 123 124
111 1 123 124 125
112 1 124 125 126
113 1 127 128 129
114 1 128 129 130
115 1 129 130 131
116 1 130 131 132
117 1 131 132 133
118 1 132 133 134
119 1 133 134 135
120 1 134 135 136
121 1 137 138 139
122 1 138 139 140
123 1 139 140 141
124 1 140 141 142
125 1 141 142 143
126 1 142 143 144
127 1 143 144 145
128 1 144 145 146
129 1 147 148 149
130 1 148 149 150
131 1 149 150 151
132 1 150 151 152
133 1 151 152 153
134 1 152 153 154
135 1 153 154 155
136 1 154 155 156
137 1 157 158 159
138 1 158 159 160
139 1 159 160 161
140 1 160 161 162
141 1 161 162 163
142 1 162 163 164
143 1 163 164 165
144 1 164 165 166
145 1 167 168 169
146 1 168 169 170
147 1 169 170 171
148 1 170 171 172
149 1 171 172 173
150 1 172 173 174
151 1 173 174 175
152 1 174 175 176
153 1 177 178 179
154 1 178 179 180
155 1 179 180 181
156 1 180 181 182
157 1 181 182 183
158 1 182 183 184
159 1 183 184 185
160 1 184 185 186
161 1 187 188 189
162 1 188 189 190
163 1 189 190 191
164 1 190 191 192
165 1 191 192 193
166 1 192 193 194
167 1 193 194 195
168 1 194 195 196
169 1 197 198 199
170 1 198 199 200
171 1 199 200 201
172 1 200 201 202
173 1 201 202 203
174 1 202 203 204
175 1 203 204 205
176 1 204 205 206
177 1 207 208 209
178 1 208 209 210
179 1 209 210 211
180 1 210 211 212
181 1 211 212 213
182 1 212 213 214
183 1 213 214 215
184 1 214 215 216
185 1 217 218 219
186 1 218 219 220
187 1 219 220 221
188 1 220 221 222
189 1 221 222 223
190 1 222 223 224
191 1 223 224 225
192 1 224 225 226
193 1 227 228 229
194 1 228 229 230
195 1 229 230 231
196 1 230 231 232
197 1 231 232 233
198 1 232 233 234
199 1 233 234 235
200 1 234 235 236
201 1 237 238 239
202 1 238 239 240
203 1 239 240 241
204 1 240 241 242
205 1 241 242 243
206 1 242 243 244
207 1 243 244 245
208 1 244 245 246
209 1 247 248 249
210 1 248 249 250
211 1 249 250 251
212 1 250 251 252
213 1 251 252 253
214 1 252 253 254
215 1 253 254 255
216 1 254 255 256
217 1 257 258 259
218 1 258 259 260
219 1 259 260 261
220 1 260 261 262
221 1 261 262 263
222 1 262 263 264
223 1 263 264 265
224 1 264 265 266
