LAMMPS data file — Week 13 combined RNA+ASO | target=7LYJ | aso=CGGUGUAAGA | n_aso=50 | box=±300.0

566 atoms
515 bonds
464 angles

4 atom types
1 bond types
1 angle types

-300.000000  300.000000  xlo xhi
-300.000000  300.000000  ylo yhi
-300.000000  300.000000  zlo zhi

Masses

1 329.20
2 305.20
3 345.20
4 306.20

Atoms

1 1 2 0.000000 20.000000 0.000000 0.000000
2 1 3 0.000000 25.900000 0.000000 0.000000
3 1 3 0.000000 31.800000 0.000000 0.000000
4 1 4 0.000000 37.700000 0.000000 0.000000
5 1 3 0.000000 43.600000 0.000000 0.000000
6 1 4 0.000000 49.500000 0.000000 0.000000
7 1 1 0.000000 55.400000 0.000000 0.000000
8 1 1 0.000000 61.300000 0.000000 0.000000
9 1 3 0.000000 67.200000 0.000000 0.000000
10 1 1 0.000000 73.100000 0.000000 0.000000
11 2 2 0.000000 2.035273 -1.454939 -5.263727
12 2 3 0.000000 -0.766727 -6.502939 -4.423727
13 2 3 0.000000 -5.322727 -9.458939 -2.332727
14 2 4 0.000000 -10.686727 -9.262939 -0.255727
15 2 3 0.000000 -15.665727 -6.447939 0.528273
16 2 4 0.000000 -19.019727 -1.928939 -0.557727
17 2 1 0.000000 -20.236727 2.554061 -3.887727
18 2 1 0.000000 -19.405727 5.849061 -8.575727
19 2 3 0.000000 -17.035727 6.677061 -13.786727
20 2 4 0.000000 -13.810727 7.693061 -18.960727
21 2 3 0.000000 -13.521727 5.320061 -24.051727
22 2 2 0.000000 -18.390727 4.604061 -27.166727
23 2 1 0.000000 -22.751727 7.610061 -27.785727
24 2 3 0.000000 -25.251727 5.661061 -23.033727
25 2 2 0.000000 -25.745727 1.848061 -18.688727
26 2 2 0.000000 -24.206727 -3.020939 -15.814727
27 2 2 0.000000 -20.286727 -6.736939 -13.593727
28 2 3 0.000000 -14.834727 -6.812939 -12.274727
29 2 4 0.000000 -8.925727 -7.221939 -11.874727
30 2 2 0.000000 -6.745727 -2.241939 -13.668727
31 2 4 0.000000 -6.538727 3.008061 -11.259727
32 2 4 0.000000 -7.523727 6.594061 -6.898727
33 2 1 0.000000 -9.390727 7.820061 -1.549727
34 2 2 0.000000 -10.140727 5.948061 3.775273
35 2 1 0.000000 -9.804727 1.844061 7.813273
36 2 2 0.000000 -7.241727 -3.010939 9.473273
37 2 2 0.000000 -2.778727 -6.626939 8.991273
38 2 3 0.000000 2.464273 -7.569939 6.688273
39 2 4 0.000000 7.381273 -6.270939 3.771273
40 2 3 0.000000 11.599273 -2.655939 2.100273
41 2 2 0.000000 13.877273 2.429061 3.110273
42 2 3 0.000000 14.500273 6.997061 6.554273
43 2 3 0.000000 13.887273 9.351061 11.861273
44 2 2 0.000000 13.523273 8.204061 17.492273
45 2 1 0.000000 13.130273 4.623061 22.042273
46 2 2 0.000000 14.430273 -0.441939 24.179273
47 2 1 0.000000 17.276273 -5.486939 23.807273
48 2 3 0.000000 22.093273 -8.256939 22.139273
49 2 2 0.000000 27.474273 -7.575939 20.369273
50 2 3 0.000000 31.969273 -4.069939 19.780273
51 2 3 0.000000 34.498273 0.513061 22.126273
52 2 1 0.000000 33.791273 3.040061 26.728273
53 2 1 0.000000 29.810273 7.000061 25.579273
54 2 1 0.000000 26.899273 10.524061 22.081273
55 2 2 0.000000 25.405273 7.851061 17.130273
56 2 3 0.000000 25.814273 3.866061 12.902273
57 2 2 0.000000 24.186273 -1.092939 10.458273
58 2 4 0.000000 20.341273 -5.274939 10.305273
59 2 3 0.000000 15.309273 -7.991939 11.820273
60 2 1 0.000000 10.426273 -10.435939 13.459273
61 2 4 0.000000 7.382273 -6.375939 16.757273
62 2 3 0.000000 3.976273 -1.856939 18.047273
63 2 4 0.000000 2.429273 3.736061 15.827273
64 2 2 0.000000 2.390273 8.217061 12.228273
65 2 3 0.000000 2.786273 9.779061 6.734273
66 2 4 0.000000 3.549273 8.281061 1.271273
67 2 1 0.000000 3.573273 5.537061 -4.116727
68 2 4 0.000000 0.140273 6.240061 -8.650727
69 2 1 0.000000 -2.881727 6.096061 -14.228727
70 2 2 0.000000 -6.216727 2.494061 -18.233727
71 2 1 0.000000 -7.540727 -3.007939 -21.438727
72 2 3 0.000000 -10.077727 -7.610939 -22.929727
73 2 3 0.000000 -15.905727 -9.772939 -23.759727
74 2 3 0.000000 -21.609727 -9.830939 -24.399727
75 2 2 0.000000 -26.818727 -7.906939 -26.148727
76 2 4 0.000000 -31.268727 -3.593939 -28.320727
77 3 2 0.000000 54.317543 -275.493762 -130.482995
78 3 3 0.000000 60.217543 -275.493762 -130.482995
79 3 3 0.000000 66.117543 -275.493762 -130.482995
80 3 4 0.000000 72.017543 -275.493762 -130.482995
81 3 3 0.000000 77.917543 -275.493762 -130.482995
82 3 4 0.000000 83.817543 -275.493762 -130.482995
83 3 1 0.000000 89.717543 -275.493762 -130.482995
84 3 1 0.000000 95.617543 -275.493762 -130.482995
85 3 3 0.000000 101.517543 -275.493762 -130.482995
86 3 1 0.000000 107.417543 -275.493762 -130.482995
87 4 2 0.000000 -187.087772 137.153304 102.485703
88 4 3 0.000000 -181.187772 137.153304 102.485703
89 4 3 0.000000 -175.287772 137.153304 102.485703
90 4 4 0.000000 -169.387772 137.153304 102.485703
91 4 3 0.000000 -163.487772 137.153304 102.485703
92 4 4 0.000000 -157.587772 137.153304 102.485703
93 4 1 0.000000 -151.687772 137.153304 102.485703
94 4 1 0.000000 -145.787772 137.153304 102.485703
95 4 3 0.000000 -139.887772 137.153304 102.485703
96 4 1 0.000000 -133.987772 137.153304 102.485703
97 5 2 0.000000 200.914149 -239.575477 -45.285345
98 5 3 0.000000 206.814149 -239.575477 -45.285345
99 5 3 0.000000 212.714149 -239.575477 -45.285345
100 5 4 0.000000 218.614149 -239.575477 -45.285345
101 5 3 0.000000 224.514149 -239.575477 -45.285345
102 5 4 0.000000 230.414149 -239.575477 -45.285345
103 5 1 0.000000 236.314149 -239.575477 -45.285345
104 5 1 0.000000 242.214149 -239.575477 -45.285345
105 5 3 0.000000 248.114149 -239.575477 -45.285345
106 5 1 0.000000 254.014149 -239.575477 -45.285345
107 6 2 0.000000 -299.267613 -163.189975 3.106067
108 6 3 0.000000 -293.367613 -163.189975 3.106067
109 6 3 0.000000 -287.467613 -163.189975 3.106067
110 6 4 0.000000 -281.567613 -163.189975 3.106067
111 6 3 0.000000 -275.667613 -163.189975 3.106067
112 6 4 0.000000 -269.767613 -163.189975 3.106067
113 6 1 0.000000 -263.867613 -163.189975 3.106067
114 6 1 0.000000 -257.967613 -163.189975 3.106067
115 6 3 0.000000 -252.067613 -163.189975 3.106067
116 6 1 0.000000 -246.167613 -163.189975 3.106067
117 7 2 0.000000 -301.159138 -174.674163 86.932974
118 7 3 0.000000 -295.259138 -174.674163 86.932974
119 7 3 0.000000 -289.359138 -174.674163 86.932974
120 7 4 0.000000 -283.459138 -174.674163 86.932974
121 7 3 0.000000 -277.559138 -174.674163 86.932974
122 7 4 0.000000 -271.659138 -174.674163 86.932974
123 7 1 0.000000 -265.759138 -174.674163 86.932974
124 7 1 0.000000 -259.859138 -174.674163 86.932974
125 7 3 0.000000 -253.959138 -174.674163 86.932974
126 7 1 0.000000 -248.059138 -174.674163 86.932974
127 8 2 0.000000 -0.483941 -162.144439 51.774097
128 8 3 0.000000 5.416059 -162.144439 51.774097
129 8 3 0.000000 11.316059 -162.144439 51.774097
130 8 4 0.000000 17.216059 -162.144439 51.774097
131 8 3 0.000000 23.116059 -162.144439 51.774097
132 8 4 0.000000 29.016059 -162.144439 51.774097
133 8 1 0.000000 34.916059 -162.144439 51.774097
134 8 1 0.000000 40.816059 -162.144439 51.774097
135 8 3 0.000000 46.716059 -162.144439 51.774097
136 8 1 0.000000 52.616059 -162.144439 51.774097
137 9 2 0.000000 152.919665 -286.230719 177.375166
138 9 3 0.000000 158.819665 -286.230719 177.375166
139 9 3 0.000000 164.719665 -286.230719 177.375166
140 9 4 0.000000 170.619665 -286.230719 177.375166
141 9 3 0.000000 176.519665 -286.230719 177.375166
142 9 4 0.000000 182.419665 -286.230719 177.375166
143 9 1 0.000000 188.319665 -286.230719 177.375166
144 9 1 0.000000 194.219665 -286.230719 177.375166
145 9 3 0.000000 200.119665 -286.230719 177.375166
146 9 1 0.000000 206.019665 -286.230719 177.375166
147 10 2 0.000000 88.370849 -92.654700 -199.821890
148 10 3 0.000000 94.270849 -92.654700 -199.821890
149 10 3 0.000000 100.170849 -92.654700 -199.821890
150 10 4 0.000000 106.070849 -92.654700 -199.821890
151 10 3 0.000000 111.970849 -92.654700 -199.821890
152 10 4 0.000000 117.870849 -92.654700 -199.821890
153 10 1 0.000000 123.770849 -92.654700 -199.821890
154 10 1 0.000000 129.670849 -92.654700 -199.821890
155 10 3 0.000000 135.570849 -92.654700 -199.821890
156 10 1 0.000000 141.470849 -92.654700 -199.821890
157 11 2 0.000000 238.633582 -94.775164 -236.207411
158 11 3 0.000000 244.533582 -94.775164 -236.207411
159 11 3 0.000000 250.433582 -94.775164 -236.207411
160 11 4 0.000000 256.333582 -94.775164 -236.207411
161 11 3 0.000000 262.233582 -94.775164 -236.207411
162 11 4 0.000000 268.133582 -94.775164 -236.207411
163 11 1 0.000000 274.033582 -94.775164 -236.207411
164 11 1 0.000000 279.933582 -94.775164 -236.207411
165 11 3 0.000000 285.833582 -94.775164 -236.207411
166 11 1 0.000000 291.733582 -94.775164 -236.207411
167 12 2 0.000000 -260.454501 201.546732 60.161098
168 12 3 0.000000 -254.554501 201.546732 60.161098
169 12 3 0.000000 -248.654501 201.546732 60.161098
170 12 4 0.000000 -242.754501 201.546732 60.161098
171 12 3 0.000000 -236.854501 201.546732 60.161098
172 12 4 0.000000 -230.954501 201.546732 60.161098
173 12 1 0.000000 -225.054501 201.546732 60.161098
174 12 1 0.000000 -219.154501 201.546732 60.161098
175 12 3 0.000000 -213.254501 201.546732 60.161098
176 12 1 0.000000 -207.354501 201.546732 60.161098
177 13 2 0.000000 151.584398 133.244436 21.012293
178 13 3 0.000000 157.484398 133.244436 21.012293
179 13 3 0.000000 163.384398 133.244436 21.012293
180 13 4 0.000000 169.284398 133.244436 21.012293
181 13 3 0.000000 175.184398 133.244436 21.012293
182 13 4 0.000000 181.084398 133.244436 21.012293
183 13 1 0.000000 186.984398 133.244436 21.012293
184 13 1 0.000000 192.884398 133.244436 21.012293
185 13 3 0.000000 198.784398 133.244436 21.012293
186 13 1 0.000000 204.684398 133.244436 21.012293
187 14 2 0.000000 247.857143 -70.450061 30.183566
188 14 3 0.000000 253.757143 -70.450061 30.183566
189 14 3 0.000000 259.657143 -70.450061 30.183566
190 14 4 0.000000 265.557143 -70.450061 30.183566
191 14 3 0.000000 271.457143 -70.450061 30.183566
192 14 4 0.000000 277.357143 -70.450061 30.183566
193 14 1 0.000000 283.257143 -70.450061 30.183566
194 14 1 0.000000 289.157143 -70.450061 30.183566
195 14 3 0.000000 295.057143 -70.450061 30.183566
196 14 1 0.000000 300.957143 -70.450061 30.183566
197 15 2 0.000000 164.504705 68.741456 209.790002
198 15 3 0.000000 170.404705 68.741456 209.790002
199 15 3 0.000000 176.304705 68.741456 209.790002
200 15 4 0.000000 182.204705 68.741456 209.790002
201 15 3 0.000000 188.104705 68.741456 209.790002
202 15 4 0.000000 194.004705 68.741456 209.790002
203 15 1 0.000000 199.904705 68.741456 209.790002
204 15 1 0.000000 205.804705 68.741456 209.790002
205 15 3 0.000000 211.704705 68.741456 209.790002
206 15 1 0.000000 217.604705 68.741456 209.790002
207 16 2 0.000000 18.314244 118.651665 -263.421857
208 16 3 0.000000 24.214244 118.651665 -263.421857
209 16 3 0.000000 30.114244 118.651665 -263.421857
210 16 4 0.000000 36.014244 118.651665 -263.421857
211 16 3 0.000000 41.914244 118.651665 -263.421857
212 16 4 0.000000 47.814244 118.651665 -263.421857
213 16 1 0.000000 53.714244 118.651665 -263.421857
214 16 1 0.000000 59.614244 118.651665 -263.421857
215 16 3 0.000000 65.514244 118.651665 -263.421857
216 16 1 0.000000 71.414244 118.651665 -263.421857
217 17 2 0.000000 -184.369000 -122.154981 -243.720653
218 17 3 0.000000 -178.469000 -122.154981 -243.720653
219 17 3 0.000000 -172.569000 -122.154981 -243.720653
220 17 4 0.000000 -166.669000 -122.154981 -243.720653
221 17 3 0.000000 -160.769000 -122.154981 -243.720653
222 17 4 0.000000 -154.869000 -122.154981 -243.720653
223 17 1 0.000000 -148.969000 -122.154981 -243.720653
224 17 1 0.000000 -143.069000 -122.154981 -243.720653
225 17 3 0.000000 -137.169000 -122.154981 -243.720653
226 17 1 0.000000 -131.269000 -122.154981 -243.720653
227 18 2 0.000000 -181.531286 -231.419171 -128.775310
228 18 3 0.000000 -175.631286 -231.419171 -128.775310
229 18 3 0.000000 -169.731286 -231.419171 -128.775310
230 18 4 0.000000 -163.831286 -231.419171 -128.775310
231 18 3 0.000000 -157.931286 -231.419171 -128.775310
232 18 4 0.000000 -152.031286 -231.419171 -128.775310
233 18 1 0.000000 -146.131286 -231.419171 -128.775310
234 18 1 0.000000 -140.231286 -231.419171 -128.775310
235 18 3 0.000000 -134.331286 -231.419171 -128.775310
236 18 1 0.000000 -128.431286 -231.419171 -128.775310
237 19 2 0.000000 52.146978 -78.397336 -75.295039
238 19 3 0.000000 58.046978 -78.397336 -75.295039
239 19 3 0.000000 63.946978 -78.397336 -75.295039
240 19 4 0.000000 69.846978 -78.397336 -75.295039
241 19 3 0.000000 75.746978 -78.397336 -75.295039
242 19 4 0.000000 81.646978 -78.397336 -75.295039
243 19 1 0.000000 87.546978 -78.397336 -75.295039
244 19 1 0.000000 93.446978 -78.397336 -75.295039
245 19 3 0.000000 99.346978 -78.397336 -75.295039
246 19 1 0.000000 105.246978 -78.397336 -75.295039
247 20 2 0.000000 -195.035922 -135.152863 253.259661
248 20 3 0.000000 -189.135922 -135.152863 253.259661
249 20 3 0.000000 -183.235922 -135.152863 253.259661
250 20 4 0.000000 -177.335922 -135.152863 253.259661
251 20 3 0.000000 -171.435922 -135.152863 253.259661
252 20 4 0.000000 -165.535922 -135.152863 253.259661
253 20 1 0.000000 -159.635922 -135.152863 253.259661
254 20 1 0.000000 -153.735922 -135.152863 253.259661
255 20 3 0.000000 -147.835922 -135.152863 253.259661
256 20 1 0.000000 -141.935922 -135.152863 253.259661
257 21 2 0.000000 59.310523 63.295983 -190.739584
258 21 3 0.000000 65.210523 63.295983 -190.739584
259 21 3 0.000000 71.110523 63.295983 -190.739584
260 21 4 0.000000 77.010523 63.295983 -190.739584
261 21 3 0.000000 82.910523 63.295983 -190.739584
262 21 4 0.000000 88.810523 63.295983 -190.739584
263 21 1 0.000000 94.710523 63.295983 -190.739584
264 21 1 0.000000 100.610523 63.295983 -190.739584
265 21 3 0.000000 106.510523 63.295983 -190.739584
266 21 1 0.000000 112.410523 63.295983 -190.739584
267 22 2 0.000000 106.343543 -195.226554 -69.915844
268 22 3 0.000000 112.243543 -195.226554 -69.915844
269 22 3 0.000000 118.143543 -195.226554 -69.915844
270 22 4 0.000000 124.043543 -195.226554 -69.915844
271 22 3 0.000000 129.943543 -195.226554 -69.915844
272 22 4 0.000000 135.843543 -195.226554 -69.915844
273 22 1 0.000000 141.743543 -195.226554 -69.915844
274 22 1 0.000000 147.643543 -195.226554 -69.915844
275 22 3 0.000000 153.543543 -195.226554 -69.915844
276 22 1 0.000000 159.443543 -195.226554 -69.915844
277 23 2 0.000000 257.373543 81.199861 33.030851
278 23 3 0.000000 263.273543 81.199861 33.030851
279 23 3 0.000000 269.173543 81.199861 33.030851
280 23 4 0.000000 275.073543 81.199861 33.030851
281 23 3 0.000000 280.973543 81.199861 33.030851
282 23 4 0.000000 286.873543 81.199861 33.030851
283 23 1 0.000000 292.773543 81.199861 33.030851
284 23 1 0.000000 298.673543 81.199861 33.030851
285 23 3 0.000000 304.573543 81.199861 33.030851
286 23 1 0.000000 310.473543 81.199861 33.030851
287 24 2 0.000000 80.526266 198.854114 160.079949
288 24 3 0.000000 86.426266 198.854114 160.079949
289 24 3 0.000000 92.326266 198.854114 160.079949
290 24 4 0.000000 98.226266 198.854114 160.079949
291 24 3 0.000000 104.126266 198.854114 160.079949
292 24 4 0.000000 110.026266 198.854114 160.079949
293 24 1 0.000000 115.926266 198.854114 160.079949
294 24 1 0.000000 121.826266 198.854114 160.079949
295 24 3 0.000000 127.726266 198.854114 160.079949
296 24 1 0.000000 133.626266 198.854114 160.079949
297 25 2 0.000000 -183.702118 -271.381859 -107.037232
298 25 3 0.000000 -177.802118 -271.381859 -107.037232
299 25 3 0.000000 -171.902118 -271.381859 -107.037232
300 25 4 0.000000 -166.002118 -271.381859 -107.037232
301 25 3 0.000000 -160.102118 -271.381859 -107.037232
302 25 4 0.000000 -154.202118 -271.381859 -107.037232
303 25 1 0.000000 -148.302118 -271.381859 -107.037232
304 25 1 0.000000 -142.402118 -271.381859 -107.037232
305 25 3 0.000000 -136.502118 -271.381859 -107.037232
306 25 1 0.000000 -130.602118 -271.381859 -107.037232
307 26 2 0.000000 -161.260292 -167.629951 256.887634
308 26 3 0.000000 -155.360292 -167.629951 256.887634
309 26 3 0.000000 -149.460292 -167.629951 256.887634
310 26 4 0.000000 -143.560292 -167.629951 256.887634
311 26 3 0.000000 -137.660292 -167.629951 256.887634
312 26 4 0.000000 -131.760292 -167.629951 256.887634
313 26 1 0.000000 -125.860292 -167.629951 256.887634
314 26 1 0.000000 -119.960292 -167.629951 256.887634
315 26 3 0.000000 -114.060292 -167.629951 256.887634
316 26 1 0.000000 -108.160292 -167.629951 256.887634
317 27 2 0.000000 191.743223 -107.486829 90.154426
318 27 3 0.000000 197.643223 -107.486829 90.154426
319 27 3 0.000000 203.543223 -107.486829 90.154426
320 27 4 0.000000 209.443223 -107.486829 90.154426
321 27 3 0.000000 215.343223 -107.486829 90.154426
322 27 4 0.000000 221.243223 -107.486829 90.154426
323 27 1 0.000000 227.143223 -107.486829 90.154426
324 27 1 0.000000 233.043223 -107.486829 90.154426
325 27 3 0.000000 238.943223 -107.486829 90.154426
326 27 1 0.000000 244.843223 -107.486829 90.154426
327 28 2 0.000000 -87.083497 240.437602 -23.865925
328 28 3 0.000000 -81.183497 240.437602 -23.865925
329 28 3 0.000000 -75.283497 240.437602 -23.865925
330 28 4 0.000000 -69.383497 240.437602 -23.865925
331 28 3 0.000000 -63.483497 240.437602 -23.865925
332 28 4 0.000000 -57.583497 240.437602 -23.865925
333 28 1 0.000000 -51.683497 240.437602 -23.865925
334 28 1 0.000000 -45.783497 240.437602 -23.865925
335 28 3 0.000000 -39.883497 240.437602 -23.865925
336 28 1 0.000000 -33.983497 240.437602 -23.865925
337 29 2 0.000000 -162.919503 -146.956046 35.593518
338 29 3 0.000000 -157.019503 -146.956046 35.593518
339 29 3 0.000000 -151.119503 -146.956046 35.593518
340 29 4 0.000000 -145.219503 -146.956046 35.593518
341 29 3 0.000000 -139.319503 -146.956046 35.593518
342 29 4 0.000000 -133.419503 -146.956046 35.593518
343 29 1 0.000000 -127.519503 -146.956046 35.593518
344 29 1 0.000000 -121.619503 -146.956046 35.593518
345 29 3 0.000000 -115.719503 -146.956046 35.593518
346 29 1 0.000000 -109.819503 -146.956046 35.593518
347 30 2 0.000000 -164.159867 49.059874 230.737272
348 30 3 0.000000 -158.259867 49.059874 230.737272
349 30 3 0.000000 -152.359867 49.059874 230.737272
350 30 4 0.000000 -146.459867 49.059874 230.737272
351 30 3 0.000000 -140.559867 49.059874 230.737272
352 30 4 0.000000 -134.659867 49.059874 230.737272
353 30 1 0.000000 -128.759867 49.059874 230.737272
354 30 1 0.000000 -122.859867 49.059874 230.737272
355 30 3 0.000000 -116.959867 49.059874 230.737272
356 30 1 0.000000 -111.059867 49.059874 230.737272
357 31 2 0.000000 -84.897707 -162.793960 288.571812
358 31 3 0.000000 -78.997707 -162.793960 288.571812
359 31 3 0.000000 -73.097707 -162.793960 288.571812
360 31 4 0.000000 -67.197707 -162.793960 288.571812
361 31 3 0.000000 -61.297707 -162.793960 288.571812
362 31 4 0.000000 -55.397707 -162.793960 288.571812
363 31 1 0.000000 -49.497707 -162.793960 288.571812
364 31 1 0.000000 -43.597707 -162.793960 288.571812
365 31 3 0.000000 -37.697707 -162.793960 288.571812
366 31 1 0.000000 -31.797707 -162.793960 288.571812
367 32 2 0.000000 -21.024750 -237.272541 -262.672502
368 32 3 0.000000 -15.124750 -237.272541 -262.672502
369 32 3 0.000000 -9.224750 -237.272541 -262.672502
370 32 4 0.000000 -3.324750 -237.272541 -262.672502
371 32 3 0.000000 2.575250 -237.272541 -262.672502
372 32 4 0.000000 8.475250 -237.272541 -262.672502
373 32 1 0.000000 14.375250 -237.272541 -262.672502
374 32 1 0.000000 20.275250 -237.272541 -262.672502
375 32 3 0.000000 26.175250 -237.272541 -262.672502
376 32 1 0.000000 32.075250 -237.272541 -262.672502
377 33 2 0.000000 -252.953504 73.918704 169.406031
378 33 3 0.000000 -247.053504 73.918704 169.406031
379 33 3 0.000000 -241.153504 73.918704 169.406031
380 33 4 0.000000 -235.253504 73.918704 169.406031
381 33 3 0.000000 -229.353504 73.918704 169.406031
382 33 4 0.000000 -223.453504 73.918704 169.406031
383 33 1 0.000000 -217.553504 73.918704 169.406031
384 33 1 0.000000 -211.653504 73.918704 169.406031
385 33 3 0.000000 -205.753504 73.918704 169.406031
386 33 1 0.000000 -199.853504 73.918704 169.406031
387 34 2 0.000000 -71.697219 -253.153930 -68.660814
388 34 3 0.000000 -65.797219 -253.153930 -68.660814
389 34 3 0.000000 -59.897219 -253.153930 -68.660814
390 34 4 0.000000 -53.997219 -253.153930 -68.660814
391 34 3 0.000000 -48.097219 -253.153930 -68.660814
392 34 4 0.000000 -42.197219 -253.153930 -68.660814
393 34 1 0.000000 -36.297219 -253.153930 -68.660814
394 34 1 0.000000 -30.397219 -253.153930 -68.660814
395 34 3 0.000000 -24.497219 -253.153930 -68.660814
396 34 1 0.000000 -18.597219 -253.153930 -68.660814
397 35 2 0.000000 261.200401 16.886320 273.225459
398 35 3 0.000000 267.100401 16.886320 273.225459
399 35 3 0.000000 273.000401 16.886320 273.225459
400 35 4 0.000000 278.900401 16.886320 273.225459
401 35 3 0.000000 284.800401 16.886320 273.225459
402 35 4 0.000000 290.700401 16.886320 273.225459
403 35 1 0.000000 296.600401 16.886320 273.225459
404 35 1 0.000000 302.500401 16.886320 273.225459
405 35 3 0.000000 308.400401 16.886320 273.225459
406 35 1 0.000000 314.300401 16.886320 273.225459
407 36 2 0.000000 182.702227 -283.341007 128.018655
408 36 3 0.000000 188.602227 -283.341007 128.018655
409 36 3 0.000000 194.502227 -283.341007 128.018655
410 36 4 0.000000 200.402227 -283.341007 128.018655
411 36 3 0.000000 206.302227 -283.341007 128.018655
412 36 4 0.000000 212.202227 -283.341007 128.018655
413 36 1 0.000000 218.102227 -283.341007 128.018655
414 36 1 0.000000 224.002227 -283.341007 128.018655
415 36 3 0.000000 229.902227 -283.341007 128.018655
416 36 1 0.000000 235.802227 -283.341007 128.018655
417 37 2 0.000000 78.842014 21.442792 -135.241390
418 37 3 0.000000 84.742014 21.442792 -135.241390
419 37 3 0.000000 90.642014 21.442792 -135.241390
420 37 4 0.000000 96.542014 21.442792 -135.241390
421 37 3 0.000000 102.442014 21.442792 -135.241390
422 37 4 0.000000 108.342014 21.442792 -135.241390
423 37 1 0.000000 114.242014 21.442792 -135.241390
424 37 1 0.000000 120.142014 21.442792 -135.241390
425 37 3 0.000000 126.042014 21.442792 -135.241390
426 37 1 0.000000 131.942014 21.442792 -135.241390
427 38 2 0.000000 55.207843 -225.299739 -37.836155
428 38 3 0.000000 61.107843 -225.299739 -37.836155
429 38 3 0.000000 67.007843 -225.299739 -37.836155
430 38 4 0.000000 72.907843 -225.299739 -37.836155
431 38 3 0.000000 78.807843 -225.299739 -37.836155
432 38 4 0.000000 84.707843 -225.299739 -37.836155
433 38 1 0.000000 90.607843 -225.299739 -37.836155
434 38 1 0.000000 96.507843 -225.299739 -37.836155
435 38 3 0.000000 102.407843 -225.299739 -37.836155
436 38 1 0.000000 108.307843 -225.299739 -37.836155
437 39 2 0.000000 -53.390250 263.213238 217.994705
438 39 3 0.000000 -47.490250 263.213238 217.994705
439 39 3 0.000000 -41.590250 263.213238 217.994705
440 39 4 0.000000 -35.690250 263.213238 217.994705
441 39 3 0.000000 -29.790250 263.213238 217.994705
442 39 4 0.000000 -23.890250 263.213238 217.994705
443 39 1 0.000000 -17.990250 263.213238 217.994705
444 39 1 0.000000 -12.090250 263.213238 217.994705
445 39 3 0.000000 -6.190250 263.213238 217.994705
446 39 1 0.000000 -0.290250 263.213238 217.994705
447 40 2 0.000000 -163.784351 0.339946 -186.381909
448 40 3 0.000000 -157.884351 0.339946 -186.381909
449 40 3 0.000000 -151.984351 0.339946 -186.381909
450 40 4 0.000000 -146.084351 0.339946 -186.381909
451 40 3 0.000000 -140.184351 0.339946 -186.381909
452 40 4 0.000000 -134.284351 0.339946 -186.381909
453 40 1 0.000000 -128.384351 0.339946 -186.381909
454 40 1 0.000000 -122.484351 0.339946 -186.381909
455 40 3 0.000000 -116.584351 0.339946 -186.381909
456 40 1 0.000000 -110.684351 0.339946 -186.381909
457 41 2 0.000000 212.774147 214.900771 -116.902021
458 41 3 0.000000 218.674147 214.900771 -116.902021
459 41 3 0.000000 224.574147 214.900771 -116.902021
460 41 4 0.000000 230.474147 214.900771 -116.902021
461 41 3 0.000000 236.374147 214.900771 -116.902021
462 41 4 0.000000 242.274147 214.900771 -116.902021
463 41 1 0.000000 248.174147 214.900771 -116.902021
464 41 1 0.000000 254.074147 214.900771 -116.902021
465 41 3 0.000000 259.974147 214.900771 -116.902021
466 41 1 0.000000 265.874147 214.900771 -116.902021
467 42 2 0.000000 125.706264 22.839837 161.603358
468 42 3 0.000000 131.606264 22.839837 161.603358
469 42 3 0.000000 137.506264 22.839837 161.603358
470 42 4 0.000000 143.406264 22.839837 161.603358
471 42 3 0.000000 149.306264 22.839837 161.603358
472 42 4 0.000000 155.206264 22.839837 161.603358
473 42 1 0.000000 161.106264 22.839837 161.603358
474 42 1 0.000000 167.006264 22.839837 161.603358
475 42 3 0.000000 172.906264 22.839837 161.603358
476 42 1 0.000000 178.806264 22.839837 161.603358
477 43 2 0.000000 -8.944870 -289.668300 -101.989487
478 43 3 0.000000 -3.044870 -289.668300 -101.989487
479 43 3 0.000000 2.855130 -289.668300 -101.989487
480 43 4 0.000000 8.755130 -289.668300 -101.989487
481 43 3 0.000000 14.655130 -289.668300 -101.989487
482 43 4 0.000000 20.555130 -289.668300 -101.989487
483 43 1 0.000000 26.455130 -289.668300 -101.989487
484 43 1 0.000000 32.355130 -289.668300 -101.989487
485 43 3 0.000000 38.255130 -289.668300 -101.989487
486 43 1 0.000000 44.155130 -289.668300 -101.989487
487 44 2 0.000000 -305.253489 248.877197 219.658689
488 44 3 0.000000 -299.353489 248.877197 219.658689
489 44 3 0.000000 -293.453489 248.877197 219.658689
490 44 4 0.000000 -287.553489 248.877197 219.658689
491 44 3 0.000000 -281.653489 248.877197 219.658689
492 44 4 0.000000 -275.753489 248.877197 219.658689
493 44 1 0.000000 -269.853489 248.877197 219.658689
494 44 1 0.000000 -263.953489 248.877197 219.658689
495 44 3 0.000000 -258.053489 248.877197 219.658689
496 44 1 0.000000 -252.153489 248.877197 219.658689
497 45 2 0.000000 165.816007 -111.641807 -256.403403
498 45 3 0.000000 171.716007 -111.641807 -256.403403
499 45 3 0.000000 177.616007 -111.641807 -256.403403
500 45 4 0.000000 183.516007 -111.641807 -256.403403
501 45 3 0.000000 189.416007 -111.641807 -256.403403
502 45 4 0.000000 195.316007 -111.641807 -256.403403
503 45 1 0.000000 201.216007 -111.641807 -256.403403
504 45 1 0.000000 207.116007 -111.641807 -256.403403
505 45 3 0.000000 213.016007 -111.641807 -256.403403
506 45 1 0.000000 218.916007 -111.641807 -256.403403
507 46 2 0.000000 192.695568 259.230678 -240.320998
508 46 3 0.000000 198.595568 259.230678 -240.320998
509 46 3 0.000000 204.495568 259.230678 -240.320998
510 46 4 0.000000 210.395568 259.230678 -240.320998
511 46 3 0.000000 216.295568 259.230678 -240.320998
512 46 4 0.000000 222.195568 259.230678 -240.320998
513 46 1 0.000000 228.095568 259.230678 -240.320998
514 46 1 0.000000 233.995568 259.230678 -240.320998
515 46 3 0.000000 239.895568 259.230678 -240.320998
516 46 1 0.000000 245.795568 259.230678 -240.320998
517 47 2 0.000000 -34.675531 -249.856739 151.149256
518 47 3 0.000000 -28.775531 -249.856739 151.149256
519 47 3 0.000000 -22.875531 -249.856739 151.149256
520 47 4 0.000000 -16.975531 -249.856739 151.149256
521 47 3 0.000000 -11.075531 -249.856739 151.149256
522 47 4 0.000000 -5.175531 -249.856739 151.149256
523 47 1 0.000000 0.724469 -249.856739 151.149256
524 47 1 0.000000 6.624469 -249.856739 151.149256
525 47 3 0.000000 12.524469 -249.856739 151.149256
526 47 1 0.000000 18.424469 -249.856739 151.149256
527 48 2 0.000000 127.633969 -215.532951 -14.336221
528 48 3 0.000000 133.533969 -215.532951 -14.336221
529 48 3 0.000000 139.433969 -215.532951 -14.336221
530 48 4 0.000000 145.333969 -215.532951 -14.336221
531 48 3 0.000000 151.233969 -215.532951 -14.336221
532 48 4 0.000000 157.133969 -215.532951 -14.336221
533 48 1 0.000000 163.033969 -215.532951 -14.336221
534 48 1 0.000000 168.933969 -215.532951 -14.336221
535 48 3 0.000000 174.833969 -215.532951 -14.336221
536 48 1 0.000000 180.733969 -215.532951 -14.336221
537 49 2 0.000000 2.336084 -136.267155 216.011164
538 49 3 0.000000 8.236084 -136.267155 216.011164
539 49 3 0.000000 14.136084 -136.267155 216.011164
540 49 4 0.000000 20.036084 -136.267155 216.011164
541 49 3 0.000000 25.936084 -136.267155 216.011164
542 49 4 0.000000 31.836084 -136.267155 216.011164
543 49 1 0.000000 37.736084 -136.267155 216.011164
544 49 1 0.000000 43.636084 -136.267155 216.011164
545 49 3 0.000000 49.536084 -136.267155 216.011164
546 49 1 0.000000 55.436084 -136.267155 216.011164
547 50 2 0.000000 -71.129995 -167.157041 22.791731
548 50 3 0.000000 -65.229995 -167.157041 22.791731
549 50 3 0.000000 -59.329995 -167.157041 22.791731
550 50 4 0.000000 -53.429995 -167.157041 22.791731
551 50 3 0.000000 -47.529995 -167.157041 22.791731
552 50 4 0.000000 -41.629995 -167.157041 22.791731
553 50 1 0.000000 -35.729995 -167.157041 22.791731
554 50 1 0.000000 -29.829995 -167.157041 22.791731
555 50 3 0.000000 -23.929995 -167.157041 22.791731
556 50 1 0.000000 -18.029995 -167.157041 22.791731
557 51 2 0.000000 106.810020 -173.332383 -109.204551
558 51 3 0.000000 112.710020 -173.332383 -109.204551
559 51 3 0.000000 118.610020 -173.332383 -109.204551
560 51 4 0.000000 124.510020 -173.332383 -109.204551
561 51 3 0.000000 130.410020 -173.332383 -109.204551
562 51 4 0.000000 136.310020 -173.332383 -109.204551
563 51 1 0.000000 142.210020 -173.332383 -109.204551
564 51 1 0.000000 148.110020 -173.332383 -109.204551
565 51 3 0.000000 154.010020 -173.332383 -109.204551
566 51 1 0.000000 159.910020 -173.332383 -109.204551

Bonds

1 1 1 2
2 1 2 3
3 1 3 4
4 1 4 5
5 1 5 6
6 1 6 7
7 1 7 8
8 1 8 9
9 1 9 10
10 1 11 12
11 1 12 13
12 1 13 14
13 1 14 15
14 1 15 16
15 1 16 17
16 1 17 18
17 1 18 19
18 1 19 20
19 1 20 21
20 1 21 22
21 1 22 23
22 1 23 24
23 1 24 25
24 1 25 26
25 1 26 27
26 1 27 28
27 1 28 29
28 1 29 30
29 1 30 31
30 1 31 32
31 1 32 33
32 1 33 34
33 1 34 35
34 1 35 36
35 1 36 37
36 1 37 38
37 1 38 39
38 1 39 40
39 1 40 41
40 1 41 42
41 1 42 43
42 1 43 44
43 1 44 45
44 1 45 46
45 1 46 47
46 1 47 48
47 1 48 49
48 1 49 50
49 1 50 51
50 1 51 52
51 1 52 53
52 1 53 54
53 1 54 55
54 1 55 56
55 1 56 57
56 1 57 58
57 1 58 59
58 1 59 60
59 1 60 61
60 1 61 62
61 1 62 63
62 1 63 64
63 1 64 65
64 1 65 66
65 1 66 67
66 1 67 68
67 1 68 69
68 1 69 70
69 1 70 71
70 1 71 72
71 1 72 73
72 1 73 74
73 1 74 75
74 1 75 76
75 1 77 78
76 1 78 79
77 1 79 80
78 1 80 81
79 1 81 82
80 1 82 83
81 1 83 84
82 1 84 85
83 1 85 86
84 1 87 88
85 1 88 89
86 1 89 90
87 1 90 91
88 1 91 92
89 1 92 93
90 1 93 94
91 1 94 95
92 1 95 96
93 1 97 98
94 1 98 99
95 1 99 100
96 1 100 101
97 1 101 102
98 1 102 103