LAMMPS data file — Week 13 combined RNA+ASO | target=7LYJ | aso=CGGUGUAAGA | n_aso=400 | box=±590.0

4066 atoms
3665 bonds
3264 angles

4 atom types
1 bond types
1 angle types

-590.000000  590.000000  xlo xhi
-590.000000  590.000000  ylo yhi
-590.000000  590.000000  zlo zhi

Masses

1 329.20
2 305.20
3 345.20
4 306.20

Atoms

1 1 2 0.000000 20.000000 0.000000 0.000000
2 1 3 0.000000 25.900000 0.000000 0.000000
3 1 3 0.000000 31.800000 0.000000 0.000000
4 1 4 0.000000 37.700000 0.000000 0.000000
5 1 3 0.000000 43.600000 0.000000 0.000000
6 1 4 0.000000 49.500000 0.000000 0.000000
7 1 1 0.000000 55.400000 0.000000 0.000000
8 1 1 0.000000 61.300000 0.000000 0.000000
9 1 3 0.000000 67.200000 0.000000 0.000000
10 1 1 0.000000 73.100000 0.000000 0.000000
11 2 2 0.000000 2.035273 -1.454939 -5.263727
12 2 3 0.000000 -0.766727 -6.502939 -4.423727
13 2 3 0.000000 -5.322727 -9.458939 -2.332727
14 2 4 0.000000 -10.686727 -9.262939 -0.255727
15 2 3 0.000000 -15.665727 -6.447939 0.528273
16 2 4 0.000000 -19.019727 -1.928939 -0.557727
17 2 1 0.000000 -20.236727 2.554061 -3.887727
18 2 1 0.000000 -19.405727 5.849061 -8.575727
19 2 3 0.000000 -17.035727 6.677061 -13.786727
20 2 4 0.000000 -13.810727 7.693061 -18.960727
21 2 3 0.000000 -13.521727 5.320061 -24.051727
22 2 2 0.000000 -18.390727 4.604061 -27.166727
23 2 1 0.000000 -22.751727 7.610061 -27.785727
24 2 3 0.000000 -25.251727 5.661061 -23.033727
25 2 2 0.000000 -25.745727 1.848061 -18.688727
26 2 2 0.000000 -24.206727 -3.020939 -15.814727
27 2 2 0.000000 -20.286727 -6.736939 -13.593727
28 2 3 0.000000 -14.834727 -6.812939 -12.274727
29 2 4 0.000000 -8.925727 -7.221939 -11.874727
30 2 2 0.000000 -6.745727 -2.241939 -13.668727
31 2 4 0.000000 -6.538727 3.008061 -11.259727
32 2 4 0.000000 -7.523727 6.594061 -6.898727
33 2 1 0.000000 -9.390727 7.820061 -1.549727
34 2 2 0.000000 -10.140727 5.948061 3.775273
35 2 1 0.000000 -9.804727 1.844061 7.813273
36 2 2 0.000000 -7.241727 -3.010939 9.473273
37 2 2 0.000000 -2.778727 -6.626939 8.991273
38 2 3 0.000000 2.464273 -7.569939 6.688273
39 2 4 0.000000 7.381273 -6.270939 3.771273
40 2 3 0.000000 11.599273 -2.655939 2.100273
41 2 2 0.000000 13.877273 2.429061 3.110273
42 2 3 0.000000 14.500273 6.997061 6.554273
43 2 3 0.000000 13.887273 9.351061 11.861273
44 2 2 0.000000 13.523273 8.204061 17.492273
45 2 1 0.000000 13.130273 4.623061 22.042273
46 2 2 0.000000 14.430273 -0.441939 24.179273
47 2 1 0.000000 17.276273 -5.486939 23.807273
48 2 3 0.000000 22.093273 -8.256939 22.139273
49 2 2 0.000000 27.474273 -7.575939 20.369273
50 2 3 0.000000 31.969273 -4.069939 19.780273
51 2 3 0.000000 34.498273 0.513061 22.126273
52 2 1 0.000000 33.791273 3.040061 26.728273
53 2 1 0.000000 29.810273 7.000061 25.579273
54 2 1 0.000000 26.899273 10.524061 22.081273
55 2 2 0.000000 25.405273 7.851061 17.130273
56 2 3 0.000000 25.814273 3.866061 12.902273
57 2 2 0.000000 24.186273 -1.092939 10.458273
58 2 4 0.000000 20.341273 -5.274939 10.305273
59 2 3 0.000000 15.309273 -7.991939 11.820273
60 2 1 0.000000 10.426273 -10.435939 13.459273
61 2 4 0.000000 7.382273 -6.375939 16.757273
62 2 3 0.000000 3.976273 -1.856939 18.047273
63 2 4 0.000000 2.429273 3.736061 15.827273
64 2 2 0.000000 2.390273 8.217061 12.228273
65 2 3 0.000000 2.786273 9.779061 6.734273
66 2 4 0.000000 3.549273 8.281061 1.271273
67 2 1 0.000000 3.573273 5.537061 -4.116727
68 2 4 0.000000 0.140273 6.240061 -8.650727
69 2 1 0.000000 -2.881727 6.096061 -14.228727
70 2 2 0.000000 -6.216727 2.494061 -18.233727
71 2 1 0.000000 -7.540727 -3.007939 -21.438727
72 2 3 0.000000 -10.077727 -7.610939 -22.929727
73 2 3 0.000000 -15.905727 -9.772939 -23.759727
74 2 3 0.000000 -21.609727 -9.830939 -24.399727
75 2 2 0.000000 -26.818727 -7.906939 -26.148727
76 2 4 0.000000 -31.268727 -3.593939 -28.320727
77 3 2 0.000000 135.185086 -550.987524 -260.965991
78 3 3 0.000000 141.085086 -550.987524 -260.965991
79 3 3 0.000000 146.985086 -550.987524 -260.965991
80 3 4 0.000000 152.885086 -550.987524 -260.965991
81 3 3 0.000000 158.785086 -550.987524 -260.965991
82 3 4 0.000000 164.685086 -550.987524 -260.965991
83 3 1 0.000000 170.585086 -550.987524 -260.965991
84 3 1 0.000000 176.485086 -550.987524 -260.965991
85 3 3 0.000000 182.385086 -550.987524 -260.965991
86 3 1 0.000000 188.285086 -550.987524 -260.965991
87 4 2 0.000000 -347.625544 274.306608 204.971405
88 4 3 0.000000 -341.725544 274.306608 204.971405
89 4 3 0.000000 -335.825544 274.306608 204.971405
90 4 4 0.000000 -329.925544 274.306608 204.971405
91 4 3 0.000000 -324.025544 274.306608 204.971405
92 4 4 0.000000 -318.125544 274.306608 204.971405
93 4 1 0.000000 -312.225544 274.306608 204.971405
94 4 1 0.000000 -306.325544 274.306608 204.971405
95 4 3 0.000000 -300.425544 274.306608 204.971405
96 4 1 0.000000 -294.525544 274.306608 204.971405
97 5 2 0.000000 428.378299 -479.150954 -90.570689
98 5 3 0.000000 434.278299 -479.150954 -90.570689
99 5 3 0.000000 440.178299 -479.150954 -90.570689
100 5 4 0.000000 446.078299 -479.150954 -90.570689
101 5 3 0.000000 451.978299 -479.150954 -90.570689
102 5 4 0.000000 457.878299 -479.150954 -90.570689
103 5 1 0.000000 463.778299 -479.150954 -90.570689
104 5 1 0.000000 469.678299 -479.150954 -90.570689
105 5 3 0.000000 475.578299 -479.150954 -90.570689
106 5 1 0.000000 481.478299 -479.150954 -90.570689
107 6 2 0.000000 -571.985225 -326.379949 6.212134
108 6 3 0.000000 -566.085225 -326.379949 6.212134
109 6 3 0.000000 -560.185225 -326.379949 6.212134
110 6 4 0.000000 -554.285225 -326.379949 6.212134
111 6 3 0.000000 -548.385225 -326.379949 6.212134
112 6 4 0.000000 -542.485225 -326.379949 6.212134
113 6 1 0.000000 -536.585225 -326.379949 6.212134
114 6 1 0.000000 -530.685225 -326.379949 6.212134
115 6 3 0.000000 -524.785225 -326.379949 6.212134
116 6 1 0.000000 -518.885225 -326.379949 6.212134
117 7 2 0.000000 -575.768275 -349.348325 173.865948
118 7 3 0.000000 -569.868275 -349.348325 173.865948
119 7 3 0.000000 -563.968275 -349.348325 173.865948
120 7 4 0.000000 -558.068275 -349.348325 173.865948
121 7 3 0.000000 -552.168275 -349.348325 173.865948
122 7 4 0.000000 -546.268275 -349.348325 173.865948
123 7 1 0.000000 -540.368275 -349.348325 173.865948
124 7 1 0.000000 -534.468275 -349.348325 173.865948
125 7 3 0.000000 -528.568275 -349.348325 173.865948
126 7 1 0.000000 -522.668275 -349.348325 173.865948
127 8 2 0.000000 25.582117 -324.288878 103.548193
128 8 3 0.000000 31.482117 -324.288878 103.548193
129 8 3 0.000000 37.382117 -324.288878 103.548193
130 8 4 0.000000 43.282117 -324.288878 103.548193
131 8 3 0.000000 49.182117 -324.288878 103.548193
132 8 4 0.000000 55.082117 -324.288878 103.548193
133 8 1 0.000000 60.982117 -324.288878 103.548193
134 8 1 0.000000 66.882117 -324.288878 103.548193
135 8 3 0.000000 72.782117 -324.288878 103.548193
136 8 1 0.000000 78.682117 -324.288878 103.548193
137 9 2 0.000000 332.389330 -572.461439 354.750332
138 9 3 0.000000 338.289330 -572.461439 354.750332
139 9 3 0.000000 344.189330 -572.461439 354.750332
140 9 4 0.000000 350.089330 -572.461439 354.750332
141 9 3 0.000000 355.989330 -572.461439 354.750332
142 9 4 0.000000 361.889330 -572.461439 354.750332
143 9 1 0.000000 367.789330 -572.461439 354.750332
144 9 1 0.000000 373.689330 -572.461439 354.750332
145 9 3 0.000000 379.589330 -572.461439 354.750332
146 9 1 0.000000 385.489330 -572.461439 354.750332
147 10 2 0.000000 203.291698 -185.309401 -399.643780
148 10 3 0.000000 209.191698 -185.309401 -399.643780
149 10 3 0.000000 215.091698 -185.309401 -399.643780
150 10 4 0.000000 220.991698 -185.309401 -399.643780
151 10 3 0.000000 226.891698 -185.309401 -399.643780
152 10 4 0.000000 232.791698 -185.309401 -399.643780
153 10 1 0.000000 238.691698 -185.309401 -399.643780
154 10 1 0.000000 244.591698 -185.309401 -399.643780
155 10 3 0.000000 250.491698 -185.309401 -399.643780
156 10 1 0.000000 256.391698 -185.309401 -399.643780
157 11 2 0.000000 503.817164 -189.550328 -472.414822
158 11 3 0.000000 509.717164 -189.550328 -472.414822
159 11 3 0.000000 515.617164 -189.550328 -472.414822
160 11 4 0.000000 521.517164 -189.550328 -472.414822
161 11 3 0.000000 527.417164 -189.550328 -472.414822
162 11 4 0.000000 533.317164 -189.550328 -472.414822
163 11 1 0.000000 539.217164 -189.550328 -472.414822
164 11 1 0.000000 545.117164 -189.550328 -472.414822
165 11 3 0.000000 551.017164 -189.550328 -472.414822
166 11 1 0.000000 556.917164 -189.550328 -472.414822
167 12 2 0.000000 -494.359003 403.093465 120.322196
168 12 3 0.000000 -488.459003 403.093465 120.322196
169 12 3 0.000000 -482.559003 403.093465 120.322196
170 12 4 0.000000 -476.659003 403.093465 120.322196
171 12 3 0.000000 -470.759003 403.093465 120.322196
172 12 4 0.000000 -464.859003 403.093465 120.322196
173 12 1 0.000000 -458.959003 403.093465 120.322196
174 12 1 0.000000 -453.059003 403.093465 120.322196
175 12 3 0.000000 -447.159003 403.093465 120.322196
176 12 1 0.000000 -441.259003 403.093465 120.322196
177 13 2 0.000000 329.718797 266.488873 42.024586
178 13 3 0.000000 335.618797 266.488873 42.024586
179 13 3 0.000000 341.518797 266.488873 42.024586
180 13 4 0.000000 347.418797 266.488873 42.024586
181 13 3 0.000000 353.318797 266.488873 42.024586
182 13 4 0.000000 359.218797 266.488873 42.024586
183 13 1 0.000000 365.118797 266.488873 42.024586
184 13 1 0.000000 371.018797 266.488873 42.024586
185 13 3 0.000000 376.918797 266.488873 42.024586
186 13 1 0.000000 382.818797 266.488873 42.024586
187 14 2 0.000000 522.264286 -140.900122 60.367132
188 14 3 0.000000 528.164286 -140.900122 60.367132
189 14 3 0.000000 534.064286 -140.900122 60.367132
190 14 4 0.000000 539.964286 -140.900122 60.367132
191 14 3 0.000000 545.864286 -140.900122 60.367132
192 14 4 0.000000 551.764286 -140.900122 60.367132
193 14 1 0.000000 557.664286 -140.900122 60.367132
194 14 1 0.000000 563.564286 -140.900122 60.367132
195 14 3 0.000000 569.464286 -140.900122 60.367132
196 14 1 0.000000 575.364286 -140.900122 60.367132
197 15 2 0.000000 355.559411 137.482913 419.580004
198 15 3 0.000000 361.459411 137.482913 419.580004
199 15 3 0.000000 367.359411 137.482913 419.580004
200 15 4 0.000000 373.259411 137.482913 419.580004
201 15 3 0.000000 379.159411 137.482913 419.580004
202 15 4 0.000000 385.059411 137.482913 419.580004
203 15 1 0.000000 390.959411 137.482913 419.580004
204 15 1 0.000000 396.859411 137.482913 419.580004
205 15 3 0.000000 402.759411 137.482913 419.580004
206 15 1 0.000000 408.659411 137.482913 419.580004
207 16 2 0.000000 63.178488 237.303330 -526.843715
208 16 3 0.000000 69.078488 237.303330 -526.843715
209 16 3 0.000000 74.978488 237.303330 -526.843715
210 16 4 0.000000 80.878488 237.303330 -526.843715
211 16 3 0.000000 86.778488 237.303330 -526.843715
212 16 4 0.000000 92.678488 237.303330 -526.843715
213 16 1 0.000000 98.578488 237.303330 -526.843715
214 16 1 0.000000 104.478488 237.303330 -526.843715
215 16 3 0.000000 110.378488 237.303330 -526.843715
216 16 1 0.000000 116.278488 237.303330 -526.843715
217 17 2 0.000000 -342.188000 -244.309962 -487.441307
218 17 3 0.000000 -336.288000 -244.309962 -487.441307
219 17 3 0.000000 -330.388000 -244.309962 -487.441307
220 17 4 0.000000 -324.488000 -244.309962 -487.441307
221 17 3 0.000000 -318.588000 -244.309962 -487.441307
222 17 4 0.000000 -312.688000 -244.309962 -487.441307
223 17 1 0.000000 -306.788000 -244.309962 -487.441307
224 17 1 0.000000 -300.888000 -244.309962 -487.441307
225 17 3 0.000000 -294.988000 -244.309962 -487.441307
226 17 1 0.000000 -289.088000 -244.309962 -487.441307
227 18 2 0.000000 -336.512572 -462.838342 -257.550620
228 18 3 0.000000 -330.612572 -462.838342 -257.550620
229 18 3 0.000000 -324.712572 -462.838342 -257.550620
230 18 4 0.000000 -318.812572 -462.838342 -257.550620
231 18 3 0.000000 -312.912572 -462.838342 -257.550620
232 18 4 0.000000 -307.012572 -462.838342 -257.550620
233 18 1 0.000000 -301.112572 -462.838342 -257.550620
234 18 1 0.000000 -295.212572 -462.838342 -257.550620
235 18 3 0.000000 -289.312572 -462.838342 -257.550620
236 18 1 0.000000 -283.412572 -462.838342 -257.550620
237 19 2 0.000000 130.843955 -156.794672 -150.590078
238 19 3 0.000000 136.743955 -156.794672 -150.590078
239 19 3 0.000000 142.643955 -156.794672 -150.590078
240 19 4 0.000000 148.543955 -156.794672 -150.590078
241 19 3 0.000000 154.443955 -156.794672 -150.590078
242 19 4 0.000000 160.343955 -156.794672 -150.590078
243 19 1 0.000000 166.243955 -156.794672 -150.590078
244 19 1 0.000000 172.143955 -156.794672 -150.590078
245 19 3 0.000000 178.043955 -156.794672 -150.590078
246 19 1 0.000000 183.943955 -156.794672 -150.590078
247 20 2 0.000000 -363.521844 -270.305726 506.519322
248 20 3 0.000000 -357.621844 -270.305726 506.519322
249 20 3 0.000000 -351.721844 -270.305726 506.519322
250 20 4 0.000000 -345.821844 -270.305726 506.519322
251 20 3 0.000000 -339.921844 -270.305726 506.519322
252 20 4 0.000000 -334.021844 -270.305726 506.519322
253 20 1 0.000000 -328.121844 -270.305726 506.519322
254 20 1 0.000000 -322.221844 -270.305726 506.519322
255 20 3 0.000000 -316.321844 -270.305726 506.519322
256 20 1 0.000000 -310.421844 -270.305726 506.519322
257 21 2 0.000000 145.171047 126.591967 -381.479168
258 21 3 0.000000 151.071047 126.591967 -381.479168
259 21 3 0.000000 156.971047 126.591967 -381.479168
260 21 4 0.000000 162.871047 126.591967 -381.479168
261 21 3 0.000000 168.771047 126.591967 -381.479168
262 21 4 0.000000 174.671047 126.591967 -381.479168
263 21 1 0.000000 180.571047 126.591967 -381.479168
264 21 1 0.000000 186.471047 126.591967 -381.479168
265 21 3 0.000000 192.371047 126.591967 -381.479168
266 21 1 0.000000 198.271047 126.591967 -381.479168
267 22 2 0.000000 239.237086 -390.453107 -139.831688
268 22 3 0.000000 245.137086 -390.453107 -139.831688
269 22 3 0.000000 251.037086 -390.453107 -139.831688
270 22 4 0.000000 256.937086 -390.453107 -139.831688
271 22 3 0.000000 262.837086 -390.453107 -139.831688
272 22 4 0.000000 268.737086 -390.453107 -139.831688
273 22 1 0.000000 274.637086 -390.453107 -139.831688
274 22 1 0.000000 280.537086 -390.453107 -139.831688
275 22 3 0.000000 286.437086 -390.453107 -139.831688
276 22 1 0.000000 292.337086 -390.453107 -139.831688
277 23 2 0.000000 541.297087 162.399721 66.061703
278 23 3 0.000000 547.197087 162.399721 66.061703
279 23 3 0.000000 553.097087 162.399721 66.061703
280 23 4 0.000000 558.997087 162.399721 66.061703
281 23 3 0.000000 564.897087 162.399721 66.061703
282 23 4 0.000000 570.797087 162.399721 66.061703
283 23 1 0.000000 576.697087 162.399721 66.061703
284 23 1 0.000000 582.597087 162.399721 66.061703
285 23 3 0.000000 588.497087 162.399721 66.061703
286 23 1 0.000000 594.397087 162.399721 66.061703
287 24 2 0.000000 187.602531 397.708227 320.159897
288 24 3 0.000000 193.502531 397.708227 320.159897
289 24 3 0.000000 199.402531 397.708227 320.159897
290 24 4 0.000000 205.302531 397.708227 320.159897
291 24 3 0.000000 211.202531 397.708227 320.159897
292 24 4 0.000000 217.102531 397.708227 320.159897
293 24 1 0.000000 223.002531 397.708227 320.159897
294 24 1 0.000000 228.902531 397.708227 320.159897
295 24 3 0.000000 234.802531 397.708227 320.159897
296 24 1 0.000000 240.702531 397.708227 320.159897
297 25 2 0.000000 -340.854237 -542.763717 -214.074464
298 25 3 0.000000 -334.954237 -542.763717 -214.074464
299 25 3 0.000000 -329.054237 -542.763717 -214.074464
300 25 4 0.000000 -323.154237 -542.763717 -214.074464
301 25 3 0.000000 -317.254237 -542.763717 -214.074464
302 25 4 0.000000 -311.354237 -542.763717 -214.074464
303 25 1 0.000000 -305.454237 -542.763717 -214.074464
304 25 1 0.000000 -299.554237 -542.763717 -214.074464
305 25 3 0.000000 -293.654237 -542.763717 -214.074464
306 25 1 0.000000 -287.754237 -542.763717 -214.074464
307 26 2 0.000000 -295.970584 -335.259901 513.775269
308 26 3 0.000000 -290.070584 -335.259901 513.775269
309 26 3 0.000000 -284.170584 -335.259901 513.775269
310 26 4 0.000000 -278.270584 -335.259901 513.775269
311 26 3 0.000000 -272.370584 -335.259901 513.775269
312 26 4 0.000000 -266.470584 -335.259901 513.775269
313 26 1 0.000000 -260.570584 -335.259901 513.775269
314 26 1 0.000000 -254.670584 -335.259901 513.775269
315 26 3 0.000000 -248.770584 -335.259901 513.775269
316 26 1 0.000000 -242.870584 -335.259901 513.775269
317 27 2 0.000000 410.036447 -214.973658 180.308852
318 27 3 0.000000 415.936447 -214.973658 180.308852
319 27 3 0.000000 421.836447 -214.973658 180.308852
320 27 4 0.000000 427.736447 -214.973658 180.308852
321 27 3 0.000000 433.636447 -214.973658 180.308852
322 27 4 0.000000 439.536447 -214.973658 180.308852
323 27 1 0.000000 445.436447 -214.973658 180.308852
324 27 1 0.000000 451.336447 -214.973658 180.308852
325 27 3 0.000000 457.236447 -214.973658 180.308852
326 27 1 0.000000 463.136447 -214.973658 180.308852
327 28 2 0.000000 -147.616995 480.875204 -47.731851
328 28 3 0.000000 -141.716995 480.875204 -47.731851
329 28 3 0.000000 -135.816995 480.875204 -47.731851
330 28 4 0.000000 -129.916995 480.875204 -47.731851
331 28 3 0.000000 -124.016995 480.875204 -47.731851
332 28 4 0.000000 -118.116995 480.875204 -47.731851
333 28 1 0.000000 -112.216995 480.875204 -47.731851
334 28 1 0.000000 -106.316995 480.875204 -47.731851
335 28 3 0.000000 -100.416995 480.875204 -47.731851
336 28 1 0.000000 -94.516995 480.875204 -47.731851
337 29 2 0.000000 -299.289007 -293.912091 71.187036
338 29 3 0.000000 -293.389007 -293.912091 71.187036
339 29 3 0.000000 -287.489007 -293.912091 71.187036
340 29 4 0.000000 -281.589007 -293.912091 71.187036
341 29 3 0.000000 -275.689007 -293.912091 71.187036
342 29 4 0.000000 -269.789007 -293.912091 71.187036
343 29 1 0.000000 -263.889007 -293.912091 71.187036
344 29 1 0.000000 -257.989007 -293.912091 71.187036
345 29 3 0.000000 -252.089007 -293.912091 71.187036
346 29 1 0.000000 -246.189007 -293.912091 71.187036
347 30 2 0.000000 -301.769734 98.119749 461.474545
348 30 3 0.000000 -295.869734 98.119749 461.474545
349 30 3 0.000000 -289.969734 98.119749 461.474545
350 30 4 0.000000 -284.069734 98.119749 461.474545
351 30 3 0.000000 -278.169734 98.119749 461.474545
352 30 4 0.000000 -272.269734 98.119749 461.474545
353 30 1 0.000000 -266.369734 98.119749 461.474545
354 30 1 0.000000 -260.469734 98.119749 461.474545
355 30 3 0.000000 -254.569734 98.119749 461.474545
356 30 1 0.000000 -248.669734 98.119749 461.474545
357 31 2 0.000000 -143.245414 -325.587919 577.143624
358 31 3 0.000000 -137.345414 -325.587919 577.143624
359 31 3 0.000000 -131.445414 -325.587919 577.143624
360 31 4 0.000000 -125.545414 -325.587919 577.143624
361 31 3 0.000000 -119.645414 -325.587919 577.143624
362 31 4 0.000000 -113.745414 -325.587919 577.143624
363 31 1 0.000000 -107.845414 -325.587919 577.143624
364 31 1 0.000000 -101.945414 -325.587919 577.143624
365 31 3 0.000000 -96.045414 -325.587919 577.143624
366 31 1 0.000000 -90.145414 -325.587919 577.143624
367 32 2 0.000000 -15.499499 -474.545082 -525.345005
368 32 3 0.000000 -9.599499 -474.545082 -525.345005
369 32 3 0.000000 -3.699499 -474.545082 -525.345005
370 32 4 0.000000 2.200501 -474.545082 -525.345005
371 32 3 0.000000 8.100501 -474.545082 -525.345005
372 32 4 0.000000 14.000501 -474.545082 -525.345005
373 32 1 0.000000 19.900501 -474.545082 -525.345005
374 32 1 0.000000 25.800501 -474.545082 -525.345005
375 32 3 0.000000 31.700501 -474.545082 -525.345005
376 32 1 0.000000 37.600501 -474.545082 -525.345005
377 33 2 0.000000 -479.357009 147.837408 338.812063
378 33 3 0.000000 -473.457009 147.837408 338.812063
379 33 3 0.000000 -467.557009 147.837408 338.812063
380 33 4 0.000000 -461.657009 147.837408 338.812063
381 33 3 0.000000 -455.757009 147.837408 338.812063
382 33 4 0.000000 -449.857009 147.837408 338.812063
383 33 1 0.000000 -443.957009 147.837408 338.812063
384 33 1 0.000000 -438.057009 147.837408 338.812063
385 33 3 0.000000 -432.157009 147.837408 338.812063
386 33 1 0.000000 -426.257009 147.837408 338.812063
387 34 2 0.000000 -116.844439 -506.307861 -137.321628
388 34 3 0.000000 -110.944439 -506.307861 -137.321628
389 34 3 0.000000 -105.044439 -506.307861 -137.321628
390 34 4 0.000000 -99.144439 -506.307861 -137.321628
391 34 3 0.000000 -93.244439 -506.307861 -137.321628
392 34 4 0.000000 -87.344439 -506.307861 -137.321628
393 34 1 0.000000 -81.444439 -506.307861 -137.321628
394 34 1 0.000000 -75.544439 -506.307861 -137.321628
395 34 3 0.000000 -69.644439 -506.307861 -137.321628
396 34 1 0.000000 -63.744439 -506.307861 -137.321628
397 35 2 0.000000 548.950801 33.772640 546.450918
398 35 3 0.000000 554.850801 33.772640 546.450918
399 35 3 0.000000 560.750801 33.772640 546.450918
400 35 4 0.000000 566.650801 33.772640 546.450918
401 35 3 0.000000 572.550801 33.772640 546.450918
402 35 4 0.000000 578.450801 33.772640 546.450918
403 35 1 0.000000 584.350801 33.772640 546.450918
404 35 1 0.000000 590.250801 33.772640 546.450918
405 35 3 0.000000 596.150801 33.772640 546.450918
406 35 1 0.000000 602.050801 33.772640 546.450918
407 36 2 0.000000 391.954455 -566.682015 256.037310
408 36 3 0.000000 397.854455 -566.682015 256.037310
409 36 3 0.000000 403.754455 -566.682015 256.037310
410 36 4 0.000000 409.654455 -566.682015 256.037310
411 36 3 0.000000 415.554455 -566.682015 256.037310
412 36 4 0.000000 421.454455 -566.682015 256.037310
413 36 1 0.000000 427.354455 -566.682015 256.037310
414 36 1 0.000000 433.254455 -566.682015 256.037310
415 36 3 0.000000 439.154455 -566.682015 256.037310
416 36 1 0.000000 445.054455 -566.682015 256.037310
417 37 2 0.000000 184.234028 42.885583 -270.482780
418 37 3 0.000000 190.134028 42.885583 -270.482780
419 37 3 0.000000 196.034028 42.885583 -270.482780
420 37 4 0.000000 201.934028 42.885583 -270.482780
421 37 3 0.000000 207.834028 42.885583 -270.482780
422 37 4 0.000000 213.734028 42.885583 -270.482780
423 37 1 0.000000 219.634028 42.885583 -270.482780
424 37 1 0.000000 225.534028 42.885583 -270.482780
425 37 3 0.000000 231.434028 42.885583 -270.482780
426 37 1 0.000000 237.334028 42.885583 -270.482780
427 38 2 0.000000 136.965686 -450.599479 -75.672309
428 38 3 0.000000 142.865686 -450.599479 -75.672309
429 38 3 0.000000 148.765686 -450.599479 -75.672309
430 38 4 0.000000 154.665686 -450.599479 -75.672309
431 38 3 0.000000 160.565686 -450.599479 -75.672309
432 38 4 0.000000 166.465686 -450.599479 -75.672309
433 38 1 0.000000 172.365686 -450.599479 -75.672309
434 38 1 0.000000 178.265686 -450.599479 -75.672309
435 38 3 0.000000 184.165686 -450.599479 -75.672309
436 38 1 0.000000 190.065686 -450.599479 -75.672309
437 39 2 0.000000 -80.230501 526.426476 435.989411
438 39 3 0.000000 -74.330501 526.426476 435.989411
439 39 3 0.000000 -68.430501 526.426476 435.989411
440 39 4 0.000000 -62.530501 526.426476 435.989411
441 39 3 0.000000 -56.630501 526.426476 435.989411
442 39 4 0.000000 -50.730501 526.426476 435.989411
443 39 1 0.000000 -44.830501 526.426476 435.989411
444 39 1 0.000000 -38.930501 526.426476 435.989411
445 39 3 0.000000 -33.030501 526.426476 435.989411
446 39 1 0.000000 -27.130501 526.426476 435.989411
447 40 2 0.000000 -301.018701 0.679891 -372.763819
448 40 3 0.000000 -295.118701 0.679891 -372.763819
449 40 3 0.000000 -289.218701 0.679891 -372.763819
450 40 4 0.000000 -283.318701 0.679891 -372.763819
451 40 3 0.000000 -277.418701 0.679891 -372.763819
452 40 4 0.000000 -271.518701 0.679891 -372.763819
453 40 1 0.000000 -265.618701 0.679891 -372.763819
454 40 1 0.000000 -259.718701 0.679891 -372.763819
455 40 3 0.000000 -253.818701 0.679891 -372.763819
456 40 1 0.000000 -247.918701 0.679891 -372.763819
457 41 2 0.000000 452.098294 429.801541 -233.804042
458 41 3 0.000000 457.998294 429.801541 -233.804042
459 41 3 0.000000 463.898294 429.801541 -233.804042
460 41 4 0.000000 469.798294 429.801541 -233.804042
461 41 3 0.000000 475.698294 429.801541 -233.804042
462 41 4 0.000000 481.598294 429.801541 -233.804042
463 41 1 0.000000 487.498294 429.801541 -233.804042
464 41 1 0.000000 493.398294 429.801541 -233.804042
465 41 3 0.000000 499.298294 429.801541 -233.804042
466 41 1 0.000000 505.198294 429.801541 -233.804042
467 42 2 0.000000 134.631414 126.405445 -402.706448
468 42 3 0.000000 140.531414 126.405445 -402.706448
469 42 3 0.000000 146.431414 126.405445 -402.706448
470 42 4 0.000000 152.331414 126.405445 -402.706448
471 42 3 0.000000 158.231414 126.405445 -402.706448
472 42 4 0.000000 164.131414 126.405445 -402.706448
473 42 1 0.000000 170.031414 126.405445 -402.706448
474 42 1 0.000000 175.931414 126.405445 -402.706448
475 42 3 0.000000 181.831414 126.405445 -402.706448
476 42 1 0.000000 187.731414 126.405445 -402.706448
477 43 2 0.000000 277.962528 45.679675 323.206715
478 43 3 0.000000 283.862528 45.679675 323.206715
479 43 3 0.000000 289.762528 45.679675 323.206715
480 43 4 0.000000 295.662528 45.679675 323.206715
481 43 3 0.000000 301.562528 45.679675 323.206715
482 43 4 0.000000 307.462528 45.679675 323.206715
483 43 1 0.000000 313.362528 45.679675 323.206715
484 43 1 0.000000 319.262528 45.679675 323.206715
485 43 3 0.000000 325.162528 45.679675 323.206715
486 43 1 0.000000 331.062528 45.679675 323.206715
487 44 2 0.000000 8.660260 -579.336600 -203.978974
488 44 3 0.000000 14.560260 -579.336600 -203.978974
489 44 3 0.000000 20.460260 -579.336600 -203.978974
490 44 4 0.000000 26.360260 -579.336600 -203.978974
491 44 3 0.000000 32.260260 -579.336600 -203.978974
492 44 4 0.000000 38.160260 -579.336600 -203.978974
493 44 1 0.000000 44.060260 -579.336600 -203.978974
494 44 1 0.000000 49.960260 -579.336600 -203.978974
495 44 3 0.000000 55.860260 -579.336600 -203.978974
496 44 1 0.000000 61.760260 -579.336600 -203.978974
497 45 2 0.000000 -583.956979 497.754395 439.317378
498 45 3 0.000000 -578.056979 497.754395 439.317378
499 45 3 0.000000 -572.156979 497.754395 439.317378
500 45 4 0.000000 -566.256979 497.754395 439.317378
501 45 3 0.000000 -560.356979 497.754395 439.317378
502 45 4 0.000000 -554.456979 497.754395 439.317378
503 45 1 0.000000 -548.556979 497.754395 439.317378
504 45 1 0.000000 -542.656979 497.754395 439.317378
505 45 3 0.000000 -536.756979 497.754395 439.317378
506 45 1 0.000000 -530.856979 497.754395 439.317378
507 46 2 0.000000 358.182014 -223.283615 -512.806807
508 46 3 0.000000 364.082014 -223.283615 -512.806807
509 46 3 0.000000 369.982014 -223.283615 -512.806807
510 46 4 0.000000 375.882014 -223.283615 -512.806807
511 46 3 0.000000 381.782014 -223.283615 -512.806807
512 46 4 0.000000 387.682014 -223.283615 -512.806807
513 46 1 0.000000 393.582014 -223.283615 -512.806807
514 46 1 0.000000 399.482014 -223.283615 -512.806807
515 46 3 0.000000 405.382014 -223.283615 -512.806807
516 46 1 0.000000 411.282014 -223.283615 -512.806807
517 47 2 0.000000 411.941135 518.461357 -480.641996
518 47 3 0.000000 417.841135 518.461357 -480.641996
519 47 3 0.000000 423.741135 518.461357 -480.641996
520 47 4 0.000000 429.641135 518.461357 -480.641996
521 47 3 0.000000 435.541135 518.461357 -480.641996
522 47 4 0.000000 441.441135 518.461357 -480.641996
523 47 1 0.000000 447.341135 518.461357 -480.641996
524 47 1 0.000000 453.241135 518.461357 -480.641996
525 47 3 0.000000 459.141135 518.461357 -480.641996
526 47 1 0.000000 465.041135 518.461357 -480.641996
527 48 2 0.000000 -42.801063 -499.713479 302.298512
528 48 3 0.000000 -36.901063 -499.713479 302.298512
529 48 3 0.000000 -31.001063 -499.713479 302.298512
530 48 4 0.000000 -25.101063 -499.713479 302.298512
531 48 3 0.000000 -19.201063 -499.713479 302.298512
532 48 4 0.000000 -13.301063 -499.713479 302.298512
533 48 1 0.000000 -7.401063 -499.713479 302.298512
534 48 1 0.000000 -1.501063 -499.713479 302.298512
535 48 3 0.000000 4.398937 -499.713479 302.298512
536 48 1 0.000000 10.298937 -499.713479 302.298512
537 49 2 0.000000 281.817938 -431.065901 -28.672441
538 49 3 0.000000 287.717938 -431.065901 -28.672441
539 49 3 0.000000 293.617938 -431.065901 -28.672441
540 49 4 0.000000 299.517938 -431.065901 -28.672441
541 49 3 0.000000 305.417938 -431.065901 -28.672441
542 49 4 0.000000 311.317938 -431.065901 -28.672441
543 49 1 0.000000 317.217938 -431.065901 -28.672441
544 49 1 0.000000 323.117938 -431.065901 -28.672441
545 49 3 0.000000 329.017938 -431.065901 -28.672441
546 49 1 0.000000 334.917938 -431.065901 -28.672441
547 50 2 0.000000 31.222168 -272.534310 432.022328
548 50 3 0.000000 37.122168 -272.534310 432.022328
549 50 3 0.000000 43.022168 -272.534310 432.022328
550 50 4 0.000000 48.922168 -272.534310 432.022328
551 50 3 0.000000 54.822168 -272.534310 432.022328
552 50 4 0.000000 60.722168 -272.534310 432.022328
553 50 1 0.000000 66.622168 -272.534310 432.022328
554 50 1 0.000000 72.522168 -272.534310 432.022328
555 50 3 0.000000 78.422168 -272.534310 432.022328
556 50 1 0.000000 84.322168 -272.534310 432.022328
557 51 2 0.000000 -115.709989 -334.314082 45.583463
558 51 3 0.000000 -109.809989 -334.314082 45.583463
559 51 3 0.000000 -103.909989 -334.314082 45.583463
560 51 4 0.000000 -98.009989 -334.314082 45.583463
561 51 3 0.000000 -92.109989 -334.314082 45.583463
562 51 4 0.000000 -86.209989 -334.314082 45.583463
563 51 1 0.000000 -80.309989 -334.314082 45.583463
564 51 1 0.000000 -74.409989 -334.314082 45.583463
565 51 3 0.000000 -68.509989 -334.314082 45.583463
566 51 1 0.000000 -62.609989 -334.314082 45.583463
567 52 2 0.000000 240.170040 -346.664766 -218.409102
568 52 3 0.000000 246.070040 -346.664766 -218.409102
569 52 3 0.000000 251.970040 -346.664766 -218.409102
570 52 4 0.000000 257.870040 -346.664766 -218.409102
571 52 3 0.000000 263.770040 -346.664766 -218.409102
572 52 4 0.000000 269.670040 -346.664766 -218.409102
573 52 1 0.000000 275.570040 -346.664766 -218.409102
574 52 1 0.000000 281.470040 -346.664766 -218.409102
575 52 3 0.000000 287.370040 -346.664766 -218.409102
576 52 1 0.000000 293.270040 -346.664766 -218.409102
577 53 2 0.000000 547.823254 173.858547 -71.803903
578 53 3 0.000000 553.723254 173.858547 -71.803903
579 53 3 0.000000 559.623254 173.858547 -71.803903
580 53 4 0.000000 565.523254 173.858547 -71.803903
581 53 3 0.000000 571.423254 173.858547 -71.803903
582 53 4 0.000000 577.323254 173.858547 -71.803903