LAMMPS data file — Week 13 combined RNA+ASO | target=7LYJ | aso=CGGUGUAAGA | n_aso=200 | box=±470.0

2066 atoms
1865 bonds
1664 angles

4 atom types
1 bond types
1 angle types

-470.000000  470.000000  xlo xhi
-470.000000  470.000000  ylo yhi
-470.000000  470.000000  zlo zhi

Masses

1 329.20
2 305.20
3 345.20
4 306.20

Atoms

1 1 2 0.000000 20.000000 0.000000 0.000000
2 1 3 0.000000 25.900000 0.000000 0.000000
3 1 3 0.000000 31.800000 0.000000 0.000000
4 1 4 0.000000 37.700000 0.000000 0.000000
5 1 3 0.000000 43.600000 0.000000 0.000000
6 1 4 0.000000 49.500000 0.000000 0.000000
7 1 1 0.000000 55.400000 0.000000 0.000000
8 1 1 0.000000 61.300000 0.000000 0.000000
9 1 3 0.000000 67.200000 0.000000 0.000000
10 1 1 0.000000 73.100000 0.000000 0.000000
11 2 2 0.000000 2.035273 -1.454939 -5.263727
12 2 3 0.000000 -0.766727 -6.502939 -4.423727
13 2 3 0.000000 -5.322727 -9.458939 -2.332727
14 2 4 0.000000 -10.686727 -9.262939 -0.255727
15 2 3 0.000000 -15.665727 -6.447939 0.528273
16 2 4 0.000000 -19.019727 -1.928939 -0.557727
17 2 1 0.000000 -20.236727 2.554061 -3.887727
18 2 1 0.000000 -19.405727 5.849061 -8.575727
19 2 3 0.000000 -17.035727 6.677061 -13.786727
20 2 4 0.000000 -13.810727 7.693061 -18.960727
21 2 3 0.000000 -13.521727 5.320061 -24.051727
22 2 2 0.000000 -18.390727 4.604061 -27.166727
23 2 1 0.000000 -22.751727 7.610061 -27.785727
24 2 3 0.000000 -25.251727 5.661061 -23.033727
25 2 2 0.000000 -25.745727 1.848061 -18.688727
26 2 2 0.000000 -24.206727 -3.020939 -15.814727
27 2 2 0.000000 -20.286727 -6.736939 -13.593727
28 2 3 0.000000 -14.834727 -6.812939 -12.274727
29 2 4 0.000000 -8.925727 -7.221939 -11.874727
30 2 2 0.000000 -6.745727 -2.241939 -13.668727
31 2 4 0.000000 -6.538727 3.008061 -11.259727
32 2 4 0.000000 -7.523727 6.594061 -6.898727
33 2 1 0.000000 -9.390727 7.820061 -1.549727
34 2 2 0.000000 -10.140727 5.948061 3.775273
35 2 1 0.000000 -9.804727 1.844061 7.813273
36 2 2 0.000000 -7.241727 -3.010939 9.473273
37 2 2 0.000000 -2.778727 -6.626939 8.991273
38 2 3 0.000000 2.464273 -7.569939 6.688273
39 2 4 0.000000 7.381273 -6.270939 3.771273
40 2 3 0.000000 11.599273 -2.655939 2.100273
41 2 2 0.000000 13.877273 2.429061 3.110273
42 2 3 0.000000 14.500273 6.997061 6.554273
43 2 3 0.000000 13.887273 9.351061 11.861273
44 2 2 0.000000 13.523273 8.204061 17.492273
45 2 1 0.000000 13.130273 4.623061 22.042273
46 2 2 0.000000 14.430273 -0.441939 24.179273
47 2 1 0.000000 17.276273 -5.486939 23.807273
48 2 3 0.000000 22.093273 -8.256939 22.139273
49 2 2 0.000000 27.474273 -7.575939 20.369273
50 2 3 0.000000 31.969273 -4.069939 19.780273
51 2 3 0.000000 34.498273 0.513061 22.126273
52 2 1 0.000000 33.791273 3.040061 26.728273
53 2 1 0.000000 29.810273 7.000061 25.579273
54 2 1 0.000000 26.899273 10.524061 22.081273
55 2 2 0.000000 25.405273 7.851061 17.130273
56 2 3 0.000000 25.814273 3.866061 12.902273
57 2 2 0.000000 24.186273 -1.092939 10.458273
58 2 4 0.000000 20.341273 -5.274939 10.305273
59 2 3 0.000000 15.309273 -7.991939 11.820273
60 2 1 0.000000 10.426273 -10.435939 13.459273
61 2 4 0.000000 7.382273 -6.375939 16.757273
62 2 3 0.000000 3.976273 -1.856939 18.047273
63 2 4 0.000000 2.429273 3.736061 15.827273
64 2 2 0.000000 2.390273 8.217061 12.228273
65 2 3 0.000000 2.786273 9.779061 6.734273
66 2 4 0.000000 3.549273 8.281061 1.271273
67 2 1 0.000000 3.573273 5.537061 -4.116727
68 2 4 0.000000 0.140273 6.240061 -8.650727
69 2 1 0.000000 -2.881727 6.096061 -14.228727
70 2 2 0.000000 -6.216727 2.494061 -18.233727
71 2 1 0.000000 -7.540727 -3.007939 -21.438727
72 2 3 0.000000 -10.077727 -7.610939 -22.929727
73 2 3 0.000000 -15.905727 -9.772939 -23.759727
74 2 3 0.000000 -21.609727 -9.830939 -24.399727
75 2 2 0.000000 -26.818727 -7.906939 -26.148727
76 2 4 0.000000 -31.268727 -3.593939 -28.320727
77 3 2 0.000000 101.722655 -436.990105 -206.973027
78 3 3 0.000000 107.622655 -436.990105 -206.973027
79 3 3 0.000000 113.522655 -436.990105 -206.973027
80 3 4 0.000000 119.422655 -436.990105 -206.973027
81 3 3 0.000000 125.322655 -436.990105 -206.973027
82 3 4 0.000000 131.222655 -436.990105 -206.973027
83 3 1 0.000000 137.122655 -436.990105 -206.973027
84 3 1 0.000000 143.022655 -436.990105 -206.973027
85 3 3 0.000000 148.922655 -436.990105 -206.973027
86 3 1 0.000000 154.822655 -436.990105 -206.973027
87 4 2 0.000000 -281.196121 217.553517 162.563528
88 4 3 0.000000 -275.296121 217.553517 162.563528
89 4 3 0.000000 -269.396121 217.553517 162.563528
90 4 4 0.000000 -263.496121 217.553517 162.563528
91 4 3 0.000000 -257.596121 217.553517 162.563528
92 4 4 0.000000 -251.696121 217.553517 162.563528
93 4 1 0.000000 -245.796121 217.553517 162.563528
94 4 1 0.000000 -239.896121 217.553517 162.563528
95 4 3 0.000000 -233.996121 217.553517 162.563528
96 4 1 0.000000 -228.096121 217.553517 162.563528
97 5 2 0.000000 334.255202 -380.016274 -71.831926
98 5 3 0.000000 340.155202 -380.016274 -71.831926
99 5 3 0.000000 346.055202 -380.016274 -71.831926
100 5 4 0.000000 351.955202 -380.016274 -71.831926
101 5 3 0.000000 357.855202 -380.016274 -71.831926
102 5 4 0.000000 363.755202 -380.016274 -71.831926
103 5 1 0.000000 369.655202 -380.016274 -71.831926
104 5 1 0.000000 375.555202 -380.016274 -71.831926
105 5 3 0.000000 381.455202 -380.016274 -71.831926
106 5 1 0.000000 387.355202 -380.016274 -71.831926
107 6 2 0.000000 -459.136558 -258.853063 4.926865
108 6 3 0.000000 -453.236558 -258.853063 4.926865
109 6 3 0.000000 -447.336558 -258.853063 4.926865
110 6 4 0.000000 -441.436558 -258.853063 4.926865
111 6 3 0.000000 -435.536558 -258.853063 4.926865
112 6 4 0.000000 -429.636558 -258.853063 4.926865
113 6 1 0.000000 -423.736558 -258.853063 4.926865
114 6 1 0.000000 -417.836558 -258.853063 4.926865
115 6 3 0.000000 -411.936558 -258.853063 4.926865
116 6 1 0.000000 -406.036558 -258.853063 4.926865
117 7 2 0.000000 -462.136908 -277.069361 137.893683
118 7 3 0.000000 -456.236908 -277.069361 137.893683
119 7 3 0.000000 -450.336908 -277.069361 137.893683
120 7 4 0.000000 -444.436908 -277.069361 137.893683
121 7 3 0.000000 -438.536908 -277.069361 137.893683
122 7 4 0.000000 -432.636908 -277.069361 137.893683
123 7 1 0.000000 -426.736908 -277.069361 137.893683
124 7 1 0.000000 -420.836908 -277.069361 137.893683
125 7 3 0.000000 -414.936908 -277.069361 137.893683
126 7 1 0.000000 -409.036908 -277.069361 137.893683
127 8 2 0.000000 14.796162 -257.194628 82.124429
128 8 3 0.000000 20.696162 -257.194628 82.124429
129 8 3 0.000000 26.596162 -257.194628 82.124429
130 8 4 0.000000 32.496162 -257.194628 82.124429
131 8 3 0.000000 38.396162 -257.194628 82.124429
132 8 4 0.000000 44.296162 -257.194628 82.124429
133 8 1 0.000000 50.196162 -257.194628 82.124429
134 8 1 0.000000 56.096162 -257.194628 82.124429
135 8 3 0.000000 61.996162 -257.194628 82.124429
136 8 1 0.000000 67.896162 -257.194628 82.124429
137 9 2 0.000000 258.126020 -454.021141 281.353712
138 9 3 0.000000 264.026020 -454.021141 281.353712
139 9 3 0.000000 269.926020 -454.021141 281.353712
140 9 4 0.000000 275.826020 -454.021141 281.353712
141 9 3 0.000000 281.726020 -454.021141 281.353712
142 9 4 0.000000 287.626020 -454.021141 281.353712
143 9 1 0.000000 293.526020 -454.021141 281.353712
144 9 1 0.000000 299.426020 -454.021141 281.353712
145 9 3 0.000000 305.326020 -454.021141 281.353712
146 9 1 0.000000 311.226020 -454.021141 281.353712
147 10 2 0.000000 155.738243 -146.969525 -316.958860
148 10 3 0.000000 161.638243 -146.969525 -316.958860
149 10 3 0.000000 167.538243 -146.969525 -316.958860
150 10 4 0.000000 173.438243 -146.969525 -316.958860
151 10 3 0.000000 179.338243 -146.969525 -316.958860
152 10 4 0.000000 185.238243 -146.969525 -316.958860
153 10 1 0.000000 191.138243 -146.969525 -316.958860
154 10 1 0.000000 197.038243 -146.969525 -316.958860
155 10 3 0.000000 202.938243 -146.969525 -316.958860
156 10 1 0.000000 208.838243 -146.969525 -316.958860
157 11 2 0.000000 394.086026 -150.333018 -374.673824
158 11 3 0.000000 399.986026 -150.333018 -374.673824
159 11 3 0.000000 405.886026 -150.333018 -374.673824
160 11 4 0.000000 411.786026 -150.333018 -374.673824
161 11 3 0.000000 417.686026 -150.333018 -374.673824
162 11 4 0.000000 423.586026 -150.333018 -374.673824
163 11 1 0.000000 429.486026 -150.333018 -374.673824
164 11 1 0.000000 435.386026 -150.333018 -374.673824
165 11 3 0.000000 441.286026 -150.333018 -374.673824
166 11 1 0.000000 447.186026 -150.333018 -374.673824
167 12 2 0.000000 -397.570933 319.694817 95.427949
168 12 3 0.000000 -391.670933 319.694817 95.427949
169 12 3 0.000000 -385.770933 319.694817 95.427949
170 12 4 0.000000 -379.870933 319.694817 95.427949
171 12 3 0.000000 -373.970933 319.694817 95.427949
172 12 4 0.000000 -368.070933 319.694817 95.427949
173 12 1 0.000000 -362.170933 319.694817 95.427949
174 12 1 0.000000 -356.270933 319.694817 95.427949
175 12 3 0.000000 -350.370933 319.694817 95.427949
176 12 1 0.000000 -344.470933 319.694817 95.427949
177 13 2 0.000000 256.008011 211.353244 33.329844
178 13 3 0.000000 261.908011 211.353244 33.329844
179 13 3 0.000000 267.808011 211.353244 33.329844
180 13 4 0.000000 273.708011 211.353244 33.329844
181 13 3 0.000000 279.608011 211.353244 33.329844
182 13 4 0.000000 285.508011 211.353244 33.329844
183 13 1 0.000000 291.408011 211.353244 33.329844
184 13 1 0.000000 297.308011 211.353244 33.329844
185 13 3 0.000000 303.208011 211.353244 33.329844
186 13 1 0.000000 309.108011 211.353244 33.329844
187 14 2 0.000000 408.716503 -111.748373 47.877381
188 14 3 0.000000 414.616503 -111.748373 47.877381
189 14 3 0.000000 420.516503 -111.748373 47.877381
190 14 4 0.000000 426.416503 -111.748373 47.877381
191 14 3 0.000000 432.316503 -111.748373 47.877381
192 14 4 0.000000 438.216503 -111.748373 47.877381
193 14 1 0.000000 444.116503 -111.748373 47.877381
194 14 1 0.000000 450.016503 -111.748373 47.877381
195 14 3 0.000000 455.916503 -111.748373 47.877381
196 14 1 0.000000 461.816503 -111.748373 47.877381
197 15 2 0.000000 276.502291 109.038172 332.770348
198 15 3 0.000000 282.402291 109.038172 332.770348
199 15 3 0.000000 288.302291 109.038172 332.770348
200 15 4 0.000000 294.202291 109.038172 332.770348
201 15 3 0.000000 300.102291 109.038172 332.770348
202 15 4 0.000000 306.002291 109.038172 332.770348
203 15 1 0.000000 311.902291 109.038172 332.770348
204 15 1 0.000000 317.802291 109.038172 332.770348
205 15 3 0.000000 323.702291 109.038172 332.770348
206 15 1 0.000000 329.602291 109.038172 332.770348
207 16 2 0.000000 44.613974 188.206089 -417.841567
208 16 3 0.000000 50.513974 188.206089 -417.841567
209 16 3 0.000000 56.413974 188.206089 -417.841567
210 16 4 0.000000 62.313974 188.206089 -417.841567
211 16 3 0.000000 68.213974 188.206089 -417.841567
212 16 4 0.000000 74.113974 188.206089 -417.841567
213 16 1 0.000000 80.013974 188.206089 -417.841567
214 16 1 0.000000 85.913974 188.206089 -417.841567
215 16 3 0.000000 91.813974 188.206089 -417.841567
216 16 1 0.000000 97.713974 188.206089 -417.841567
217 17 2 0.000000 -276.883586 -193.763073 -386.591381
218 17 3 0.000000 -270.983586 -193.763073 -386.591381
219 17 3 0.000000 -265.083586 -193.763073 -386.591381
220 17 4 0.000000 -259.183586 -193.763073 -386.591381
221 17 3 0.000000 -253.283586 -193.763073 -386.591381
222 17 4 0.000000 -247.383586 -193.763073 -386.591381
223 17 1 0.000000 -241.483586 -193.763073 -386.591381
224 17 1 0.000000 -235.583586 -193.763073 -386.591381
225 17 3 0.000000 -229.683586 -193.763073 -386.591381
226 17 1 0.000000 -223.783586 -193.763073 -386.591381
227 18 2 0.000000 -272.382385 -367.078685 -204.264285
228 18 3 0.000000 -266.482385 -367.078685 -204.264285
229 18 3 0.000000 -260.582385 -367.078685 -204.264285
230 18 4 0.000000 -254.682385 -367.078685 -204.264285
231 18 3 0.000000 -248.782385 -367.078685 -204.264285
232 18 4 0.000000 -242.882385 -367.078685 -204.264285
233 18 1 0.000000 -236.982385 -367.078685 -204.264285
234 18 1 0.000000 -231.082385 -367.078685 -204.264285
235 18 3 0.000000 -225.182385 -367.078685 -204.264285
236 18 1 0.000000 -219.282385 -367.078685 -204.264285
237 19 2 0.000000 98.279689 -124.354395 -119.433510
238 19 3 0.000000 104.179689 -124.354395 -119.433510
239 19 3 0.000000 110.079689 -124.354395 -119.433510
240 19 4 0.000000 115.979689 -124.354395 -119.433510
241 19 3 0.000000 121.879689 -124.354395 -119.433510
242 19 4 0.000000 127.779689 -124.354395 -119.433510
243 19 1 0.000000 133.679689 -124.354395 -119.433510
244 19 1 0.000000 139.579689 -124.354395 -119.433510
245 19 3 0.000000 145.479689 -124.354395 -119.433510
246 19 1 0.000000 151.379689 -124.354395 -119.433510
247 20 2 0.000000 -293.803532 -214.380404 401.722221
248 20 3 0.000000 -287.903532 -214.380404 401.722221
249 20 3 0.000000 -282.003532 -214.380404 401.722221
250 20 4 0.000000 -276.103532 -214.380404 401.722221
251 20 3 0.000000 -270.203532 -214.380404 401.722221
252 20 4 0.000000 -264.303532 -214.380404 401.722221
253 20 1 0.000000 -258.403532 -214.380404 401.722221
254 20 1 0.000000 -252.503532 -214.380404 401.722221
255 20 3 0.000000 -246.603532 -214.380404 401.722221
256 20 1 0.000000 -240.703532 -214.380404 401.722221
257 21 2 0.000000 109.642554 100.400525 -302.552444
258 21 3 0.000000 115.542554 100.400525 -302.552444
259 21 3 0.000000 121.442554 100.400525 -302.552444
260 21 4 0.000000 127.342554 100.400525 -302.552444
261 21 3 0.000000 133.242554 100.400525 -302.552444
262 21 4 0.000000 139.142554 100.400525 -302.552444
263 21 1 0.000000 145.042554 100.400525 -302.552444
264 21 1 0.000000 150.942554 100.400525 -302.552444
265 21 3 0.000000 156.842554 100.400525 -302.552444
266 21 1 0.000000 162.742554 100.400525 -302.552444
267 22 2 0.000000 184.246654 -309.669706 -110.900994
268 22 3 0.000000 190.146654 -309.669706 -110.900994
269 22 3 0.000000 196.046654 -309.669706 -110.900994
270 22 4 0.000000 201.946654 -309.669706 -110.900994
271 22 3 0.000000 207.846654 -309.669706 -110.900994
272 22 4 0.000000 213.746654 -309.669706 -110.900994
273 22 1 0.000000 219.646654 -309.669706 -110.900994
274 22 1 0.000000 225.546654 -309.669706 -110.900994
275 22 3 0.000000 231.446654 -309.669706 -110.900994
276 22 1 0.000000 237.346654 -309.669706 -110.900994
277 23 2 0.000000 423.811483 128.799779 52.393764
278 23 3 0.000000 429.711483 128.799779 52.393764
279 23 3 0.000000 435.611483 128.799779 52.393764
280 23 4 0.000000 441.511483 128.799779 52.393764
281 23 3 0.000000 447.411483 128.799779 52.393764
282 23 4 0.000000 453.311483 128.799779 52.393764
283 23 1 0.000000 459.211483 128.799779 52.393764
284 23 1 0.000000 465.111483 128.799779 52.393764
285 23 3 0.000000 471.011483 128.799779 52.393764
286 23 1 0.000000 476.911483 128.799779 52.393764
287 24 2 0.000000 143.295111 315.423767 253.919919
288 24 3 0.000000 149.195111 315.423767 253.919919
289 24 3 0.000000 155.095111 315.423767 253.919919
290 24 4 0.000000 160.995111 315.423767 253.919919
291 24 3 0.000000 166.895111 315.423767 253.919919
292 24 4 0.000000 172.795111 315.423767 253.919919
293 24 1 0.000000 178.695111 315.423767 253.919919
294 24 1 0.000000 184.595111 315.423767 253.919919
295 24 3 0.000000 190.495111 315.423767 253.919919
296 24 1 0.000000 196.395111 315.423767 253.919919
297 25 2 0.000000 -275.825774 -430.467776 -169.783196
298 25 3 0.000000 -269.925774 -430.467776 -169.783196
299 25 3 0.000000 -264.025774 -430.467776 -169.783196
300 25 4 0.000000 -258.125774 -430.467776 -169.783196
301 25 3 0.000000 -252.225774 -430.467776 -169.783196
302 25 4 0.000000 -246.325774 -430.467776 -169.783196
303 25 1 0.000000 -240.425774 -430.467776 -169.783196
304 25 1 0.000000 -234.525774 -430.467776 -169.783196
305 25 3 0.000000 -228.625774 -430.467776 -169.783196
306 25 1 0.000000 -222.725774 -430.467776 -169.783196
307 26 2 0.000000 -240.228394 -265.895784 407.476937
308 26 3 0.000000 -234.328394 -265.895784 407.476937
309 26 3 0.000000 -228.428394 -265.895784 407.476937
310 26 4 0.000000 -222.528394 -265.895784 407.476937
311 26 3 0.000000 -216.628394 -265.895784 407.476937
312 26 4 0.000000 -210.728394 -265.895784 407.476937
313 26 1 0.000000 -204.828394 -265.895784 407.476937
314 26 1 0.000000 -198.928394 -265.895784 407.476937
315 26 3 0.000000 -193.028394 -265.895784 407.476937
316 26 1 0.000000 -187.128394 -265.895784 407.476937
317 27 2 0.000000 319.708216 -170.496350 143.003572
318 27 3 0.000000 325.608216 -170.496350 143.003572
319 27 3 0.000000 331.508216 -170.496350 143.003572
320 27 4 0.000000 337.408216 -170.496350 143.003572
321 27 3 0.000000 343.308216 -170.496350 143.003572
322 27 4 0.000000 349.208216 -170.496350 143.003572
323 27 1 0.000000 355.108216 -170.496350 143.003572
324 27 1 0.000000 361.008216 -170.496350 143.003572
325 27 3 0.000000 366.908216 -170.496350 143.003572
326 27 1 0.000000 372.808216 -170.496350 143.003572
327 28 2 0.000000 -122.568651 381.383783 -37.856296
328 28 3 0.000000 -116.668651 381.383783 -37.856296
329 28 3 0.000000 -110.768651 381.383783 -37.856296
330 28 4 0.000000 -104.868651 381.383783 -37.856296
331 28 3 0.000000 -98.968651 381.383783 -37.856296
332 28 4 0.000000 -93.068651 381.383783 -37.856296
333 28 1 0.000000 -87.168651 381.383783 -37.856296
334 28 1 0.000000 -81.268651 381.383783 -37.856296
335 28 3 0.000000 -75.368651 381.383783 -37.856296
336 28 1 0.000000 -69.468651 381.383783 -37.856296
337 29 2 0.000000 -242.860247 -233.102693 56.458683
338 29 3 0.000000 -236.960247 -233.102693 56.458683
339 29 3 0.000000 -231.060247 -233.102693 56.458683
340 29 4 0.000000 -225.160247 -233.102693 56.458683
341 29 3 0.000000 -219.260247 -233.102693 56.458683
342 29 4 0.000000 -213.360247 -233.102693 56.458683
343 29 1 0.000000 -207.460247 -233.102693 56.458683
344 29 1 0.000000 -201.560247 -233.102693 56.458683
345 29 3 0.000000 -195.660247 -233.102693 56.458683
346 29 1 0.000000 -189.760247 -233.102693 56.458683
347 30 2 0.000000 -244.827720 77.819111 365.997053
348 30 3 0.000000 -238.927720 77.819111 365.997053
349 30 3 0.000000 -233.027720 77.819111 365.997053
350 30 4 0.000000 -227.127720 77.819111 365.997053
351 30 3 0.000000 -221.227720 77.819111 365.997053
352 30 4 0.000000 -215.327720 77.819111 365.997053
353 30 1 0.000000 -209.427720 77.819111 365.997053
354 30 1 0.000000 -203.527720 77.819111 365.997053
355 30 3 0.000000 -197.627720 77.819111 365.997053
356 30 1 0.000000 -191.727720 77.819111 365.997053
357 31 2 0.000000 -119.101535 -258.224902 457.734598
358 31 3 0.000000 -113.201535 -258.224902 457.734598
359 31 3 0.000000 -107.301535 -258.224902 457.734598
360 31 4 0.000000 -101.401535 -258.224902 457.734598
361 31 3 0.000000 -95.501535 -258.224902 457.734598
362 31 4 0.000000 -89.601535 -258.224902 457.734598
363 31 1 0.000000 -83.701535 -258.224902 457.734598
364 31 1 0.000000 -77.801535 -258.224902 457.734598
365 31 3 0.000000 -71.901535 -258.224902 457.734598
366 31 1 0.000000 -66.001535 -258.224902 457.734598
367 32 2 0.000000 -17.785810 -376.363341 -416.652935
368 32 3 0.000000 -11.885810 -376.363341 -416.652935
369 32 3 0.000000 -5.985810 -376.363341 -416.652935
370 32 4 0.000000 -0.085810 -376.363341 -416.652935
371 32 3 0.000000 5.814190 -376.363341 -416.652935
372 32 4 0.000000 11.714190 -376.363341 -416.652935
373 32 1 0.000000 17.614190 -376.363341 -416.652935
374 32 1 0.000000 23.514190 -376.363341 -416.652935
375 32 3 0.000000 29.414190 -376.363341 -416.652935
376 32 1 0.000000 35.314190 -376.363341 -416.652935
377 33 2 0.000000 -385.672800 117.250358 268.713015
378 33 3 0.000000 -379.772800 117.250358 268.713015
379 33 3 0.000000 -373.872800 117.250358 268.713015
380 33 4 0.000000 -367.972800 117.250358 268.713015
381 33 3 0.000000 -362.072800 117.250358 268.713015
382 33 4 0.000000 -356.172800 117.250358 268.713015
383 33 1 0.000000 -350.272800 117.250358 268.713015
384 33 1 0.000000 -344.372800 117.250358 268.713015
385 33 3 0.000000 -338.472800 117.250358 268.713015
386 33 1 0.000000 -332.572800 117.250358 268.713015
387 34 2 0.000000 -98.162831 -401.554510 -108.910256
388 34 3 0.000000 -92.262831 -401.554510 -108.910256
389 34 3 0.000000 -86.362831 -401.554510 -108.910256
390 34 4 0.000000 -80.462831 -401.554510 -108.910256
391 34 3 0.000000 -74.562831 -401.554510 -108.910256
392 34 4 0.000000 -68.662831 -401.554510 -108.910256
393 34 1 0.000000 -62.762831 -401.554510 -108.910256
394 34 1 0.000000 -56.862831 -401.554510 -108.910256
395 34 3 0.000000 -50.962831 -401.554510 -108.910256
396 34 1 0.000000 -45.062831 -401.554510 -108.910256
397 35 2 0.000000 429.881670 26.785197 433.392107
398 35 3 0.000000 435.781670 26.785197 433.392107
399 35 3 0.000000 441.681670 26.785197 433.392107
400 35 4 0.000000 447.581670 26.785197 433.392107
401 35 3 0.000000 453.481670 26.785197 433.392107
402 35 4 0.000000 459.381670 26.785197 433.392107
403 35 1 0.000000 465.281670 26.785197 433.392107
404 35 1 0.000000 471.181670 26.785197 433.392107
405 35 3 0.000000 477.081670 26.785197 433.392107
406 35 1 0.000000 482.981670 26.785197 433.392107
407 36 2 0.000000 305.367326 -449.437460 203.064074
408 36 3 0.000000 311.267326 -449.437460 203.064074
409 36 3 0.000000 317.167326 -449.437460 203.064074
410 36 4 0.000000 323.067326 -449.437460 203.064074
411 36 3 0.000000 328.967326 -449.437460 203.064074
412 36 4 0.000000 334.867326 -449.437460 203.064074
413 36 1 0.000000 340.767326 -449.437460 203.064074
414 36 1 0.000000 346.667326 -449.437460 203.064074
415 36 3 0.000000 352.567326 -449.437460 203.064074
416 36 1 0.000000 358.467326 -449.437460 203.064074
417 37 2 0.000000 140.623540 34.012704 -214.520825
418 37 3 0.000000 146.523540 34.012704 -214.520825
419 37 3 0.000000 152.423540 34.012704 -214.520825
420 37 4 0.000000 158.323540 34.012704 -214.520825
421 37 3 0.000000 164.223540 34.012704 -214.520825
422 37 4 0.000000 170.123540 34.012704 -214.520825
423 37 1 0.000000 176.023540 34.012704 -214.520825
424 37 1 0.000000 181.923540 34.012704 -214.520825
425 37 3 0.000000 187.823540 34.012704 -214.520825
426 37 1 0.000000 193.723540 34.012704 -214.520825
427 38 2 0.000000 103.134855 -357.372000 -60.015969
428 38 3 0.000000 109.034855 -357.372000 -60.015969
429 38 3 0.000000 114.934855 -357.372000 -60.015969
430 38 4 0.000000 120.834855 -357.372000 -60.015969
431 38 3 0.000000 126.734855 -357.372000 -60.015969
432 38 4 0.000000 132.634855 -357.372000 -60.015969
433 38 1 0.000000 138.534855 -357.372000 -60.015969
434 38 1 0.000000 144.434855 -357.372000 -60.015969
435 38 3 0.000000 150.334855 -357.372000 -60.015969
436 38 1 0.000000 156.234855 -357.372000 -60.015969
437 39 2 0.000000 -69.124190 417.510653 345.784705
438 39 3 0.000000 -63.224190 417.510653 345.784705
439 39 3 0.000000 -57.324190 417.510653 345.784705
440 39 4 0.000000 -51.424190 417.510653 345.784705
441 39 3 0.000000 -45.524190 417.510653 345.784705
442 39 4 0.000000 -39.624190 417.510653 345.784705
443 39 1 0.000000 -33.724190 417.510653 345.784705
444 39 1 0.000000 -27.824190 417.510653 345.784705
445 39 3 0.000000 -21.924190 417.510653 345.784705
446 39 1 0.000000 -16.024190 417.510653 345.784705
447 40 2 0.000000 -244.232073 0.539224 -295.640270
448 40 3 0.000000 -238.332073 0.539224 -295.640270
449 40 3 0.000000 -232.432073 0.539224 -295.640270
450 40 4 0.000000 -226.532073 0.539224 -295.640270
451 40 3 0.000000 -220.632073 0.539224 -295.640270
452 40 4 0.000000 -214.732073 0.539224 -295.640270
453 40 1 0.000000 -208.832073 0.539224 -295.640270
454 40 1 0.000000 -202.932073 0.539224 -295.640270
455 40 3 0.000000 -197.032073 0.539224 -295.640270
456 40 1 0.000000 -191.132073 0.539224 -295.640270
457 41 2 0.000000 353.067612 340.877084 -185.430792
458 41 3 0.000000 358.967612 340.877084 -185.430792
459 41 3 0.000000 364.867612 340.877084 -185.430792
460 41 4 0.000000 370.767612 340.877084 -185.430792
461 41 3 0.000000 376.667612 340.877084 -185.430792
462 41 4 0.000000 382.567612 340.877084 -185.430792
463 41 1 0.000000 388.467612 340.877084 -185.430792
464 41 1 0.000000 394.367612 340.877084 -185.430792
465 41 3 0.000000 400.267612 340.877084 -185.430792
466 41 1 0.000000 406.167612 340.877084 -185.430792
467 42 2 0.000000 101.283535 100.252595 -319.387873
468 42 3 0.000000 107.183535 100.252595 -319.387873
469 42 3 0.000000 113.083535 100.252595 -319.387873
470 42 4 0.000000 118.983535 100.252595 -319.387873
471 42 3 0.000000 124.883535 100.252595 -319.387873
472 42 4 0.000000 130.783535 100.252595 -319.387873
473 42 1 0.000000 136.683535 100.252595 -319.387873
474 42 1 0.000000 142.583535 100.252595 -319.387873
475 42 3 0.000000 148.483535 100.252595 -319.387873
476 42 1 0.000000 154.383535 100.252595 -319.387873
477 43 2 0.000000 214.959936 36.228708 256.336360
478 43 3 0.000000 220.859936 36.228708 256.336360
479 43 3 0.000000 226.759936 36.228708 256.336360
480 43 4 0.000000 232.659936 36.228708 256.336360
481 43 3 0.000000 238.559936 36.228708 256.336360
482 43 4 0.000000 244.459936 36.228708 256.336360
483 43 1 0.000000 250.359936 36.228708 256.336360
484 43 1 0.000000 256.259936 36.228708 256.336360
485 43 3 0.000000 262.159936 36.228708 256.336360
486 43 1 0.000000 268.059936 36.228708 256.336360
487 44 2 0.000000 1.375378 -459.473856 -161.776428
488 44 3 0.000000 7.275378 -459.473856 -161.776428
489 44 3 0.000000 13.175378 -459.473856 -161.776428
490 44 4 0.000000 19.075378 -459.473856 -161.776428
491 44 3 0.000000 24.975378 -459.473856 -161.776428
492 44 4 0.000000 30.875378 -459.473856 -161.776428
493 44 1 0.000000 36.775378 -459.473856 -161.776428
494 44 1 0.000000 42.675378 -459.473856 -161.776428
495 44 3 0.000000 48.575378 -459.473856 -161.776428
496 44 1 0.000000 54.475378 -459.473856 -161.776428
497 45 2 0.000000 -468.631397 394.770727 348.424128
498 45 3 0.000000 -462.731397 394.770727 348.424128
499 45 3 0.000000 -456.831397 394.770727 348.424128
500 45 4 0.000000 -450.931397 394.770727 348.424128
501 45 3 0.000000 -445.031397 394.770727 348.424128
502 45 4 0.000000 -439.131397 394.770727 348.424128
503 45 1 0.000000 -433.231397 394.770727 348.424128
504 45 1 0.000000 -427.331397 394.770727 348.424128
505 45 3 0.000000 -421.431397 394.770727 348.424128
506 45 1 0.000000 -415.531397 394.770727 348.424128
507 46 2 0.000000 278.582287 -177.087005 -406.708847
508 46 3 0.000000 284.482287 -177.087005 -406.708847
509 46 3 0.000000 290.382287 -177.087005 -406.708847
510 46 4 0.000000 296.282287 -177.087005 -406.708847
511 46 3 0.000000 302.182287 -177.087005 -406.708847
512 46 4 0.000000 308.082287 -177.087005 -406.708847
513 46 1 0.000000 313.982287 -177.087005 -406.708847
514 46 1 0.000000 319.882287 -177.087005 -406.708847
515 46 3 0.000000 325.782287 -177.087005 -406.708847
516 46 1 0.000000 331.682287 -177.087005 -406.708847
517 47 2 0.000000 321.218831 411.193490 -381.198824
518 47 3 0.000000 327.118831 411.193490 -381.198824
519 47 3 0.000000 333.018831 411.193490 -381.198824
520 47 4 0.000000 338.918831 411.193490 -381.198824
521 47 3 0.000000 344.818831 411.193490 -381.198824
522 47 4 0.000000 350.718831 411.193490 -381.198824
523 47 1 0.000000 356.618831 411.193490 -381.198824
524 47 1 0.000000 362.518831 411.193490 -381.198824
525 47 3 0.000000 368.418831 411.193490 -381.198824
526 47 1 0.000000 374.318831 411.193490 -381.198824
527 48 2 0.000000 -39.438774 -396.324483 239.753992
528 48 3 0.000000 -33.538774 -396.324483 239.753992
529 48 3 0.000000 -27.638774 -396.324483 239.753992
530 48 4 0.000000 -21.738774 -396.324483 239.753992
531 48 3 0.000000 -15.838774 -396.324483 239.753992
532 48 4 0.000000 -9.938774 -396.324483 239.753992
533 48 1 0.000000 -4.038774 -396.324483 239.753992
534 48 1 0.000000 1.861226 -396.324483 239.753992
535 48 3 0.000000 7.761226 -396.324483 239.753992
536 48 1 0.000000 13.661226 -396.324483 239.753992
537 49 2 0.000000 218.017675 -341.879853 -22.740212
538 49 3 0.000000 223.917675 -341.879853 -22.740212
539 49 3 0.000000 229.817675 -341.879853 -22.740212
540 49 4 0.000000 235.717675 -341.879853 -22.740212
541 49 3 0.000000 241.617675 -341.879853 -22.740212
542 49 4 0.000000 247.517675 -341.879853 -22.740212
543 49 1 0.000000 253.417675 -341.879853 -22.740212
544 49 1 0.000000 259.317675 -341.879853 -22.740212
545 49 3 0.000000 265.217675 -341.879853 -22.740212
546 49 1 0.000000 271.117675 -341.879853 -22.740212
547 50 2 0.000000 19.269306 -216.147901 342.638398
548 50 3 0.000000 25.169306 -216.147901 342.638398
549 50 3 0.000000 31.069306 -216.147901 342.638398
550 50 4 0.000000 36.969306 -216.147901 342.638398
551 50 3 0.000000 42.869306 -216.147901 342.638398
552 50 4 0.000000 48.769306 -216.147901 342.638398
553 50 1 0.000000 54.669306 -216.147901 342.638398
554 50 1 0.000000 60.569306 -216.147901 342.638398
555 50 3 0.000000 66.469306 -216.147901 342.638398
556 50 1 0.000000 72.369306 -216.147901 342.638398
557 51 2 0.000000 -97.263095 -265.145651 36.152402
558 51 3 0.000000 -91.363095 -265.145651 36.152402
559 51 3 0.000000 -85.463095 -265.145651 36.152402
560 51 4 0.000000 -79.563095 -265.145651 36.152402
561 51 3 0.000000 -73.663095 -265.145651 36.152402
562 51 4 0.000000 -67.763095 -265.145651 36.152402
563 51 1 0.000000 -61.863095 -265.145651 36.152402
564 51 1 0.000000 -55.963095 -265.145651 36.152402
565 51 3 0.000000 -50.063095 -265.145651 36.152402
566 51 1 0.000000 -44.163095 -265.145651 36.152402
567 52 2 0.000000 184.986584 -274.941022 -173.221012
568 52 3 0.000000 190.886584 -274.941022 -173.221012
569 52 3 0.000000 196.786584 -274.941022 -173.221012
570 52 4 0.000000 202.686584 -274.941022 -173.221012
571 52 3 0.000000 208.586584 -274.941022 -173.221012
572 52 4 0.000000 214.486584 -274.941022 -173.221012
573 52 1 0.000000 220.386584 -274.941022 -173.221012
574 52 1 0.000000 226.286584 -274.941022 -173.221012
575 52 3 0.000000 232.186584 -274.941022 -173.221012
576 52 1 0.000000 238.086584 -274.941022 -173.221012
577 53 2 0.000000 428.987408 137.887813 -56.947923
578 53 3 0.000000 434.887408 137.887813 -56.947923
579 53 3 0.000000 440.787408 137.887813 -56.947923
580 53 4 0.000000 446.687408 137.887813 -56.947923
581 53 3 0.000000 452.587408 137.887813 -56.947923
582 53 4 0.000000 458.487408 137.887813 -56.947923
583 53 1 0.000000 464.387408 137.887813 -56.947923