LAMMPS data file — Week 13 combined RNA+ASO | target=7LYJ | aso=CGGUGUAAGA | n_aso=100 | box=±375.0

1066 atoms
965 bonds
864 angles

4 atom types
1 bond types
1 angle types

-375.000000  375.000000  xlo xhi
-375.000000  375.000000  ylo yhi
-375.000000  375.000000  zlo zhi

Masses

1 329.20
2 305.20
3 345.20
4 306.20

Atoms

1 1 2 0.000000 20.000000 0.000000 0.000000
2 1 3 0.000000 25.900000 0.000000 0.000000
3 1 3 0.000000 31.800000 0.000000 0.000000
4 1 4 0.000000 37.700000 0.000000 0.000000
5 1 3 0.000000 43.600000 0.000000 0.000000
6 1 4 0.000000 49.500000 0.000000 0.000000
7 1 1 0.000000 55.400000 0.000000 0.000000
8 1 1 0.000000 61.300000 0.000000 0.000000
9 1 3 0.000000 67.200000 0.000000 0.000000
10 1 1 0.000000 73.100000 0.000000 0.000000
11 2 2 0.000000 2.035273 -1.454939 -5.263727
12 2 3 0.000000 -0.766727 -6.502939 -4.423727
13 2 3 0.000000 -5.322727 -9.458939 -2.332727
14 2 4 0.000000 -10.686727 -9.262939 -0.255727
15 2 3 0.000000 -15.665727 -6.447939 0.528273
16 2 4 0.000000 -19.019727 -1.928939 -0.557727
17 2 1 0.000000 -20.236727 2.554061 -3.887727
18 2 1 0.000000 -19.405727 5.849061 -8.575727
19 2 3 0.000000 -17.035727 6.677061 -13.786727
20 2 4 0.000000 -13.810727 7.693061 -18.960727
21 2 3 0.000000 -13.521727 5.320061 -24.051727
22 2 2 0.000000 -18.390727 4.604061 -27.166727
23 2 1 0.000000 -22.751727 7.610061 -27.785727
24 2 3 0.000000 -25.251727 5.661061 -23.033727
25 2 2 0.000000 -25.745727 1.848061 -18.688727
26 2 2 0.000000 -24.206727 -3.020939 -15.814727
27 2 2 0.000000 -20.286727 -6.736939 -13.593727
28 2 3 0.000000 -14.834727 -6.812939 -12.274727
29 2 4 0.000000 -8.925727 -7.221939 -11.874727
30 2 2 0.000000 -6.745727 -2.241939 -13.668727
31 2 4 0.000000 -6.538727 3.008061 -11.259727
32 2 4 0.000000 -7.523727 6.594061 -6.898727
33 2 1 0.000000 -9.390727 7.820061 -1.549727
34 2 2 0.000000 -10.140727 5.948061 3.775273
35 2 1 0.000000 -9.804727 1.844061 7.813273
36 2 2 0.000000 -7.241727 -3.010939 9.473273
37 2 2 0.000000 -2.778727 -6.626939 8.991273
38 2 3 0.000000 2.464273 -7.569939 6.688273
39 2 4 0.000000 7.381273 -6.270939 3.771273
40 2 3 0.000000 11.599273 -2.655939 2.100273
41 2 2 0.000000 13.877273 2.429061 3.110273
42 2 3 0.000000 14.500273 6.997061 6.554273
43 2 3 0.000000 13.887273 9.351061 11.861273
44 2 2 0.000000 13.523273 8.204061 17.492273
45 2 1 0.000000 13.130273 4.623061 22.042273
46 2 2 0.000000 14.430273 -0.441939 24.179273
47 2 1 0.000000 17.276273 -5.486939 23.807273
48 2 3 0.000000 22.093273 -8.256939 22.139273
49 2 2 0.000000 27.474273 -7.575939 20.369273
50 2 3 0.000000 31.969273 -4.069939 19.780273
51 2 3 0.000000 34.498273 0.513061 22.126273
52 2 1 0.000000 33.791273 3.040061 26.728273
53 2 1 0.000000 29.810273 7.000061 25.579273
54 2 1 0.000000 26.899273 10.524061 22.081273
55 2 2 0.000000 25.405273 7.851061 17.130273
56 2 3 0.000000 25.814273 3.866061 12.902273
57 2 2 0.000000 24.186273 -1.092939 10.458273
58 2 4 0.000000 20.341273 -5.274939 10.305273
59 2 3 0.000000 15.309273 -7.991939 11.820273
60 2 1 0.000000 10.426273 -10.435939 13.459273
61 2 4 0.000000 7.382273 -6.375939 16.757273
62 2 3 0.000000 3.976273 -1.856939 18.047273
63 2 4 0.000000 2.429273 3.736061 15.827273
64 2 2 0.000000 2.390273 8.217061 12.228273
65 2 3 0.000000 2.786273 9.779061 6.734273
66 2 4 0.000000 3.549273 8.281061 1.271273
67 2 1 0.000000 3.573273 5.537061 -4.116727
68 2 4 0.000000 0.140273 6.240061 -8.650727
69 2 1 0.000000 -2.881727 6.096061 -14.228727
70 2 2 0.000000 -6.216727 2.494061 -18.233727
71 2 1 0.000000 -7.540727 -3.007939 -21.438727
72 2 3 0.000000 -10.077727 -7.610939 -22.929727
73 2 3 0.000000 -15.905727 -9.772939 -23.759727
74 2 3 0.000000 -21.609727 -9.830939 -24.399727
75 2 2 0.000000 -26.818727 -7.906939 -26.148727
76 2 4 0.000000 -31.268727 -3.593939 -28.320727
77 3 2 0.000000 75.231563 -346.742149 -164.228598
78 3 3 0.000000 81.131563 -346.742149 -164.228598
79 3 3 0.000000 87.031563 -346.742149 -164.228598
80 3 4 0.000000 92.931563 -346.742149 -164.228598
81 3 3 0.000000 98.831563 -346.742149 -164.228598
82 3 4 0.000000 104.731563 -346.742149 -164.228598
83 3 1 0.000000 110.631563 -346.742149 -164.228598
84 3 1 0.000000 116.531563 -346.742149 -164.228598
85 3 3 0.000000 122.431563 -346.742149 -164.228598
86 3 1 0.000000 128.331563 -346.742149 -164.228598
87 4 2 0.000000 -228.606161 172.623986 128.990626
88 4 3 0.000000 -222.706161 172.623986 128.990626
89 4 3 0.000000 -216.806161 172.623986 128.990626
90 4 4 0.000000 -210.906161 172.623986 128.990626
91 4 3 0.000000 -205.006161 172.623986 128.990626
92 4 4 0.000000 -199.106161 172.623986 128.990626
93 4 1 0.000000 -193.206161 172.623986 128.990626
94 4 1 0.000000 -187.306161 172.623986 128.990626
95 4 3 0.000000 -181.406161 172.623986 128.990626
96 4 1 0.000000 -175.506161 172.623986 128.990626
97 5 2 0.000000 259.741084 -301.534652 -56.997072
98 5 3 0.000000 265.641084 -301.534652 -56.997072
99 5 3 0.000000 271.541084 -301.534652 -56.997072
100 5 4 0.000000 277.441084 -301.534652 -56.997072
101 5 3 0.000000 283.341084 -301.534652 -56.997072
102 5 4 0.000000 289.241084 -301.534652 -56.997072
103 5 1 0.000000 295.141084 -301.534652 -56.997072
104 5 1 0.000000 301.041084 -301.534652 -56.997072
105 5 3 0.000000 306.941084 -301.534652 -56.997072
106 5 1 0.000000 312.841084 -301.534652 -56.997072
107 6 2 0.000000 -369.798030 -205.394278 3.909360
108 6 3 0.000000 -363.898030 -205.394278 3.909360
109 6 3 0.000000 -357.998030 -205.394278 3.909360
110 6 4 0.000000 -352.098030 -205.394278 3.909360
111 6 3 0.000000 -346.198030 -205.394278 3.909360
112 6 4 0.000000 -340.298030 -205.394278 3.909360
113 6 1 0.000000 -334.398030 -205.394278 3.909360
114 6 1 0.000000 -328.498030 -205.394278 3.909360
115 6 3 0.000000 -322.598030 -205.394278 3.909360
116 6 1 0.000000 -316.698030 -205.394278 3.909360
117 7 2 0.000000 -372.178742 -219.848515 109.415640
118 7 3 0.000000 -366.278742 -219.848515 109.415640
119 7 3 0.000000 -360.378742 -219.848515 109.415640
120 7 4 0.000000 -354.478742 -219.848515 109.415640
121 7 3 0.000000 -348.578742 -219.848515 109.415640
122 7 4 0.000000 -342.678742 -219.848515 109.415640
123 7 1 0.000000 -336.778742 -219.848515 109.415640
124 7 1 0.000000 -330.878742 -219.848515 109.415640
125 7 3 0.000000 -324.978742 -219.848515 109.415640
126 7 1 0.000000 -319.078742 -219.848515 109.415640
127 8 2 0.000000 6.257281 -204.078346 65.163949
128 8 3 0.000000 12.157281 -204.078346 65.163949
129 8 3 0.000000 18.057281 -204.078346 65.163949
130 8 4 0.000000 23.957281 -204.078346 65.163949
131 8 3 0.000000 29.857281 -204.078346 65.163949
132 8 4 0.000000 35.757281 -204.078346 65.163949
133 8 1 0.000000 41.657281 -204.078346 65.163949
134 8 1 0.000000 47.557281 -204.078346 65.163949
135 8 3 0.000000 53.457281 -204.078346 65.163949
136 8 1 0.000000 59.357281 -204.078346 65.163949
137 9 2 0.000000 199.334233 -360.255905 223.248054
138 9 3 0.000000 205.234233 -360.255905 223.248054
139 9 3 0.000000 211.134233 -360.255905 223.248054
140 9 4 0.000000 217.034233 -360.255905 223.248054
141 9 3 0.000000 222.934233 -360.255905 223.248054
142 9 4 0.000000 228.834233 -360.255905 223.248054
143 9 1 0.000000 234.734233 -360.255905 223.248054
144 9 1 0.000000 240.634233 -360.255905 223.248054
145 9 3 0.000000 246.534233 -360.255905 223.248054
146 9 1 0.000000 252.434233 -360.255905 223.248054
147 10 2 0.000000 118.091758 -116.617123 -251.499965
148 10 3 0.000000 123.991758 -116.617123 -251.499965
149 10 3 0.000000 129.891758 -116.617123 -251.499965
150 10 4 0.000000 135.791758 -116.617123 -251.499965
151 10 3 0.000000 141.691758 -116.617123 -251.499965
152 10 4 0.000000 147.591758 -116.617123 -251.499965
153 10 1 0.000000 153.491758 -116.617123 -251.499965
154 10 1 0.000000 159.391758 -116.617123 -251.499965
155 10 3 0.000000 165.291758 -116.617123 -251.499965
156 10 1 0.000000 171.191758 -116.617123 -251.499965
157 11 2 0.000000 307.215543 -119.285982 -297.295534
158 11 3 0.000000 313.115543 -119.285982 -297.295534
159 11 3 0.000000 319.015543 -119.285982 -297.295534
160 11 4 0.000000 324.915543 -119.285982 -297.295534
161 11 3 0.000000 330.815543 -119.285982 -297.295534
162 11 4 0.000000 336.715543 -119.285982 -297.295534
163 11 1 0.000000 342.615543 -119.285982 -297.295534
164 11 1 0.000000 348.515543 -119.285982 -297.295534
165 11 3 0.000000 354.415543 -119.285982 -297.295534
166 11 1 0.000000 360.315543 -119.285982 -297.295534
167 12 2 0.000000 -320.947045 253.670887 75.720003
168 12 3 0.000000 -315.047045 253.670887 75.720003
169 12 3 0.000000 -309.147045 253.670887 75.720003
170 12 4 0.000000 -303.247045 253.670887 75.720003
171 12 3 0.000000 -297.347045 253.670887 75.720003
172 12 4 0.000000 -291.447045 253.670887 75.720003
173 12 1 0.000000 -285.547045 253.670887 75.720003
174 12 1 0.000000 -279.647045 253.670887 75.720003
175 12 3 0.000000 -273.747045 253.670887 75.720003
176 12 1 0.000000 -267.847045 253.670887 75.720003
177 13 2 0.000000 197.653639 167.704204 26.446507
178 13 3 0.000000 203.553639 167.704204 26.446507
179 13 3 0.000000 209.453639 167.704204 26.446507
180 13 4 0.000000 215.353639 167.704204 26.446507
181 13 3 0.000000 221.253639 167.704204 26.446507
182 13 4 0.000000 227.153639 167.704204 26.446507
183 13 1 0.000000 233.053639 167.704204 26.446507
184 13 1 0.000000 238.953639 167.704204 26.446507
185 13 3 0.000000 244.853639 167.704204 26.446507
186 13 1 0.000000 250.753639 167.704204 26.446507
187 14 2 0.000000 318.824508 -88.669905 37.989661
188 14 3 0.000000 324.724508 -88.669905 37.989661
189 14 3 0.000000 330.624508 -88.669905 37.989661
190 14 4 0.000000 336.524508 -88.669905 37.989661
191 14 3 0.000000 342.424508 -88.669905 37.989661
192 14 4 0.000000 348.324508 -88.669905 37.989661
193 14 1 0.000000 354.224508 -88.669905 37.989661
194 14 1 0.000000 360.124508 -88.669905 37.989661
195 14 3 0.000000 366.024508 -88.669905 37.989661
196 14 1 0.000000 371.924508 -88.669905 37.989661
197 15 2 0.000000 213.915405 86.519419 264.046037
198 15 3 0.000000 219.815405 86.519419 264.046037
199 15 3 0.000000 225.715405 86.519419 264.046037
200 15 4 0.000000 231.615405 86.519419 264.046037
201 15 3 0.000000 237.515405 86.519419 264.046037
202 15 4 0.000000 243.415405 86.519419 264.046037
203 15 1 0.000000 249.315405 86.519419 264.046037
204 15 1 0.000000 255.215405 86.519419 264.046037
205 15 3 0.000000 261.115405 86.519419 264.046037
206 15 1 0.000000 267.015405 86.519419 264.046037
207 16 2 0.000000 29.917066 149.337440 -331.548200
208 16 3 0.000000 35.817066 149.337440 -331.548200
209 16 3 0.000000 41.717066 149.337440 -331.548200
210 16 4 0.000000 47.617066 149.337440 -331.548200
211 16 3 0.000000 53.517066 149.337440 -331.548200
212 16 4 0.000000 59.417066 149.337440 -331.548200
213 16 1 0.000000 65.317066 149.337440 -331.548200
214 16 1 0.000000 71.217066 149.337440 -331.548200
215 16 3 0.000000 77.117066 149.337440 -331.548200
216 16 1 0.000000 83.017066 149.337440 -331.548200
217 17 2 0.000000 -225.184259 -153.746787 -306.751857
218 17 3 0.000000 -219.284259 -153.746787 -306.751857
219 17 3 0.000000 -213.384259 -153.746787 -306.751857
220 17 4 0.000000 -207.484259 -153.746787 -306.751857
221 17 3 0.000000 -201.584259 -153.746787 -306.751857
222 17 4 0.000000 -195.684259 -153.746787 -306.751857
223 17 1 0.000000 -189.784259 -153.746787 -306.751857
224 17 1 0.000000 -183.884259 -153.746787 -306.751857
225 17 3 0.000000 -177.984259 -153.746787 -306.751857
226 17 1 0.000000 -172.084259 -153.746787 -306.751857
227 18 2 0.000000 -221.612653 -291.268957 -162.079270
228 18 3 0.000000 -215.712653 -291.268957 -162.079270
229 18 3 0.000000 -209.812653 -291.268957 -162.079270
230 18 4 0.000000 -203.912653 -291.268957 -162.079270
231 18 3 0.000000 -198.012653 -291.268957 -162.079270
232 18 4 0.000000 -192.112653 -291.268957 -162.079270
233 18 1 0.000000 -186.212653 -291.268957 -162.079270
234 18 1 0.000000 -180.312653 -291.268957 -162.079270
235 18 3 0.000000 -174.412653 -291.268957 -162.079270
236 18 1 0.000000 -168.512653 -291.268957 -162.079270
237 19 2 0.000000 72.499644 -98.672509 -94.767894
238 19 3 0.000000 78.399644 -98.672509 -94.767894
239 19 3 0.000000 84.299644 -98.672509 -94.767894
240 19 4 0.000000 90.199644 -98.672509 -94.767894
241 19 3 0.000000 96.099644 -98.672509 -94.767894
242 19 4 0.000000 101.999644 -98.672509 -94.767894
243 19 1 0.000000 107.899644 -98.672509 -94.767894
244 19 1 0.000000 113.799644 -98.672509 -94.767894
245 19 3 0.000000 119.699644 -98.672509 -94.767894
246 19 1 0.000000 125.599644 -98.672509 -94.767894
247 20 2 0.000000 -238.609868 -170.106190 318.757849
248 20 3 0.000000 -232.709868 -170.106190 318.757849
249 20 3 0.000000 -226.809868 -170.106190 318.757849
250 20 4 0.000000 -220.909868 -170.106190 318.757849
251 20 3 0.000000 -215.009868 -170.106190 318.757849
252 20 4 0.000000 -209.109868 -170.106190 318.757849
253 20 1 0.000000 -203.209868 -170.106190 318.757849
254 20 1 0.000000 -197.309868 -170.106190 318.757849
255 20 3 0.000000 -191.409868 -170.106190 318.757849
256 20 1 0.000000 -185.509868 -170.106190 318.757849
257 21 2 0.000000 81.515831 79.665634 -240.068787
258 21 3 0.000000 87.415831 79.665634 -240.068787
259 21 3 0.000000 93.315831 79.665634 -240.068787
260 21 4 0.000000 99.215831 79.665634 -240.068787
261 21 3 0.000000 105.115831 79.665634 -240.068787
262 21 4 0.000000 111.015831 79.665634 -240.068787
263 21 1 0.000000 116.915831 79.665634 -240.068787
264 21 1 0.000000 122.815831 79.665634 -240.068787
265 21 3 0.000000 128.715831 79.665634 -240.068787
266 21 1 0.000000 134.615831 79.665634 -240.068787
267 22 2 0.000000 140.712563 -245.716180 -87.997528
268 22 3 0.000000 146.612563 -245.716180 -87.997528
269 22 3 0.000000 152.512563 -245.716180 -87.997528
270 22 4 0.000000 158.412563 -245.716180 -87.997528
271 22 3 0.000000 164.312563 -245.716180 -87.997528
272 22 4 0.000000 170.212563 -245.716180 -87.997528
273 22 1 0.000000 176.112563 -245.716180 -87.997528
274 22 1 0.000000 182.012563 -245.716180 -87.997528
275 22 3 0.000000 187.912563 -245.716180 -87.997528
276 22 1 0.000000 193.812563 -245.716180 -87.997528
277 23 2 0.000000 330.802046 102.199825 41.573313
278 23 3 0.000000 336.702046 102.199825 41.573313
279 23 3 0.000000 342.602046 102.199825 41.573313
280 23 4 0.000000 348.502046 102.199825 41.573313
281 23 3 0.000000 354.402046 102.199825 41.573313
282 23 4 0.000000 360.302046 102.199825 41.573313
283 23 1 0.000000 366.202046 102.199825 41.573313
284 23 1 0.000000 372.102046 102.199825 41.573313
285 23 3 0.000000 378.002046 102.199825 41.573313
286 23 1 0.000000 383.902046 102.199825 41.573313
287 24 2 0.000000 108.218403 250.281902 201.479935
288 24 3 0.000000 114.118403 250.281902 201.479935
289 24 3 0.000000 120.018403 250.281902 201.479935
290 24 4 0.000000 125.918403 250.281902 201.479935
291 24 3 0.000000 131.818403 250.281902 201.479935
292 24 4 0.000000 137.718403 250.281902 201.479935
293 24 1 0.000000 143.618403 250.281902 201.479935
294 24 1 0.000000 149.518403 250.281902 201.479935
295 24 3 0.000000 155.418403 250.281902 201.479935
296 24 1 0.000000 161.318403 250.281902 201.479935
297 25 2 0.000000 -224.344907 -341.566822 -134.719275
298 25 3 0.000000 -218.444907 -341.566822 -134.719275
299 25 3 0.000000 -212.544907 -341.566822 -134.719275
300 25 4 0.000000 -206.644907 -341.566822 -134.719275
301 25 3 0.000000 -200.744907 -341.566822 -134.719275
302 25 4 0.000000 -194.844907 -341.566822 -134.719275
303 25 1 0.000000 -188.944907 -341.566822 -134.719275
304 25 1 0.000000 -183.044907 -341.566822 -134.719275
305 25 3 0.000000 -177.144907 -341.566822 -134.719275
306 25 1 0.000000 -171.244907 -341.566822 -134.719275
307 26 2 0.000000 -196.099161 -210.982524 323.324091
308 26 3 0.000000 -190.199161 -210.982524 323.324091
309 26 3 0.000000 -184.299161 -210.982524 323.324091
310 26 4 0.000000 -178.399161 -210.982524 323.324091
311 26 3 0.000000 -172.499161 -210.982524 323.324091
312 26 4 0.000000 -166.599161 -210.982524 323.324091
313 26 1 0.000000 -160.699161 -210.982524 323.324091
314 26 1 0.000000 -154.799161 -210.982524 323.324091
315 26 3 0.000000 -148.899161 -210.982524 323.324091
316 26 1 0.000000 -142.999161 -210.982524 323.324091
317 27 2 0.000000 248.198367 -135.285147 113.470226
318 27 3 0.000000 254.098367 -135.285147 113.470226
319 27 3 0.000000 259.998367 -135.285147 113.470226
320 27 4 0.000000 265.898367 -135.285147 113.470226
321 27 3 0.000000 271.798367 -135.285147 113.470226
322 27 4 0.000000 277.698367 -135.285147 113.470226
323 27 1 0.000000 283.598367 -135.285147 113.470226
324 27 1 0.000000 289.498367 -135.285147 113.470226
325 27 3 0.000000 295.398367 -135.285147 113.470226
326 27 1 0.000000 301.298367 -135.285147 113.470226
327 28 2 0.000000 -102.738712 302.619741 -30.038148
328 28 3 0.000000 -96.838712 302.619741 -30.038148
329 28 3 0.000000 -90.938712 302.619741 -30.038148
330 28 4 0.000000 -85.038712 302.619741 -30.038148
331 28 3 0.000000 -79.138712 302.619741 -30.038148
332 28 4 0.000000 -73.238712 302.619741 -30.038148
333 28 1 0.000000 -67.338712 302.619741 -30.038148
334 28 1 0.000000 -61.438712 302.619741 -30.038148
335 28 3 0.000000 -55.538712 302.619741 -30.038148
336 28 1 0.000000 -49.638712 302.619741 -30.038148
337 29 2 0.000000 -198.187478 -184.961919 44.798738
338 29 3 0.000000 -192.287478 -184.961919 44.798738
339 29 3 0.000000 -186.387478 -184.961919 44.798738
340 29 4 0.000000 -180.487478 -184.961919 44.798738
341 29 3 0.000000 -174.587478 -184.961919 44.798738
342 29 4 0.000000 -168.687478 -184.961919 44.798738
343 29 1 0.000000 -162.787478 -184.961919 44.798738
344 29 1 0.000000 -156.887478 -184.961919 44.798738
345 29 3 0.000000 -150.987478 -184.961919 44.798738
346 29 1 0.000000 -145.087478 -184.961919 44.798738
347 30 2 0.000000 -199.748626 61.747773 290.410705
348 30 3 0.000000 -193.848626 61.747773 290.410705
349 30 3 0.000000 -187.948626 61.747773 290.410705
350 30 4 0.000000 -182.048626 61.747773 290.410705
351 30 3 0.000000 -176.148626 61.747773 290.410705
352 30 4 0.000000 -170.248626 61.747773 290.410705
353 30 1 0.000000 -164.348626 61.747773 290.410705
354 30 1 0.000000 -158.448626 61.747773 290.410705
355 30 3 0.000000 -152.548626 61.747773 290.410705
356 30 1 0.000000 -146.648626 61.747773 290.410705
357 31 2 0.000000 -99.987631 -204.895846 363.202453
358 31 3 0.000000 -94.087631 -204.895846 363.202453
359 31 3 0.000000 -88.187631 -204.895846 363.202453
360 31 4 0.000000 -82.287631 -204.895846 363.202453
361 31 3 0.000000 -76.387631 -204.895846 363.202453
362 31 4 0.000000 -70.487631 -204.895846 363.202453
363 31 1 0.000000 -64.587631 -204.895846 363.202453
364 31 1 0.000000 -58.687631 -204.895846 363.202453
365 31 3 0.000000 -52.787631 -204.895846 363.202453
366 31 1 0.000000 -46.887631 -204.895846 363.202453
367 32 2 0.000000 -19.595806 -298.636129 -330.605046
368 32 3 0.000000 -13.695806 -298.636129 -330.605046
369 32 3 0.000000 -7.795806 -298.636129 -330.605046
370 32 4 0.000000 -1.895806 -298.636129 -330.605046
371 32 3 0.000000 4.004194 -298.636129 -330.605046
372 32 4 0.000000 9.904194 -298.636129 -330.605046
373 32 1 0.000000 15.804194 -298.636129 -330.605046
374 32 1 0.000000 21.704194 -298.636129 -330.605046
375 32 3 0.000000 27.604194 -298.636129 -330.605046
376 32 1 0.000000 33.504194 -298.636129 -330.605046
377 33 2 0.000000 -311.506135 93.035610 213.217936
378 33 3 0.000000 -305.606135 93.035610 213.217936
379 33 3 0.000000 -299.706135 93.035610 213.217936
380 33 4 0.000000 -293.806135 93.035610 213.217936
381 33 3 0.000000 -287.906135 93.035610 213.217936
382 33 4 0.000000 -282.006135 93.035610 213.217936
383 33 1 0.000000 -276.106135 93.035610 213.217936
384 33 1 0.000000 -270.206135 93.035610 213.217936
385 33 3 0.000000 -264.306135 93.035610 213.217936
386 33 1 0.000000 -258.406135 93.035610 213.217936
387 34 2 0.000000 -83.373224 -318.624775 -86.417921
388 34 3 0.000000 -77.473224 -318.624775 -86.417921
389 34 3 0.000000 -71.573224 -318.624775 -86.417921
390 34 4 0.000000 -65.673224 -318.624775 -86.417921
391 34 3 0.000000 -59.773224 -318.624775 -86.417921
392 34 4 0.000000 -53.873224 -318.624775 -86.417921
393 34 1 0.000000 -47.973224 -318.624775 -86.417921
394 34 1 0.000000 -42.073224 -318.624775 -86.417921
395 34 3 0.000000 -36.173224 -318.624775 -86.417921
396 34 1 0.000000 -30.273224 -318.624775 -86.417921
397 35 2 0.000000 335.618608 21.253472 343.887216
398 35 3 0.000000 341.518608 21.253472 343.887216
399 35 3 0.000000 347.418608 21.253472 343.887216
400 35 4 0.000000 353.318608 21.253472 343.887216
401 35 3 0.000000 359.218608 21.253472 343.887216
402 35 4 0.000000 365.118608 21.253472 343.887216
403 35 1 0.000000 371.018608 21.253472 343.887216
404 35 1 0.000000 376.918608 21.253472 343.887216
405 35 3 0.000000 382.818608 21.253472 343.887216
406 35 1 0.000000 388.718608 21.253472 343.887216
407 36 2 0.000000 236.819183 -356.618854 161.126928
408 36 3 0.000000 242.719183 -356.618854 161.126928
409 36 3 0.000000 248.619183 -356.618854 161.126928
410 36 4 0.000000 254.519183 -356.618854 161.126928
411 36 3 0.000000 260.419183 -356.618854 161.126928
412 36 4 0.000000 266.319183 -356.618854 161.126928
413 36 1 0.000000 272.219183 -356.618854 161.126928
414 36 1 0.000000 278.119183 -356.618854 161.126928
415 36 3 0.000000 284.019183 -356.618854 161.126928
416 36 1 0.000000 289.919183 -356.618854 161.126928
417 37 2 0.000000 106.098569 26.988341 -170.217611
418 37 3 0.000000 111.998569 26.988341 -170.217611
419 37 3 0.000000 117.898569 26.988341 -170.217611
420 37 4 0.000000 123.798569 26.988341 -170.217611
421 37 3 0.000000 129.698569 26.988341 -170.217611
422 37 4 0.000000 135.598569 26.988341 -170.217611
423 37 1 0.000000 141.498569 26.988341 -170.217611
424 37 1 0.000000 147.398569 26.988341 -170.217611
425 37 3 0.000000 153.298569 26.988341 -170.217611
426 37 1 0.000000 159.198569 26.988341 -170.217611
427 38 2 0.000000 76.352113 -283.566913 -47.621367
428 38 3 0.000000 82.252113 -283.566913 -47.621367
429 38 3 0.000000 88.152113 -283.566913 -47.621367
430 38 4 0.000000 94.052113 -283.566913 -47.621367
431 38 3 0.000000 99.952113 -283.566913 -47.621367
432 38 4 0.000000 105.852113 -283.566913 -47.621367
433 38 1 0.000000 111.752113 -283.566913 -47.621367
434 38 1 0.000000 117.652113 -283.566913 -47.621367
435 38 3 0.000000 123.552113 -283.566913 -47.621367
436 38 1 0.000000 129.452113 -283.566913 -47.621367
437 39 2 0.000000 -60.331694 331.285627 274.372646
438 39 3 0.000000 -54.431694 331.285627 274.372646
439 39 3 0.000000 -48.531694 331.285627 274.372646
440 39 4 0.000000 -42.631694 331.285627 274.372646
441 39 3 0.000000 -36.731694 331.285627 274.372646
442 39 4 0.000000 -30.831694 331.285627 274.372646
443 39 1 0.000000 -24.931694 331.285627 274.372646
444 39 1 0.000000 -19.031694 331.285627 274.372646
445 39 3 0.000000 -13.131694 331.285627 274.372646
446 39 1 0.000000 -7.231694 331.285627 274.372646
447 40 2 0.000000 -199.275993 0.427863 -234.584127
448 40 3 0.000000 -193.375993 0.427863 -234.584127
449 40 3 0.000000 -187.475993 0.427863 -234.584127
450 40 4 0.000000 -181.575993 0.427863 -234.584127
451 40 3 0.000000 -175.675993 0.427863 -234.584127
452 40 4 0.000000 -169.775993 0.427863 -234.584127
453 40 1 0.000000 -163.875993 0.427863 -234.584127
454 40 1 0.000000 -157.975993 0.427863 -234.584127
455 40 3 0.000000 -152.075993 0.427863 -234.584127
456 40 1 0.000000 -146.175993 0.427863 -234.584127
457 41 2 0.000000 274.668323 270.478556 -147.135302
458 41 3 0.000000 280.568323 270.478556 -147.135302
459 41 3 0.000000 286.468323 270.478556 -147.135302
460 41 4 0.000000 292.368323 270.478556 -147.135302
461 41 3 0.000000 298.268323 270.478556 -147.135302
462 41 4 0.000000 304.168323 270.478556 -147.135302
463 41 1 0.000000 310.068323 270.478556 -147.135302
464 41 1 0.000000 315.968323 270.478556 -147.135302
465 41 3 0.000000 321.868323 270.478556 -147.135302
466 41 1 0.000000 327.768323 270.478556 -147.135302
467 42 2 0.000000 165.082884 28.746692 203.397329
468 42 3 0.000000 170.982884 28.746692 203.397329
469 42 3 0.000000 176.882884 28.746692 203.397329
470 42 4 0.000000 182.782884 28.746692 203.397329
471 42 3 0.000000 188.682884 28.746692 203.397329
472 42 4 0.000000 194.582884 28.746692 203.397329
473 42 1 0.000000 200.482884 28.746692 203.397329
474 42 1 0.000000 206.382884 28.746692 203.397329
475 42 3 0.000000 212.282884 28.746692 203.397329
476 42 1 0.000000 218.182884 28.746692 203.397329
477 43 2 0.000000 -4.391819 -364.582516 -128.366078
478 43 3 0.000000 1.508181 -364.582516 -128.366078
479 43 3 0.000000 7.408181 -364.582516 -128.366078
480 43 4 0.000000 13.308181 -364.582516 -128.366078
481 43 3 0.000000 19.208181 -364.582516 -128.366078
482 43 4 0.000000 25.108181 -364.582516 -128.366078
483 43 1 0.000000 31.008181 -364.582516 -128.366078
484 43 1 0.000000 36.908181 -364.582516 -128.366078
485 43 3 0.000000 42.808181 -364.582516 -128.366078
486 43 1 0.000000 48.708181 -364.582516 -128.366078
487 44 2 0.000000 -377.331978 313.241990 276.466971
488 44 3 0.000000 -371.431978 313.241990 276.466971
489 44 3 0.000000 -365.531978 313.241990 276.466971
490 44 4 0.000000 -359.631978 313.241990 276.466971
491 44 3 0.000000 -353.731978 313.241990 276.466971
492 44 4 0.000000 -347.831978 313.241990 276.466971
493 44 1 0.000000 -341.931978 313.241990 276.466971
494 44 1 0.000000 -336.031978 313.241990 276.466971
495 44 3 0.000000 -330.131978 313.241990 276.466971
496 44 1 0.000000 -324.231978 313.241990 276.466971
497 45 2 0.000000 215.565836 -140.514688 -322.714628
498 45 3 0.000000 221.465836 -140.514688 -322.714628
499 45 3 0.000000 227.365836 -140.514688 -322.714628
500 45 4 0.000000 233.265836 -140.514688 -322.714628
501 45 3 0.000000 239.165836 -140.514688 -322.714628
502 45 4 0.000000 245.065836 -140.514688 -322.714628
503 45 1 0.000000 250.965836 -140.514688 -322.714628
504 45 1 0.000000 256.865836 -140.514688 -322.714628
505 45 3 0.000000 262.765836 -140.514688 -322.714628
506 45 1 0.000000 268.665836 -140.514688 -322.714628
507 46 2 0.000000 249.397007 326.273095 -302.472980
508 46 3 0.000000 255.297007 326.273095 -302.472980
509 46 3 0.000000 261.197007 326.273095 -302.472980
510 46 4 0.000000 267.097007 326.273095 -302.472980
511 46 3 0.000000 272.997007 326.273095 -302.472980
512 46 4 0.000000 278.897007 326.273095 -302.472980
513 46 1 0.000000 284.797007 326.273095 -302.472980
514 46 1 0.000000 290.697007 326.273095 -302.472980
515 46 3 0.000000 296.597007 326.273095 -302.472980
516 46 1 0.000000 302.497007 326.273095 -302.472980
517 47 2 0.000000 -36.776962 -314.474862 190.239581
518 47 3 0.000000 -30.876962 -314.474862 190.239581
519 47 3 0.000000 -24.976962 -314.474862 190.239581
520 47 4 0.000000 -19.076962 -314.474862 190.239581
521 47 3 0.000000 -13.176962 -314.474862 190.239581
522 47 4 0.000000 -7.276962 -314.474862 190.239581
523 47 1 0.000000 -1.376962 -314.474862 190.239581
524 47 1 0.000000 4.523038 -314.474862 190.239581
525 47 3 0.000000 10.423038 -314.474862 190.239581
526 47 1 0.000000 16.323038 -314.474862 190.239581
527 48 2 0.000000 167.509133 -271.274231 -18.043864
528 48 3 0.000000 173.409133 -271.274231 -18.043864
529 48 3 0.000000 179.309133 -271.274231 -18.043864
530 48 4 0.000000 185.209133 -271.274231 -18.043864
531 48 3 0.000000 191.109133 -271.274231 -18.043864
532 48 4 0.000000 197.009133 -271.274231 -18.043864
533 48 1 0.000000 202.909133 -271.274231 -18.043864
534 48 1 0.000000 208.809133 -271.274231 -18.043864
535 48 3 0.000000 214.709133 -271.274231 -18.043864
536 48 1 0.000000 220.609133 -271.274231 -18.043864
537 49 2 0.000000 9.806623 -171.508661 271.876120
538 49 3 0.000000 15.706623 -171.508661 271.876120
539 49 3 0.000000 21.606623 -171.508661 271.876120
540 49 4 0.000000 27.506623 -171.508661 271.876120
541 49 3 0.000000 33.406623 -171.508661 271.876120
542 49 4 0.000000 39.306623 -171.508661 271.876120
543 49 1 0.000000 45.206623 -171.508661 271.876120
544 49 1 0.000000 51.106623 -171.508661 271.876120
545 49 3 0.000000 57.006623 -171.508661 271.876120
546 49 1 0.000000 62.906623 -171.508661 271.876120
547 50 2 0.000000 -82.659304 -210.387310 28.686145
548 50 3 0.000000 -76.759304 -210.387310 28.686145
549 50 3 0.000000 -70.859304 -210.387310 28.686145
550 50 4 0.000000 -64.959304 -210.387310 28.686145
551 50 3 0.000000 -59.059304 -210.387310 28.686145
552 50 4 0.000000 -53.159304 -210.387310 28.686145
553 50 1 0.000000 -47.259304 -210.387310 28.686145
554 50 1 0.000000 -41.359304 -210.387310 28.686145
555 50 3 0.000000 -35.459304 -210.387310 28.686145
556 50 1 0.000000 -29.559304 -210.387310 28.686145
557 51 2 0.000000 141.299680 -218.159724 -137.447107
558 51 3 0.000000 147.199680 -218.159724 -137.447107
559 51 3 0.000000 153.099680 -218.159724 -137.447107
560 51 4 0.000000 158.999680 -218.159724 -137.447107
561 51 3 0.000000 164.899680 -218.159724 -137.447107
562 51 4 0.000000 170.799680 -218.159724 -137.447107
563 51 1 0.000000 176.699680 -218.159724 -137.447107
564 51 1 0.000000 182.599680 -218.159724 -137.447107
565 51 3 0.000000 188.499680 -218.159724 -137.447107
566 51 1 0.000000 194.399680 -218.159724 -137.447107
567 52 2 0.000000 334.909030 109.410982 -45.186939
568 52 3 0.000000 340.809030 109.410982 -45.186939
569 52 3 0.000000 346.709030 109.410982 -45.186939
570 52 4 0.000000 352.609030 109.410982 -45.186939
571 52 3 0.000000 358.509030 109.410982 -45.186939
572 52 4 0.000000 364.409030 109.410982 -45.186939
573 52 1 0.000000 370.309030 109.410982 -45.186939
574 52 1 0.000000 376.209030 109.410982 -45.186939
575 52 3 0.000000 382.109030 109.410982 -45.186939
576 52 1 0.000000 388.009030 109.410982 -45.186939
577 53 2 0.000000 -13.719636 -276.666937 -200.970944
578 53 3 0.000000 -7.819636 -276.666937 -200.970944
579 53 3 0.000000 -1.919636 -276.666937 -200.970944
580 53 4 0.000000 3.980364 -276.666937 -200.970944
581 53 3 0.000000 9.880364 -276.666937 -200.970944
582 53 4 0.000000 15.780364 -276.666937 -200.970944
583 53 1 0.000000 21.680364 -276.666937 -200.970944
584 53 1 0.000000 27.580364 -276.666937 -200.970944
585 53 3 0.000000 33.480364 -276.666937 -200.970944