LAMMPS data file — Week 13 combined RNA+ASO | target=7LYJ | aso=CGGUGUAAGA | n_aso=300 | box=±540.0

3066 atoms
2765 bonds
2464 angles

4 atom types
1 bond types
1 angle types

-540.000000  540.000000  xlo xhi
-540.000000  540.000000  ylo yhi
-540.000000  540.000000  zlo zhi

Masses

1 329.20
2 305.20
3 345.20
4 306.20

Atoms

1 1 2 0.000000 20.000000 0.000000 0.000000
2 1 3 0.000000 25.900000 0.000000 0.000000
3 1 3 0.000000 31.800000 0.000000 0.000000
4 1 4 0.000000 37.700000 0.000000 0.000000
5 1 3 0.000000 43.600000 0.000000 0.000000
6 1 4 0.000000 49.500000 0.000000 0.000000
7 1 1 0.000000 55.400000 0.000000 0.000000
8 1 1 0.000000 61.300000 0.000000 0.000000
9 1 3 0.000000 67.200000 0.000000 0.000000
10 1 1 0.000000 73.100000 0.000000 0.000000
11 2 2 0.000000 2.035273 -1.454939 -5.263727
12 2 3 0.000000 -0.766727 -6.502939 -4.423727
13 2 3 0.000000 -5.322727 -9.458939 -2.332727
14 2 4 0.000000 -10.686727 -9.262939 -0.255727
15 2 3 0.000000 -15.665727 -6.447939 0.528273
16 2 4 0.000000 -19.019727 -1.928939 -0.557727
17 2 1 0.000000 -20.236727 2.554061 -3.887727
18 2 1 0.000000 -19.405727 5.849061 -8.575727
19 2 3 0.000000 -17.035727 6.677061 -13.786727
20 2 4 0.000000 -13.810727 7.693061 -18.960727
21 2 3 0.000000 -13.521727 5.320061 -24.051727
22 2 2 0.000000 -18.390727 4.604061 -27.166727
23 2 1 0.000000 -22.751727 7.610061 -27.785727
24 2 3 0.000000 -25.251727 5.661061 -23.033727
25 2 2 0.000000 -25.745727 1.848061 -18.688727
26 2 2 0.000000 -24.206727 -3.020939 -15.814727
27 2 2 0.000000 -20.286727 -6.736939 -13.593727
28 2 3 0.000000 -14.834727 -6.812939 -12.274727
29 2 4 0.000000 -8.925727 -7.221939 -11.874727
30 2 2 0.000000 -6.745727 -2.241939 -13.668727
31 2 4 0.000000 -6.538727 3.008061 -11.259727
32 2 4 0.000000 -7.523727 6.594061 -6.898727
33 2 1 0.000000 -9.390727 7.820061 -1.549727
34 2 2 0.000000 -10.140727 5.948061 3.775273
35 2 1 0.000000 -9.804727 1.844061 7.813273
36 2 2 0.000000 -7.241727 -3.010939 9.473273
37 2 2 0.000000 -2.778727 -6.626939 8.991273
38 2 3 0.000000 2.464273 -7.569939 6.688273
39 2 4 0.000000 7.381273 -6.270939 3.771273
40 2 3 0.000000 11.599273 -2.655939 2.100273
41 2 2 0.000000 13.877273 2.429061 3.110273
42 2 3 0.000000 14.500273 6.997061 6.554273
43 2 3 0.000000 13.887273 9.351061 11.861273
44 2 2 0.000000 13.523273 8.204061 17.492273
45 2 1 0.000000 13.130273 4.623061 22.042273
46 2 2 0.000000 14.430273 -0.441939 24.179273
47 2 1 0.000000 17.276273 -5.486939 23.807273
48 2 3 0.000000 22.093273 -8.256939 22.139273
49 2 2 0.000000 27.474273 -7.575939 20.369273
50 2 3 0.000000 31.969273 -4.069939 19.780273
51 2 3 0.000000 34.498273 0.513061 22.126273
52 2 1 0.000000 33.791273 3.040061 26.728273
53 2 1 0.000000 29.810273 7.000061 25.579273
54 2 1 0.000000 26.899273 10.524061 22.081273
55 2 2 0.000000 25.405273 7.851061 17.130273
56 2 3 0.000000 25.814273 3.866061 12.902273
57 2 2 0.000000 24.186273 -1.092939 10.458273
58 2 4 0.000000 20.341273 -5.274939 10.305273
59 2 3 0.000000 15.309273 -7.991939 11.820273
60 2 1 0.000000 10.426273 -10.435939 13.459273
61 2 4 0.000000 7.382273 -6.375939 16.757273
62 2 3 0.000000 3.976273 -1.856939 18.047273
63 2 4 0.000000 2.429273 3.736061 15.827273
64 2 2 0.000000 2.390273 8.217061 12.228273
65 2 3 0.000000 2.786273 9.779061 6.734273
66 2 4 0.000000 3.549273 8.281061 1.271273
67 2 1 0.000000 3.573273 5.537061 -4.116727
68 2 4 0.000000 0.140273 6.240061 -8.650727
69 2 1 0.000000 -2.881727 6.096061 -14.228727
70 2 2 0.000000 -6.216727 2.494061 -18.233727
71 2 1 0.000000 -7.540727 -3.007939 -21.438727
72 2 3 0.000000 -10.077727 -7.610939 -22.929727
73 2 3 0.000000 -15.905727 -9.772939 -23.759727
74 2 3 0.000000 -21.609727 -9.830939 -24.399727
75 2 2 0.000000 -26.818727 -7.906939 -26.148727
76 2 4 0.000000 -31.268727 -3.593939 -28.320727
77 3 2 0.000000 121.242406 -503.488599 -238.468923
78 3 3 0.000000 127.142406 -503.488599 -238.468923
79 3 3 0.000000 133.042406 -503.488599 -238.468923
80 3 4 0.000000 138.942406 -503.488599 -238.468923
81 3 3 0.000000 144.842406 -503.488599 -238.468923
82 3 4 0.000000 150.742406 -503.488599 -238.468923
83 3 1 0.000000 156.642406 -503.488599 -238.468923
84 3 1 0.000000 162.542406 -503.488599 -238.468923
85 3 3 0.000000 168.442406 -503.488599 -238.468923
86 3 1 0.000000 174.342406 -503.488599 -238.468923
87 4 2 0.000000 -319.946618 250.659487 187.301457
88 4 3 0.000000 -314.046618 250.659487 187.301457
89 4 3 0.000000 -308.146618 250.659487 187.301457
90 4 4 0.000000 -302.246618 250.659487 187.301457
91 4 3 0.000000 -296.346618 250.659487 187.301457
92 4 4 0.000000 -290.446618 250.659487 187.301457
93 4 1 0.000000 -284.546618 250.659487 187.301457
94 4 1 0.000000 -278.646618 250.659487 187.301457
95 4 3 0.000000 -272.746618 250.659487 187.301457
96 4 1 0.000000 -266.846618 250.659487 187.301457
97 5 2 0.000000 389.160342 -437.844837 -82.762871
98 5 3 0.000000 395.060342 -437.844837 -82.762871
99 5 3 0.000000 400.960342 -437.844837 -82.762871
100 5 4 0.000000 406.860342 -437.844837 -82.762871
101 5 3 0.000000 412.760342 -437.844837 -82.762871
102 5 4 0.000000 418.660342 -437.844837 -82.762871
103 5 1 0.000000 424.560342 -437.844837 -82.762871
104 5 1 0.000000 430.460342 -437.844837 -82.762871
105 5 3 0.000000 436.360342 -437.844837 -82.762871
106 5 1 0.000000 442.260342 -437.844837 -82.762871
107 6 2 0.000000 -524.964947 -298.243747 5.676605
108 6 3 0.000000 -519.064947 -298.243747 5.676605
109 6 3 0.000000 -513.164947 -298.243747 5.676605
110 6 4 0.000000 -507.264947 -298.243747 5.676605
111 6 3 0.000000 -501.364947 -298.243747 5.676605
112 6 4 0.000000 -495.464947 -298.243747 5.676605
113 6 1 0.000000 -489.564947 -298.243747 5.676605
114 6 1 0.000000 -483.664947 -298.243747 5.676605
115 6 3 0.000000 -477.764947 -298.243747 5.676605
116 6 1 0.000000 -471.864947 -298.243747 5.676605
117 7 2 0.000000 -528.421872 -319.232090 158.877504
118 7 3 0.000000 -522.521872 -319.232090 158.877504
119 7 3 0.000000 -516.621872 -319.232090 158.877504
120 7 4 0.000000 -510.721872 -319.232090 158.877504
121 7 3 0.000000 -504.821872 -319.232090 158.877504
122 7 4 0.000000 -498.921872 -319.232090 158.877504
123 7 1 0.000000 -493.021872 -319.232090 158.877504
124 7 1 0.000000 -487.121872 -319.232090 158.877504
125 7 3 0.000000 -481.221872 -319.232090 158.877504
126 7 1 0.000000 -475.321872 -319.232090 158.877504
127 8 2 0.000000 21.087969 -296.332941 94.621625
128 8 3 0.000000 26.987969 -296.332941 94.621625
129 8 3 0.000000 32.887969 -296.332941 94.621625
130 8 4 0.000000 38.787969 -296.332941 94.621625
131 8 3 0.000000 44.687969 -296.332941 94.621625
132 8 4 0.000000 50.587969 -296.332941 94.621625
133 8 1 0.000000 56.487969 -296.332941 94.621625
134 8 1 0.000000 62.387969 -296.332941 94.621625
135 8 3 0.000000 68.287969 -296.332941 94.621625
136 8 1 0.000000 74.187969 -296.332941 94.621625
137 9 2 0.000000 301.446284 -523.111315 324.168407
138 9 3 0.000000 307.346284 -523.111315 324.168407
139 9 3 0.000000 313.246284 -523.111315 324.168407
140 9 4 0.000000 319.146284 -523.111315 324.168407
141 9 3 0.000000 325.046284 -523.111315 324.168407
142 9 4 0.000000 330.946284 -523.111315 324.168407
143 9 1 0.000000 336.846284 -523.111315 324.168407
144 9 1 0.000000 342.746284 -523.111315 324.168407
145 9 3 0.000000 348.646284 -523.111315 324.168407
146 9 1 0.000000 354.546284 -523.111315 324.168407
147 10 2 0.000000 183.477759 -169.334452 -365.191730
148 10 3 0.000000 189.377759 -169.334452 -365.191730
149 10 3 0.000000 195.277759 -169.334452 -365.191730
150 10 4 0.000000 201.177759 -169.334452 -365.191730
151 10 3 0.000000 207.077759 -169.334452 -365.191730
152 10 4 0.000000 212.977759 -169.334452 -365.191730
153 10 1 0.000000 218.877759 -169.334452 -365.191730
154 10 1 0.000000 224.777759 -169.334452 -365.191730
155 10 3 0.000000 230.677759 -169.334452 -365.191730
156 10 1 0.000000 236.577759 -169.334452 -365.191730
157 11 2 0.000000 458.095857 -173.209782 -431.689406
158 11 3 0.000000 463.995857 -173.209782 -431.689406
159 11 3 0.000000 469.895857 -173.209782 -431.689406
160 11 4 0.000000 475.795857 -173.209782 -431.689406
161 11 3 0.000000 481.695857 -173.209782 -431.689406
162 11 4 0.000000 487.595857 -173.209782 -431.689406
163 11 1 0.000000 493.495857 -173.209782 -431.689406
164 11 1 0.000000 499.395857 -173.209782 -431.689406
165 11 3 0.000000 505.295857 -173.209782 -431.689406
166 11 1 0.000000 511.195857 -173.209782 -431.689406
167 12 2 0.000000 -454.030641 368.344028 109.949593
168 12 3 0.000000 -448.130641 368.344028 109.949593
169 12 3 0.000000 -442.230641 368.344028 109.949593
170 12 4 0.000000 -436.330641 368.344028 109.949593
171 12 3 0.000000 -430.430641 368.344028 109.949593
172 12 4 0.000000 -424.530641 368.344028 109.949593
173 12 1 0.000000 -418.630641 368.344028 109.949593
174 12 1 0.000000 -412.730641 368.344028 109.949593
175 12 3 0.000000 -406.830641 368.344028 109.949593
176 12 1 0.000000 -400.930641 368.344028 109.949593
177 13 2 0.000000 299.005970 243.515694 38.401777
178 13 3 0.000000 304.905970 243.515694 38.401777
179 13 3 0.000000 310.805970 243.515694 38.401777
180 13 4 0.000000 316.705970 243.515694 38.401777
181 13 3 0.000000 322.605970 243.515694 38.401777
182 13 4 0.000000 328.505970 243.515694 38.401777
183 13 1 0.000000 334.405970 243.515694 38.401777
184 13 1 0.000000 340.305970 243.515694 38.401777
185 13 3 0.000000 346.205970 243.515694 38.401777
186 13 1 0.000000 352.105970 243.515694 38.401777
187 14 2 0.000000 474.952710 -128.753560 55.163069
188 14 3 0.000000 480.852710 -128.753560 55.163069
189 14 3 0.000000 486.752710 -128.753560 55.163069
190 14 4 0.000000 492.652710 -128.753560 55.163069
191 14 3 0.000000 498.552710 -128.753560 55.163069
192 14 4 0.000000 504.452710 -128.753560 55.163069
193 14 1 0.000000 510.352710 -128.753560 55.163069
194 14 1 0.000000 516.252710 -128.753560 55.163069
195 14 3 0.000000 522.152710 -128.753560 55.163069
196 14 1 0.000000 528.052710 -128.753560 55.163069
197 15 2 0.000000 322.618944 125.630938 383.409314
198 15 3 0.000000 328.518944 125.630938 383.409314
199 15 3 0.000000 334.418944 125.630938 383.409314
200 15 4 0.000000 340.318944 125.630938 383.409314
201 15 3 0.000000 346.218944 125.630938 383.409314
202 15 4 0.000000 352.118944 125.630938 383.409314
203 15 1 0.000000 358.018944 125.630938 383.409314
204 15 1 0.000000 363.918944 125.630938 383.409314
205 15 3 0.000000 369.818944 125.630938 383.409314
206 15 1 0.000000 375.718944 125.630938 383.409314
207 16 2 0.000000 55.443274 216.846146 -481.426153
208 16 3 0.000000 61.343274 216.846146 -481.426153
209 16 3 0.000000 67.243274 216.846146 -481.426153
210 16 4 0.000000 73.143274 216.846146 -481.426153
211 16 3 0.000000 79.043274 216.846146 -481.426153
212 16 4 0.000000 84.943274 216.846146 -481.426153
213 16 1 0.000000 90.843274 216.846146 -481.426153
214 16 1 0.000000 96.743274 216.846146 -481.426153
215 16 3 0.000000 102.643274 216.846146 -481.426153
216 16 1 0.000000 108.543274 216.846146 -481.426153
217 17 2 0.000000 -314.977828 -223.248759 -445.420504
218 17 3 0.000000 -309.077828 -223.248759 -445.420504
219 17 3 0.000000 -303.177828 -223.248759 -445.420504
220 17 4 0.000000 -297.277828 -223.248759 -445.420504
221 17 3 0.000000 -291.377828 -223.248759 -445.420504
222 17 4 0.000000 -285.477828 -223.248759 -445.420504
223 17 1 0.000000 -279.577828 -223.248759 -445.420504
224 17 1 0.000000 -273.677828 -223.248759 -445.420504
225 17 3 0.000000 -267.777828 -223.248759 -445.420504
226 17 1 0.000000 -261.877828 -223.248759 -445.420504
227 18 2 0.000000 -309.791660 -422.938485 -235.347981
228 18 3 0.000000 -303.891660 -422.938485 -235.347981
229 18 3 0.000000 -297.991660 -422.938485 -235.347981
230 18 4 0.000000 -292.091660 -422.938485 -235.347981
231 18 3 0.000000 -286.191660 -422.938485 -235.347981
232 18 4 0.000000 -280.291660 -422.938485 -235.347981
233 18 1 0.000000 -274.391660 -422.938485 -235.347981
234 18 1 0.000000 -268.491660 -422.938485 -235.347981
235 18 3 0.000000 -262.591660 -422.938485 -235.347981
236 18 1 0.000000 -256.691660 -422.938485 -235.347981
237 19 2 0.000000 117.275511 -143.277890 -137.608175
238 19 3 0.000000 123.175511 -143.277890 -137.608175
239 19 3 0.000000 129.075511 -143.277890 -137.608175
240 19 4 0.000000 134.975511 -143.277890 -137.608175
241 19 3 0.000000 140.875511 -143.277890 -137.608175
242 19 4 0.000000 146.775511 -143.277890 -137.608175
243 19 1 0.000000 152.675511 -143.277890 -137.608175
244 19 1 0.000000 158.575511 -143.277890 -137.608175
245 19 3 0.000000 164.475511 -143.277890 -137.608175
246 19 1 0.000000 170.375511 -143.277890 -137.608175
247 20 2 0.000000 -334.472547 -247.003509 462.853863
248 20 3 0.000000 -328.572547 -247.003509 462.853863
249 20 3 0.000000 -322.672547 -247.003509 462.853863
250 20 4 0.000000 -316.772547 -247.003509 462.853863
251 20 3 0.000000 -310.872547 -247.003509 462.853863
252 20 4 0.000000 -304.972547 -247.003509 462.853863
253 20 1 0.000000 -299.072547 -247.003509 462.853863
254 20 1 0.000000 -293.172547 -247.003509 462.853863
255 20 3 0.000000 -287.272547 -247.003509 462.853863
256 20 1 0.000000 -281.372547 -247.003509 462.853863
257 21 2 0.000000 130.367508 115.678866 -348.593033
258 21 3 0.000000 136.267508 115.678866 -348.593033
259 21 3 0.000000 142.167508 115.678866 -348.593033
260 21 4 0.000000 148.067508 115.678866 -348.593033
261 21 3 0.000000 153.967508 115.678866 -348.593033
262 21 4 0.000000 159.867508 115.678866 -348.593033
263 21 1 0.000000 165.767508 115.678866 -348.593033
264 21 1 0.000000 171.667508 115.678866 -348.593033
265 21 3 0.000000 177.567508 115.678866 -348.593033
266 21 1 0.000000 183.467508 115.678866 -348.593033
267 22 2 0.000000 216.324406 -356.793357 -127.777232
268 22 3 0.000000 222.224406 -356.793357 -127.777232
269 22 3 0.000000 228.124406 -356.793357 -127.777232
270 22 4 0.000000 234.024406 -356.793357 -127.777232
271 22 3 0.000000 239.924406 -356.793357 -127.777232
272 22 4 0.000000 245.824406 -356.793357 -127.777232
273 22 1 0.000000 251.724406 -356.793357 -127.777232
274 22 1 0.000000 257.624406 -356.793357 -127.777232
275 22 3 0.000000 263.524406 -356.793357 -127.777232
276 22 1 0.000000 269.424406 -356.793357 -127.777232
277 23 2 0.000000 492.344752 148.399745 60.366728
278 23 3 0.000000 498.244752 148.399745 60.366728
279 23 3 0.000000 504.144752 148.399745 60.366728
280 23 4 0.000000 510.044752 148.399745 60.366728
281 23 3 0.000000 515.944752 148.399745 60.366728
282 23 4 0.000000 521.844752 148.399745 60.366728
283 23 1 0.000000 527.744752 148.399745 60.366728
284 23 1 0.000000 533.644752 148.399745 60.366728
285 23 3 0.000000 539.544752 148.399745 60.366728
286 23 1 0.000000 545.444752 148.399745 60.366728
287 24 2 0.000000 169.141106 363.423035 292.559906
288 24 3 0.000000 175.041106 363.423035 292.559906
289 24 3 0.000000 180.941106 363.423035 292.559906
290 24 4 0.000000 186.841106 363.423035 292.559906
291 24 3 0.000000 192.741106 363.423035 292.559906
292 24 4 0.000000 198.641106 363.423035 292.559906
293 24 1 0.000000 204.541106 363.423035 292.559906
294 24 1 0.000000 210.441106 363.423035 292.559906
295 24 3 0.000000 216.341106 363.423035 292.559906
296 24 1 0.000000 222.241106 363.423035 292.559906
297 25 2 0.000000 -313.759044 -495.973741 -195.619769
298 25 3 0.000000 -307.859044 -495.973741 -195.619769
299 25 3 0.000000 -301.959044 -495.973741 -195.619769
300 25 4 0.000000 -296.059044 -495.973741 -195.619769
301 25 3 0.000000 -290.159044 -495.973741 -195.619769
302 25 4 0.000000 -284.259044 -495.973741 -195.619769
303 25 1 0.000000 -278.359044 -495.973741 -195.619769
304 25 1 0.000000 -272.459044 -495.973741 -195.619769
305 25 3 0.000000 -266.559044 -495.973741 -195.619769
306 25 1 0.000000 -260.659044 -495.973741 -195.619769
307 26 2 0.000000 -272.744671 -306.358186 469.484297
308 26 3 0.000000 -266.844671 -306.358186 469.484297
309 26 3 0.000000 -260.944671 -306.358186 469.484297
310 26 4 0.000000 -255.044671 -306.358186 469.484297
311 26 3 0.000000 -249.144671 -306.358186 469.484297
312 26 4 0.000000 -243.244671 -306.358186 469.484297
313 26 1 0.000000 -237.344671 -306.358186 469.484297
314 26 1 0.000000 -231.444671 -306.358186 469.484297
315 26 3 0.000000 -225.544671 -306.358186 469.484297
316 26 1 0.000000 -219.644671 -306.358186 469.484297
317 27 2 0.000000 372.399684 -196.441446 164.764985
318 27 3 0.000000 378.299684 -196.441446 164.764985
319 27 3 0.000000 384.199684 -196.441446 164.764985
320 27 4 0.000000 390.099684 -196.441446 164.764985
321 27 3 0.000000 395.999684 -196.441446 164.764985
322 27 4 0.000000 401.899684 -196.441446 164.764985
323 27 1 0.000000 407.799684 -196.441446 164.764985
324 27 1 0.000000 413.699684 -196.441446 164.764985
325 27 3 0.000000 419.599684 -196.441446 164.764985
326 27 1 0.000000 425.499684 -196.441446 164.764985
327 28 2 0.000000 -137.180185 439.420445 -43.617036
328 28 3 0.000000 -131.280185 439.420445 -43.617036
329 28 3 0.000000 -125.380185 439.420445 -43.617036
330 28 4 0.000000 -119.480185 439.420445 -43.617036
331 28 3 0.000000 -113.580185 439.420445 -43.617036
332 28 4 0.000000 -107.680185 439.420445 -43.617036
333 28 1 0.000000 -101.780185 439.420445 -43.617036
334 28 1 0.000000 -95.880185 439.420445 -43.617036
335 28 3 0.000000 -89.980185 439.420445 -43.617036
336 28 1 0.000000 -84.080185 439.420445 -43.617036
337 29 2 0.000000 -275.777024 -268.574842 65.050222
338 29 3 0.000000 -269.877024 -268.574842 65.050222
339 29 3 0.000000 -263.977024 -268.574842 65.050222
340 29 4 0.000000 -258.077024 -268.574842 65.050222
341 29 3 0.000000 -252.177024 -268.574842 65.050222
342 29 4 0.000000 -246.277024 -268.574842 65.050222
343 29 1 0.000000 -240.377024 -268.574842 65.050222
344 29 1 0.000000 -234.477024 -268.574842 65.050222
345 29 3 0.000000 -228.577024 -268.574842 65.050222
346 29 1 0.000000 -222.677024 -268.574842 65.050222
347 30 2 0.000000 -278.043895 89.661150 421.692257
348 30 3 0.000000 -272.143895 89.661150 421.692257
349 30 3 0.000000 -266.243895 89.661150 421.692257
350 30 4 0.000000 -260.343895 89.661150 421.692257
351 30 3 0.000000 -254.443895 89.661150 421.692257
352 30 4 0.000000 -248.543895 89.661150 421.692257
353 30 1 0.000000 -242.643895 89.661150 421.692257
354 30 1 0.000000 -236.743895 89.661150 421.692257
355 30 3 0.000000 -230.843895 89.661150 421.692257
356 30 1 0.000000 -224.943895 89.661150 421.692257
357 31 2 0.000000 -133.185465 -297.519995 527.389863
358 31 3 0.000000 -127.285465 -297.519995 527.389863
359 31 3 0.000000 -121.385465 -297.519995 527.389863
360 31 4 0.000000 -115.485465 -297.519995 527.389863
361 31 3 0.000000 -109.585465 -297.519995 527.389863
362 31 4 0.000000 -103.685465 -297.519995 527.389863
363 31 1 0.000000 -97.785465 -297.519995 527.389863
364 31 1 0.000000 -91.885465 -297.519995 527.389863
365 31 3 0.000000 -85.985465 -297.519995 527.389863
366 31 1 0.000000 -80.085465 -297.519995 527.389863
367 32 2 0.000000 -16.452129 -433.636023 -480.056642
368 32 3 0.000000 -10.552129 -433.636023 -480.056642
369 32 3 0.000000 -4.652129 -433.636023 -480.056642
370 32 4 0.000000 1.247871 -433.636023 -480.056642
371 32 3 0.000000 7.147871 -433.636023 -480.056642
372 32 4 0.000000 13.047871 -433.636023 -480.056642
373 32 1 0.000000 18.947871 -433.636023 -480.056642
374 32 1 0.000000 24.847871 -433.636023 -480.056642
375 32 3 0.000000 30.747871 -433.636023 -480.056642
376 32 1 0.000000 36.647871 -433.636023 -480.056642
377 33 2 0.000000 -440.321922 135.092804 309.604126
378 33 3 0.000000 -434.421922 135.092804 309.604126
379 33 3 0.000000 -428.521922 135.092804 309.604126
380 33 4 0.000000 -422.621922 135.092804 309.604126
381 33 3 0.000000 -416.721922 135.092804 309.604126
382 33 4 0.000000 -410.821922 135.092804 309.604126
383 33 1 0.000000 -404.921922 135.092804 309.604126
384 33 1 0.000000 -399.021922 135.092804 309.604126
385 33 3 0.000000 -393.121922 135.092804 309.604126
386 33 1 0.000000 -387.221922 135.092804 309.604126
387 34 2 0.000000 -109.060435 -462.660631 -125.483556
388 34 3 0.000000 -103.160435 -462.660631 -125.483556
389 34 3 0.000000 -97.260435 -462.660631 -125.483556
390 34 4 0.000000 -91.360435 -462.660631 -125.483556
391 34 3 0.000000 -85.460435 -462.660631 -125.483556
392 34 4 0.000000 -79.560435 -462.660631 -125.483556
393 34 1 0.000000 -73.660435 -462.660631 -125.483556
394 34 1 0.000000 -67.760435 -462.660631 -125.483556
395 34 3 0.000000 -61.860435 -462.660631 -125.483556
396 34 1 0.000000 -55.960435 -462.660631 -125.483556
397 35 2 0.000000 499.338663 30.861206 499.343080
398 35 3 0.000000 505.238663 30.861206 499.343080
399 35 3 0.000000 511.138663 30.861206 499.343080
400 35 4 0.000000 517.038663 30.861206 499.343080
401 35 3 0.000000 522.938663 30.861206 499.343080
402 35 4 0.000000 528.838663 30.861206 499.343080
403 35 1 0.000000 534.738663 30.861206 499.343080
404 35 1 0.000000 540.638663 30.861206 499.343080
405 35 3 0.000000 546.538663 30.861206 499.343080
406 35 1 0.000000 552.438663 30.861206 499.343080
407 36 2 0.000000 355.876484 -517.830117 233.965129
408 36 3 0.000000 361.776484 -517.830117 233.965129
409 36 3 0.000000 367.676484 -517.830117 233.965129
410 36 4 0.000000 373.576484 -517.830117 233.965129
411 36 3 0.000000 379.476484 -517.830117 233.965129
412 36 4 0.000000 385.376484 -517.830117 233.965129
413 36 1 0.000000 391.276484 -517.830117 233.965129
414 36 1 0.000000 397.176484 -517.830117 233.965129
415 36 3 0.000000 403.076484 -517.830117 233.965129
416 36 1 0.000000 408.976484 -517.830117 233.965129
417 37 2 0.000000 166.062991 39.188550 -247.165299
418 37 3 0.000000 171.962991 39.188550 -247.165299
419 37 3 0.000000 177.862991 39.188550 -247.165299
420 37 4 0.000000 183.762991 39.188550 -247.165299
421 37 3 0.000000 189.662991 39.188550 -247.165299
422 37 4 0.000000 195.562991 39.188550 -247.165299
423 37 1 0.000000 201.462991 39.188550 -247.165299
424 37 1 0.000000 207.362991 39.188550 -247.165299
425 37 3 0.000000 213.262991 39.188550 -247.165299
426 37 1 0.000000 219.162991 39.188550 -247.165299
427 38 2 0.000000 122.869506 -411.754696 -69.148834
428 38 3 0.000000 128.769506 -411.754696 -69.148834
429 38 3 0.000000 134.669506 -411.754696 -69.148834
430 38 4 0.000000 140.569506 -411.754696 -69.148834
431 38 3 0.000000 146.469506 -411.754696 -69.148834
432 38 4 0.000000 152.369506 -411.754696 -69.148834
433 38 1 0.000000 158.269506 -411.754696 -69.148834
434 38 1 0.000000 164.169506 -411.754696 -69.148834
435 38 3 0.000000 170.069506 -411.754696 -69.148834
436 38 1 0.000000 175.969506 -411.754696 -69.148834
437 39 2 0.000000 -75.602871 481.044883 398.404117
438 39 3 0.000000 -69.702871 481.044883 398.404117
439 39 3 0.000000 -63.802871 481.044883 398.404117
440 39 4 0.000000 -57.902871 481.044883 398.404117
441 39 3 0.000000 -52.002871 481.044883 398.404117
442 39 4 0.000000 -46.102871 481.044883 398.404117
443 39 1 0.000000 -40.202871 481.044883 398.404117
444 39 1 0.000000 -34.302871 481.044883 398.404117
445 39 3 0.000000 -28.402871 481.044883 398.404117
446 39 1 0.000000 -22.502871 481.044883 398.404117
447 40 2 0.000000 -277.357606 0.621280 -340.629007
448 40 3 0.000000 -271.457606 0.621280 -340.629007
449 40 3 0.000000 -265.557606 0.621280 -340.629007
450 40 4 0.000000 -259.657606 0.621280 -340.629007
451 40 3 0.000000 -253.757606 0.621280 -340.629007
452 40 4 0.000000 -247.857606 0.621280 -340.629007
453 40 1 0.000000 -241.957606 0.621280 -340.629007
454 40 1 0.000000 -236.057606 0.621280 -340.629007
455 40 3 0.000000 -230.157606 0.621280 -340.629007
456 40 1 0.000000 -224.257606 0.621280 -340.629007
457 41 2 0.000000 410.835510 392.749684 -213.648521
458 41 3 0.000000 416.735510 392.749684 -213.648521
459 41 3 0.000000 422.635510 392.749684 -213.648521
460 41 4 0.000000 428.535510 392.749684 -213.648521
461 41 3 0.000000 434.435510 392.749684 -213.648521
462 41 4 0.000000 440.335510 392.749684 -213.648521
463 41 1 0.000000 446.235510 392.749684 -213.648521
464 41 1 0.000000 452.135510 392.749684 -213.648521
465 41 3 0.000000 458.035510 392.749684 -213.648521
466 41 1 0.000000 463.935510 392.749684 -213.648521
467 42 2 0.000000 120.736465 115.508424 -367.990375
468 42 3 0.000000 126.636465 115.508424 -367.990375
469 42 3 0.000000 132.536465 115.508424 -367.990375
470 42 4 0.000000 138.436465 115.508424 -367.990375
471 42 3 0.000000 144.336465 115.508424 -367.990375
472 42 4 0.000000 150.236465 115.508424 -367.990375
473 42 1 0.000000 156.136465 115.508424 -367.990375
474 42 1 0.000000 162.036465 115.508424 -367.990375
475 42 3 0.000000 167.936465 115.508424 -367.990375
476 42 1 0.000000 173.836465 115.508424 -367.990375
477 43 2 0.000000 251.711448 41.741772 295.344067
478 43 3 0.000000 257.611448 41.741772 295.344067
479 43 3 0.000000 263.511448 41.741772 295.344067
480 43 4 0.000000 269.411448 41.741772 295.344067
481 43 3 0.000000 275.311448 41.741772 295.344067
482 43 4 0.000000 281.211448 41.741772 295.344067
483 43 1 0.000000 287.111448 41.741772 295.344067
484 43 1 0.000000 293.011448 41.741772 295.344067
485 43 3 0.000000 298.911448 41.741772 295.344067
486 43 1 0.000000 304.811448 41.741772 295.344067
487 44 2 0.000000 5.624893 -529.393790 -186.394580
488 44 3 0.000000 11.524893 -529.393790 -186.394580
489 44 3 0.000000 17.424893 -529.393790 -186.394580
490 44 4 0.000000 23.324893 -529.393790 -186.394580
491 44 3 0.000000 29.224893 -529.393790 -186.394580
492 44 4 0.000000 35.124893 -529.393790 -186.394580
493 44 1 0.000000 41.024893 -529.393790 -186.394580
494 44 1 0.000000 46.924893 -529.393790 -186.394580
495 44 3 0.000000 52.824893 -529.393790 -186.394580
496 44 1 0.000000 58.724893 -529.393790 -186.394580
497 45 2 0.000000 -535.904653 454.844533 401.445190
498 45 3 0.000000 -530.004653 454.844533 401.445190
499 45 3 0.000000 -524.104653 454.844533 401.445190
500 45 4 0.000000 -518.204653 454.844533 401.445190
501 45 3 0.000000 -512.304653 454.844533 401.445190
502 45 4 0.000000 -506.404653 454.844533 401.445190
503 45 1 0.000000 -500.504653 454.844533 401.445190
504 45 1 0.000000 -494.604653 454.844533 401.445190
505 45 3 0.000000 -488.704653 454.844533 401.445190
506 45 1 0.000000 -482.804653 454.844533 401.445190
507 46 2 0.000000 325.015461 -204.035027 -468.599324
508 46 3 0.000000 330.915461 -204.035027 -468.599324
509 46 3 0.000000 336.815461 -204.035027 -468.599324
510 46 4 0.000000 342.715461 -204.035027 -468.599324
511 46 3 0.000000 348.615461 -204.035027 -468.599324
512 46 4 0.000000 354.515461 -204.035027 -468.599324
513 46 1 0.000000 360.415461 -204.035027 -468.599324
514 46 1 0.000000 366.315461 -204.035027 -468.599324
515 46 3 0.000000 372.215461 -204.035027 -468.599324
516 46 1 0.000000 378.115461 -204.035027 -468.599324
517 47 2 0.000000 374.140175 473.766412 -439.207341
518 47 3 0.000000 380.040175 473.766412 -439.207341
519 47 3 0.000000 385.940175 473.766412 -439.207341
520 47 4 0.000000 391.840175 473.766412 -439.207341
521 47 3 0.000000 397.740175 473.766412 -439.207341
522 47 4 0.000000 403.640175 473.766412 -439.207341
523 47 1 0.000000 409.540175 473.766412 -439.207341
524 47 1 0.000000 415.440175 473.766412 -439.207341
525 47 3 0.000000 421.340175 473.766412 -439.207341
526 47 1 0.000000 427.240175 473.766412 -439.207341
527 48 2 0.000000 -41.400109 -456.634730 276.238295
528 48 3 0.000000 -35.500109 -456.634730 276.238295
529 48 3 0.000000 -29.600109 -456.634730 276.238295
530 48 4 0.000000 -23.700109 -456.634730 276.238295
531 48 3 0.000000 -17.800109 -456.634730 276.238295
532 48 4 0.000000 -11.900109 -456.634730 276.238295
533 48 1 0.000000 -6.000109 -456.634730 276.238295
534 48 1 0.000000 -0.100109 -456.634730 276.238295
535 48 3 0.000000 5.799891 -456.634730 276.238295
536 48 1 0.000000 11.699891 -456.634730 276.238295
537 49 2 0.000000 255.234495 -393.905048 -26.200679
538 49 3 0.000000 261.134495 -393.905048 -26.200679
539 49 3 0.000000 267.034495 -393.905048 -26.200679
540 49 4 0.000000 272.934495 -393.905048 -26.200679
541 49 3 0.000000 278.834495 -393.905048 -26.200679
542 49 4 0.000000 284.734495 -393.905048 -26.200679
543 49 1 0.000000 290.634495 -393.905048 -26.200679
544 49 1 0.000000 296.534495 -393.905048 -26.200679
545 49 3 0.000000 302.434495 -393.905048 -26.200679
546 49 1 0.000000 308.334495 -393.905048 -26.200679
547 50 2 0.000000 26.241809 -249.039973 394.779024
548 50 3 0.000000 32.141809 -249.039973 394.779024
549 50 3 0.000000 38.041809 -249.039973 394.779024
550 50 4 0.000000 43.941809 -249.039973 394.779024
551 50 3 0.000000 49.841809 -249.039973 394.779024
552 50 4 0.000000 55.741809 -249.039973 394.779024
553 50 1 0.000000 61.641809 -249.039973 394.779024
554 50 1 0.000000 67.541809 -249.039973 394.779024
555 50 3 0.000000 73.441809 -249.039973 394.779024
556 50 1 0.000000 79.341809 -249.039973 394.779024
557 51 2 0.000000 -108.023783 -305.493902 41.653854
558 51 3 0.000000 -102.123783 -305.493902 41.653854
559 51 3 0.000000 -96.223783 -305.493902 41.653854
560 51 4 0.000000 -90.323783 -305.493902 41.653854
561 51 3 0.000000 -84.423783 -305.493902 41.653854
562 51 4 0.000000 -78.523783 -305.493902 41.653854
563 51 1 0.000000 -72.623783 -305.493902 41.653854
564 51 1 0.000000 -66.723783 -305.493902 41.653854
565 51 3 0.000000 -60.823783 -305.493902 41.653854
566 51 1 0.000000 -54.923783 -305.493902 41.653854
567 52 2 0.000000 217.176933 -316.779873 -199.580731
568 52 3 0.000000 223.076933 -316.779873 -199.580731
569 52 3 0.000000 228.976933 -316.779873 -199.580731
570 52 4 0.000000 234.876933 -316.779873 -199.580731
571 52 3 0.000000 240.776933 -316.779873 -199.580731
572 52 4 0.000000 246.676933 -316.779873 -199.580731
573 52 1 0.000000 252.576933 -316.779873 -199.580731
574 52 1 0.000000 258.476933 -316.779873 -199.580731
575 52 3 0.000000 264.376933 -316.779873 -199.580731
576 52 1 0.000000 270.276933 -316.779873 -199.580731
577 53 2 0.000000 498.308318 158.870741 -65.613911
578 53 3 0.000000 504.208318 158.870741 -65.613911
579 53 3 0.000000 510.108318 158.870741 -65.613911
580 53 4 0.000000 516.008318 158.870741 -65.613911
581 53 3 0.000000 521.908318 158.870741 -65.613911
582 53 4 0.000000 527.808318 158.870741 -65.613911