LAMMPS data file — Week 13 combined RNA+ASO | target=7LYJ | aso=CGGUGUAAGA | n_aso=50 | box=±100.0

566 atoms
515 bonds
464 angles

4 atom types
1 bond types
1 angle types

-100.000000  100.000000  xlo xhi
-100.000000  100.000000  ylo yhi
-100.000000  100.000000  zlo zhi

Masses

1 329.20
2 305.20
3 345.20
4 306.20

Atoms

1 1 2 0.000000 25.000000 0.000000 0.000000
2 1 3 0.000000 30.900000 0.000000 0.000000
3 1 3 0.000000 36.800000 0.000000 0.000000
4 1 4 0.000000 42.700000 0.000000 0.000000
5 1 3 0.000000 48.600000 0.000000 0.000000
6 1 4 0.000000 54.500000 0.000000 0.000000
7 1 1 0.000000 60.400000 0.000000 0.000000
8 1 1 0.000000 66.300000 0.000000 0.000000
9 1 3 0.000000 72.200000 0.000000 0.000000
10 1 1 0.000000 78.100000 0.000000 0.000000
11 2 2 0.000000 2.035273 -1.454939 -5.263727
12 2 3 0.000000 -0.766727 -6.502939 -4.423727
13 2 3 0.000000 -5.322727 -9.458939 -2.332727
14 2 4 0.000000 -10.686727 -9.262939 -0.255727
15 2 3 0.000000 -15.665727 -6.447939 0.528273
16 2 4 0.000000 -19.019727 -1.928939 -0.557727
17 2 1 0.000000 -20.236727 2.554061 -3.887727
18 2 1 0.000000 -19.405727 5.849061 -8.575727
19 2 3 0.000000 -17.035727 6.677061 -13.786727
20 2 4 0.000000 -13.810727 7.693061 -18.960727
21 2 3 0.000000 -13.521727 5.320061 -24.051727
22 2 2 0.000000 -18.390727 4.604061 -27.166727
23 2 1 0.000000 -22.751727 7.610061 -27.785727
24 2 3 0.000000 -25.251727 5.661061 -23.033727
25 2 2 0.000000 -25.745727 1.848061 -18.688727
26 2 2 0.000000 -24.206727 -3.020939 -15.814727
27 2 2 0.000000 -20.286727 -6.736939 -13.593727
28 2 3 0.000000 -14.834727 -6.812939 -12.274727
29 2 4 0.000000 -8.925727 -7.221939 -11.874727
30 2 2 0.000000 -6.745727 -2.241939 -13.668727
31 2 4 0.000000 -6.538727 3.008061 -11.259727
32 2 4 0.000000 -7.523727 6.594061 -6.898727
33 2 1 0.000000 -9.390727 7.820061 -1.549727
34 2 2 0.000000 -10.140727 5.948061 3.775273
35 2 1 0.000000 -9.804727 1.844061 7.813273
36 2 2 0.000000 -7.241727 -3.010939 9.473273
37 2 2 0.000000 -2.778727 -6.626939 8.991273
38 2 3 0.000000 2.464273 -7.569939 6.688273
39 2 4 0.000000 7.381273 -6.270939 3.771273
40 2 3 0.000000 11.599273 -2.655939 2.100273
41 2 2 0.000000 13.877273 2.429061 3.110273
42 2 3 0.000000 14.500273 6.997061 6.554273
43 2 3 0.000000 13.887273 9.351061 11.861273
44 2 2 0.000000 13.523273 8.204061 17.492273
45 2 1 0.000000 13.130273 4.623061 22.042273
46 2 2 0.000000 14.430273 -0.441939 24.179273
47 2 1 0.000000 17.276273 -5.486939 23.807273
48 2 3 0.000000 22.093273 -8.256939 22.139273
49 2 2 0.000000 27.474273 -7.575939 20.369273
50 2 3 0.000000 31.969273 -4.069939 19.780273
51 2 3 0.000000 34.498273 0.513061 22.126273
52 2 1 0.000000 33.791273 3.040061 26.728273
53 2 1 0.000000 29.810273 7.000061 25.579273
54 2 1 0.000000 26.899273 10.524061 22.081273
55 2 2 0.000000 25.405273 7.851061 17.130273
56 2 3 0.000000 25.814273 3.866061 12.902273
57 2 2 0.000000 24.186273 -1.092939 10.458273
58 2 4 0.000000 20.341273 -5.274939 10.305273
59 2 3 0.000000 15.309273 -7.991939 11.820273
60 2 1 0.000000 10.426273 -10.435939 13.459273
61 2 4 0.000000 7.382273 -6.375939 16.757273
62 2 3 0.000000 3.976273 -1.856939 18.047273
63 2 4 0.000000 2.429273 3.736061 15.827273
64 2 2 0.000000 2.390273 8.217061 12.228273
65 2 3 0.000000 2.786273 9.779061 6.734273
66 2 4 0.000000 3.549273 8.281061 1.271273
67 2 1 0.000000 3.573273 5.537061 -4.116727
68 2 4 0.000000 0.140273 6.240061 -8.650727
69 2 1 0.000000 -2.881727 6.096061 -14.228727
70 2 2 0.000000 -6.216727 2.494061 -18.233727
71 2 1 0.000000 -7.540727 -3.007939 -21.438727
72 2 3 0.000000 -10.077727 -7.610939 -22.929727
73 2 3 0.000000 -15.905727 -9.772939 -23.759727
74 2 3 0.000000 -21.609727 -9.830939 -24.399727
75 2 2 0.000000 -26.818727 -7.906939 -26.148727
76 2 4 0.000000 -31.268727 -3.593939 -28.320727
77 3 2 0.000000 -1.453176 -85.498064 -40.494723
78 3 3 0.000000 4.446824 -85.498064 -40.494723
79 3 3 0.000000 10.346824 -85.498064 -40.494723
80 3 4 0.000000 16.246824 -85.498064 -40.494723
81 3 3 0.000000 22.146824 -85.498064 -40.494723
82 3 4 0.000000 28.046824 -85.498064 -40.494723
83 3 1 0.000000 33.946824 -85.498064 -40.494723
84 3 1 0.000000 39.846824 -85.498064 -40.494723
85 3 3 0.000000 45.746824 -85.498064 -40.494723
86 3 1 0.000000 51.646824 -85.498064 -40.494723
87 4 2 0.000000 -76.372067 42.564819 31.805908
88 4 3 0.000000 -70.472067 42.564819 31.805908
89 4 3 0.000000 -64.572067 42.564819 31.805908
90 4 4 0.000000 -58.672067 42.564819 31.805908
91 4 3 0.000000 -52.772067 42.564819 31.805908
92 4 4 0.000000 -46.872067 42.564819 31.805908
93 4 1 0.000000 -40.972067 42.564819 31.805908
94 4 1 0.000000 -35.072067 42.564819 31.805908
95 4 3 0.000000 -29.172067 42.564819 31.805908
96 4 1 0.000000 -23.272067 42.564819 31.805908
97 5 2 0.000000 44.042322 -74.351010 -14.054072
98 5 3 0.000000 49.942322 -74.351010 -14.054072
99 5 3 0.000000 55.842322 -74.351010 -14.054072
100 5 4 0.000000 61.742322 -74.351010 -14.054072
101 5 3 0.000000 67.642322 -74.351010 -14.054072
102 5 4 0.000000 73.542322 -74.351010 -14.054072
103 5 1 0.000000 79.442322 -74.351010 -14.054072
104 5 1 0.000000 85.342322 -74.351010 -14.054072
105 5 3 0.000000 91.242322 -74.351010 -14.054072
106 5 1 0.000000 97.142322 -74.351010 -14.054072
107 6 2 0.000000 -111.186501 -50.645165 0.963952
108 6 3 0.000000 -105.286501 -50.645165 0.963952
109 6 3 0.000000 -99.386501 -50.645165 0.963952
110 6 4 0.000000 -93.486501 -50.645165 0.963952
111 6 3 0.000000 -87.586501 -50.645165 0.963952
112 6 4 0.000000 -81.686501 -50.645165 0.963952
113 6 1 0.000000 -75.786501 -50.645165 0.963952
114 6 1 0.000000 -69.886501 -50.645165 0.963952
115 6 3 0.000000 -63.986501 -50.645165 0.963952
116 6 1 0.000000 -58.086501 -50.645165 0.963952
117 7 2 0.000000 -111.773525 -54.209223 26.979199
118 7 3 0.000000 -105.873525 -54.209223 26.979199
119 7 3 0.000000 -99.973525 -54.209223 26.979199
120 7 4 0.000000 -94.073525 -54.209223 26.979199
121 7 3 0.000000 -88.173525 -54.209223 26.979199
122 7 4 0.000000 -82.273525 -54.209223 26.979199
123 7 1 0.000000 -76.373525 -54.209223 26.979199
124 7 1 0.000000 -70.473525 -54.209223 26.979199
125 7 3 0.000000 -64.573525 -54.209223 26.979199
126 7 1 0.000000 -58.673525 -54.209223 26.979199
127 8 2 0.000000 -18.460533 -50.320688 16.067823
128 8 3 0.000000 -12.560533 -50.320688 16.067823
129 8 3 0.000000 -6.660533 -50.320688 16.067823
130 8 4 0.000000 -0.760533 -50.320688 16.067823
131 8 3 0.000000 5.139467 -50.320688 16.067823
132 8 4 0.000000 11.039467 -50.320688 16.067823
133 8 1 0.000000 16.939467 -50.320688 16.067823
134 8 1 0.000000 22.839467 -50.320688 16.067823
135 8 3 0.000000 28.739467 -50.320688 16.067823
136 8 1 0.000000 34.639467 -50.320688 16.067823
137 9 2 0.000000 29.147482 -88.830223 55.047465
138 9 3 0.000000 35.047482 -88.830223 55.047465
139 9 3 0.000000 40.947482 -88.830223 55.047465
140 9 4 0.000000 46.847482 -88.830223 55.047465
141 9 3 0.000000 52.747482 -88.830223 55.047465
142 9 4 0.000000 58.647482 -88.830223 55.047465
143 9 1 0.000000 64.547482 -88.830223 55.047465
144 9 1 0.000000 70.447482 -88.830223 55.047465
145 9 3 0.000000 76.347482 -88.830223 55.047465
146 9 1 0.000000 82.247482 -88.830223 55.047465
147 10 2 0.000000 9.115091 -28.754907 -62.013690
148 10 3 0.000000 15.015091 -28.754907 -62.013690
149 10 3 0.000000 20.915091 -28.754907 -62.013690
150 10 4 0.000000 26.815091 -28.754907 -62.013690
151 10 3 0.000000 32.715091 -28.754907 -62.013690
152 10 4 0.000000 38.615091 -28.754907 -62.013690
153 10 1 0.000000 44.515091 -28.754907 -62.013690
154 10 1 0.000000 50.415091 -28.754907 -62.013690
155 10 3 0.000000 56.315091 -28.754907 -62.013690
156 10 1 0.000000 62.215091 -28.754907 -62.013690
157 11 2 0.000000 55.748353 -29.412982 -73.305748
158 11 3 0.000000 61.648353 -29.412982 -73.305748
159 11 3 0.000000 67.548353 -29.412982 -73.305748
160 11 4 0.000000 73.448353 -29.412982 -73.305748
161 11 3 0.000000 79.348353 -29.412982 -73.305748
162 11 4 0.000000 85.248353 -29.412982 -73.305748
163 11 1 0.000000 91.148353 -29.412982 -73.305748
164 11 1 0.000000 97.048353 -29.412982 -73.305748
165 11 3 0.000000 102.948353 -29.412982 -73.305748
166 11 1 0.000000 108.848353 -29.412982 -73.305748
167 12 2 0.000000 -99.141052 62.548986 18.670686
168 12 3 0.000000 -93.241052 62.548986 18.670686
169 12 3 0.000000 -87.341052 62.548986 18.670686
170 12 4 0.000000 -81.441052 62.548986 18.670686
171 12 3 0.000000 -75.541052 62.548986 18.670686
172 12 4 0.000000 -69.641052 62.548986 18.670686
173 12 1 0.000000 -63.741052 62.548986 18.670686
174 12 1 0.000000 -57.841052 62.548986 18.670686
175 12 3 0.000000 -51.941052 62.548986 18.670686
176 12 1 0.000000 -46.041052 62.548986 18.670686
177 13 2 0.000000 28.733089 41.351722 6.521056
178 13 3 0.000000 34.633089 41.351722 6.521056
179 13 3 0.000000 40.533089 41.351722 6.521056
180 13 4 0.000000 46.433089 41.351722 6.521056
181 13 3 0.000000 52.333089 41.351722 6.521056
182 13 4 0.000000 58.233089 41.351722 6.521056
183 13 1 0.000000 64.133089 41.351722 6.521056
184 13 1 0.000000 70.033089 41.351722 6.521056
185 13 3 0.000000 75.933089 41.351722 6.521056
186 13 1 0.000000 81.833089 41.351722 6.521056
187 14 2 0.000000 58.610838 -21.863812 9.367314
188 14 3 0.000000 64.510838 -21.863812 9.367314
189 14 3 0.000000 70.410838 -21.863812 9.367314
190 14 4 0.000000 76.310838 -21.863812 9.367314
191 14 3 0.000000 82.210838 -21.863812 9.367314
192 14 4 0.000000 88.110838 -21.863812 9.367314
193 14 1 0.000000 94.010838 -21.863812 9.367314
194 14 1 0.000000 99.910838 -21.863812 9.367314
195 14 3 0.000000 105.810838 -21.863812 9.367314
196 14 1 0.000000 111.710838 -21.863812 9.367314
197 15 2 0.000000 32.742840 21.333555 65.107242
198 15 3 0.000000 38.642840 21.333555 65.107242
199 15 3 0.000000 44.542840 21.333555 65.107242
200 15 4 0.000000 50.442840 21.333555 65.107242
201 15 3 0.000000 56.342840 21.333555 65.107242
202 15 4 0.000000 62.242840 21.333555 65.107242
203 15 1 0.000000 68.142840 21.333555 65.107242
204 15 1 0.000000 74.042840 21.333555 65.107242
205 15 3 0.000000 79.942840 21.333555 65.107242
206 15 1 0.000000 85.842840 21.333555 65.107242
207 16 2 0.000000 -12.626614 36.822931 -81.751611
208 16 3 0.000000 -6.726614 36.822931 -81.751611
209 16 3 0.000000 -0.826614 36.822931 -81.751611
210 16 4 0.000000 5.073386 36.822931 -81.751611
211 16 3 0.000000 10.973386 36.822931 -81.751611
212 16 4 0.000000 16.873386 36.822931 -81.751611
213 16 1 0.000000 22.773386 36.822931 -81.751611
214 16 1 0.000000 28.673386 36.822931 -81.751611
215 16 3 0.000000 34.573386 36.822931 -81.751611
216 16 1 0.000000 40.473386 36.822931 -81.751611
217 17 2 0.000000 -75.528310 -37.910167 -75.637444
218 17 3 0.000000 -69.628310 -37.910167 -75.637444
219 17 3 0.000000 -63.728310 -37.910167 -75.637444
220 17 4 0.000000 -57.828310 -37.910167 -75.637444
221 17 3 0.000000 -51.928310 -37.910167 -75.637444
222 17 4 0.000000 -46.028310 -37.910167 -75.637444
223 17 1 0.000000 -40.128310 -37.910167 -75.637444
224 17 1 0.000000 -34.228310 -37.910167 -75.637444
225 17 3 0.000000 -28.328310 -37.910167 -75.637444
226 17 1 0.000000 -22.428310 -37.910167 -75.637444
227 18 2 0.000000 -74.647640 -71.819743 -39.964751
228 18 3 0.000000 -68.747640 -71.819743 -39.964751
229 18 3 0.000000 -62.847640 -71.819743 -39.964751
230 18 4 0.000000 -56.947640 -71.819743 -39.964751
231 18 3 0.000000 -51.047640 -71.819743 -39.964751
232 18 4 0.000000 -45.147640 -71.819743 -39.964751
233 18 1 0.000000 -39.247640 -71.819743 -39.964751
234 18 1 0.000000 -33.347640 -71.819743 -39.964751
235 18 3 0.000000 -27.447640 -71.819743 -39.964751
236 18 1 0.000000 -21.547640 -71.819743 -39.964751
237 19 2 0.000000 -2.126800 -24.330208 -23.367426
238 19 3 0.000000 3.773200 -24.330208 -23.367426
239 19 3 0.000000 9.673200 -24.330208 -23.367426
240 19 4 0.000000 15.573200 -24.330208 -23.367426
241 19 3 0.000000 21.473200 -24.330208 -23.367426
242 19 4 0.000000 27.373200 -24.330208 -23.367426
243 19 1 0.000000 33.273200 -24.330208 -23.367426
244 19 1 0.000000 39.173200 -24.330208 -23.367426
245 19 3 0.000000 45.073200 -24.330208 -23.367426
246 19 1 0.000000 50.973200 -24.330208 -23.367426
247 20 2 0.000000 -78.838734 -41.943992 78.597826
248 20 3 0.000000 -72.938734 -41.943992 78.597826
249 20 3 0.000000 -67.038734 -41.943992 78.597826
250 20 4 0.000000 -61.138734 -41.943992 78.597826
251 20 3 0.000000 -55.238734 -41.943992 78.597826
252 20 4 0.000000 -49.338734 -41.943992 78.597826
253 20 1 0.000000 -43.438734 -41.943992 78.597826
254 20 1 0.000000 -37.538734 -41.943992 78.597826
255 20 3 0.000000 -31.638734 -41.943992 78.597826
256 20 1 0.000000 -25.738734 -41.943992 78.597826
257 21 2 0.000000 0.096369 19.643581 -59.195043
258 21 3 0.000000 5.996369 19.643581 -59.195043
259 21 3 0.000000 11.896369 19.643581 -59.195043
260 21 4 0.000000 17.796369 19.643581 -59.195043
261 21 3 0.000000 23.696369 19.643581 -59.195043
262 21 4 0.000000 29.596369 19.643581 -59.195043
263 21 1 0.000000 35.496369 19.643581 -59.195043
264 21 1 0.000000 41.396369 19.643581 -59.195043
265 21 3 0.000000 47.296369 19.643581 -59.195043
266 21 1 0.000000 53.196369 19.643581 -59.195043
267 22 2 0.000000 14.692824 -60.587551 -21.698020
268 22 3 0.000000 20.592824 -60.587551 -21.698020
269 22 3 0.000000 26.492824 -60.587551 -21.698020
270 22 4 0.000000 32.392824 -60.587551 -21.698020
271 22 3 0.000000 38.292824 -60.587551 -21.698020
272 22 4 0.000000 44.192824 -60.587551 -21.698020
273 22 1 0.000000 50.092824 -60.587551 -21.698020
274 22 1 0.000000 55.992824 -60.587551 -21.698020
275 22 3 0.000000 61.892824 -60.587551 -21.698020
276 22 1 0.000000 67.792824 -60.587551 -21.698020
277 23 2 0.000000 61.564203 25.199957 10.250954
278 23 3 0.000000 67.464203 25.199957 10.250954
279 23 3 0.000000 73.364203 25.199957 10.250954
280 23 4 0.000000 79.264203 25.199957 10.250954
281 23 3 0.000000 85.164203 25.199957 10.250954
282 23 4 0.000000 91.064203 25.199957 10.250954
283 23 1 0.000000 96.964203 25.199957 10.250954
284 23 1 0.000000 102.864203 25.199957 10.250954
285 23 3 0.000000 108.764203 25.199957 10.250954
286 23 1 0.000000 114.664203 25.199957 10.250954
287 24 2 0.000000 6.680565 61.713346 49.679984
288 24 3 0.000000 12.580565 61.713346 49.679984
289 24 3 0.000000 18.480565 61.713346 49.679984
290 24 4 0.000000 24.380565 61.713346 49.679984
291 24 3 0.000000 30.280565 61.713346 49.679984
292 24 4 0.000000 36.180565 61.713346 49.679984
293 24 1 0.000000 42.080565 61.713346 49.679984
294 24 1 0.000000 47.980565 61.713346 49.679984
295 24 3 0.000000 53.880565 61.713346 49.679984
296 24 1 0.000000 59.780565 61.713346 49.679984
297 25 2 0.000000 41.196173 -33.357981 27.978960
298 25 3 0.000000 47.096173 -33.357981 27.978960
299 25 3 0.000000 52.996173 -33.357981 27.978960
300 25 4 0.000000 58.896173 -33.357981 27.978960
301 25 3 0.000000 64.796173 -33.357981 27.978960
302 25 4 0.000000 70.696173 -33.357981 27.978960
303 25 1 0.000000 76.596173 -33.357981 27.978960
304 25 1 0.000000 82.496173 -33.357981 27.978960
305 25 3 0.000000 88.396173 -33.357981 27.978960
306 25 1 0.000000 94.296173 -33.357981 27.978960
307 26 2 0.000000 -45.336258 74.618566 -7.406667
308 26 3 0.000000 -39.436258 74.618566 -7.406667
309 26 3 0.000000 -33.536258 74.618566 -7.406667
310 26 4 0.000000 -27.636258 74.618566 -7.406667
311 26 3 0.000000 -21.736258 74.618566 -7.406667
312 26 4 0.000000 -15.836258 74.618566 -7.406667
313 26 1 0.000000 -9.936258 74.618566 -7.406667
314 26 1 0.000000 -4.036258 74.618566 -7.406667
315 26 3 0.000000 1.863742 74.618566 -7.406667
316 26 1 0.000000 7.763742 74.618566 -7.406667
317 27 2 0.000000 -68.871570 -45.607049 11.046264
318 27 3 0.000000 -62.971570 -45.607049 11.046264
319 27 3 0.000000 -57.071570 -45.607049 11.046264
320 27 4 0.000000 -51.171570 -45.607049 11.046264
321 27 3 0.000000 -45.271570 -45.607049 11.046264
322 27 4 0.000000 -39.371570 -45.607049 11.046264
323 27 1 0.000000 -33.471570 -45.607049 11.046264
324 27 1 0.000000 -27.571570 -45.607049 11.046264
325 27 3 0.000000 -21.671570 -45.607049 11.046264
326 27 1 0.000000 -15.771570 -45.607049 11.046264
327 28 2 0.000000 -69.256510 15.225478 71.608119
328 28 3 0.000000 -63.356510 15.225478 71.608119
329 28 3 0.000000 -57.456510 15.225478 71.608119
330 28 4 0.000000 -51.556510 15.225478 71.608119
331 28 3 0.000000 -45.656510 15.225478 71.608119
332 28 4 0.000000 -39.756510 15.225478 71.608119
333 28 1 0.000000 -33.856510 15.225478 71.608119
334 28 1 0.000000 -27.956510 15.225478 71.608119
335 28 3 0.000000 -22.056510 15.225478 71.608119
336 28 1 0.000000 -16.156510 15.225478 71.608119
337 29 2 0.000000 -44.657909 -50.522263 89.556769
338 29 3 0.000000 -38.757909 -50.522263 89.556769
339 29 3 0.000000 -32.857909 -50.522263 89.556769
340 29 4 0.000000 -26.957909 -50.522263 89.556769
341 29 3 0.000000 -21.057909 -50.522263 89.556769
342 29 4 0.000000 -15.157909 -50.522263 89.556769
343 29 1 0.000000 -9.257909 -50.522263 89.556769
344 29 1 0.000000 -3.357909 -50.522263 89.556769
345 29 3 0.000000 2.542091 -50.522263 89.556769
346 29 1 0.000000 8.442091 -50.522263 89.556769
347 30 2 0.000000 -24.835267 -73.636306 -81.519052
348 30 3 0.000000 -18.935267 -73.636306 -81.519052
349 30 3 0.000000 -13.035267 -73.636306 -81.519052
350 30 4 0.000000 -7.135267 -73.636306 -81.519052
351 30 3 0.000000 -1.235267 -73.636306 -81.519052
352 30 4 0.000000 4.664733 -73.636306 -81.519052
353 30 1 0.000000 10.564733 -73.636306 -81.519052
354 30 1 0.000000 16.464733 -73.636306 -81.519052
355 30 3 0.000000 22.364733 -73.636306 -81.519052
356 30 1 0.000000 28.264733 -73.636306 -81.519052
357 31 2 0.000000 -96.813157 22.940288 52.574286
358 31 3 0.000000 -90.913157 22.940288 52.574286
359 31 3 0.000000 -85.013157 22.940288 52.574286
360 31 4 0.000000 -79.113157 22.940288 52.574286
361 31 3 0.000000 -73.213157 22.940288 52.574286
362 31 4 0.000000 -67.313157 22.940288 52.574286
363 31 1 0.000000 -61.413157 22.940288 52.574286
364 31 1 0.000000 -55.513157 22.940288 52.574286
365 31 3 0.000000 -49.613157 22.940288 52.574286
366 31 1 0.000000 -43.713157 22.940288 52.574286
367 32 2 0.000000 -40.561206 -78.565013 -21.308528
368 32 3 0.000000 -34.661206 -78.565013 -21.308528
369 32 3 0.000000 -28.761206 -78.565013 -21.308528
370 32 4 0.000000 -22.861206 -78.565013 -21.308528
371 32 3 0.000000 -16.961206 -78.565013 -21.308528
372 32 4 0.000000 -11.061206 -78.565013 -21.308528
373 32 1 0.000000 -5.161206 -78.565013 -21.308528
374 32 1 0.000000 0.738794 -78.565013 -21.308528
375 32 3 0.000000 6.638794 -78.565013 -21.308528
376 32 1 0.000000 12.538794 -78.565013 -21.308528
377 33 2 0.000000 62.751848 5.240582 84.794108
378 33 3 0.000000 68.651848 5.240582 84.794108
379 33 3 0.000000 74.551848 5.240582 84.794108
380 33 4 0.000000 80.451848 5.240582 84.794108
381 33 3 0.000000 86.351848 5.240582 84.794108
382 33 4 0.000000 92.251848 5.240582 84.794108
383 33 1 0.000000 98.151848 5.240582 84.794108
384 33 1 0.000000 104.051848 5.240582 84.794108
385 33 3 0.000000 109.951848 5.240582 84.794108
386 33 1 0.000000 115.851848 5.240582 84.794108
387 34 2 0.000000 38.390346 -87.933416 39.729927
388 34 3 0.000000 44.290346 -87.933416 39.729927
389 34 3 0.000000 50.190346 -87.933416 39.729927
390 34 4 0.000000 56.090346 -87.933416 39.729927
391 34 3 0.000000 61.990346 -87.933416 39.729927
392 34 4 0.000000 67.890346 -87.933416 39.729927
393 34 1 0.000000 73.790346 -87.933416 39.729927
394 34 1 0.000000 79.690346 -87.933416 39.729927
395 34 3 0.000000 85.590346 -87.933416 39.729927
396 34 1 0.000000 91.490346 -87.933416 39.729927
397 35 2 0.000000 6.157866 6.654659 -41.971466
398 35 3 0.000000 12.057866 6.654659 -41.971466
399 35 3 0.000000 17.957866 6.654659 -41.971466
400 35 4 0.000000 23.857866 6.654659 -41.971466
401 35 3 0.000000 29.757866 6.654659 -41.971466
402 35 4 0.000000 35.657866 6.654659 -41.971466
403 35 1 0.000000 41.557866 6.654659 -41.971466
404 35 1 0.000000 47.457866 6.654659 -41.971466
405 35 3 0.000000 53.357866 6.654659 -41.971466
406 35 1 0.000000 59.257866 6.654659 -41.971466
407 36 2 0.000000 -1.176876 -69.920609 -11.742255
408 36 3 0.000000 4.723124 -69.920609 -11.742255
409 36 3 0.000000 10.623124 -69.920609 -11.742255
410 36 4 0.000000 16.523124 -69.920609 -11.742255
411 36 3 0.000000 22.423124 -69.920609 -11.742255
412 36 4 0.000000 28.323124 -69.920609 -11.742255
413 36 1 0.000000 34.223124 -69.920609 -11.742255
414 36 1 0.000000 40.123124 -69.920609 -11.742255
415 36 3 0.000000 46.023124 -69.920609 -11.742255
416 36 1 0.000000 51.923124 -69.920609 -11.742255
417 37 2 0.000000 -34.879733 81.686867 67.653529
418 37 3 0.000000 -28.979733 81.686867 67.653529
419 37 3 0.000000 -23.079733 81.686867 67.653529
420 37 4 0.000000 -17.179733 81.686867 67.653529
421 37 3 0.000000 -11.279733 81.686867 67.653529
422 37 4 0.000000 -5.379733 81.686867 67.653529
423 37 1 0.000000 0.520267 81.686867 67.653529
424 37 1 0.000000 6.420267 81.686867 67.653529
425 37 3 0.000000 12.320267 81.686867 67.653529
426 37 1 0.000000 18.220267 81.686867 67.653529
427 38 2 0.000000 -69.139971 0.105500 -57.842662
428 38 3 0.000000 -63.239971 0.105500 -57.842662
429 38 3 0.000000 -57.339971 0.105500 -57.842662
430 38 4 0.000000 -51.439971 0.105500 -57.842662
431 38 3 0.000000 -45.539971 0.105500 -57.842662
432 38 4 0.000000 -39.639971 0.105500 -57.842662
433 38 1 0.000000 -33.739971 0.105500 -57.842662
434 38 1 0.000000 -27.839971 0.105500 -57.842662
435 38 3 0.000000 -21.939971 0.105500 -57.842662
436 38 1 0.000000 -16.039971 0.105500 -57.842662
437 39 2 0.000000 47.723011 66.693343 -36.279938
438 39 3 0.000000 53.623011 66.693343 -36.279938
439 39 3 0.000000 59.523011 66.693343 -36.279938
440 39 4 0.000000 65.423011 66.693343 -36.279938
441 39 3 0.000000 71.323011 66.693343 -36.279938
442 39 4 0.000000 77.223011 66.693343 -36.279938
443 39 1 0.000000 83.123011 66.693343 -36.279938
444 39 1 0.000000 89.023011 66.693343 -36.279938
445 39 3 0.000000 94.923011 66.693343 -36.279938
446 39 1 0.000000 100.823011 66.693343 -36.279938
447 40 2 0.000000 20.701944 7.088225 50.152766
448 40 3 0.000000 26.601944 7.088225 50.152766
449 40 3 0.000000 32.501944 7.088225 50.152766
450 40 4 0.000000 38.401944 7.088225 50.152766
451 40 3 0.000000 44.301944 7.088225 50.152766
452 40 4 0.000000 50.201944 7.088225 50.152766
453 40 1 0.000000 56.101944 7.088225 50.152766
454 40 1 0.000000 62.001944 7.088225 50.152766
455 40 3 0.000000 67.901944 7.088225 50.152766
456 40 1 0.000000 73.801944 7.088225 50.152766
457 41 2 0.000000 -21.086339 -89.897059 -31.651910
458 41 3 0.000000 -15.186339 -89.897059 -31.651910
459 41 3 0.000000 -9.286339 -89.897059 -31.651910
460 41 4 0.000000 -3.386339 -89.897059 -31.651910
461 41 3 0.000000 2.513661 -89.897059 -31.651910
462 41 4 0.000000 8.413661 -89.897059 -31.651910
463 41 1 0.000000 14.313661 -89.897059 -31.651910
464 41 1 0.000000 20.213661 -89.897059 -31.651910
465 41 3 0.000000 26.113661 -89.897059 -31.651910
466 41 1 0.000000 32.013661 -89.897059 -31.651910
467 42 2 0.000000 -113.044186 77.237751 68.169938
468 42 3 0.000000 -107.144186 77.237751 68.169938
469 42 3 0.000000 -101.244186 77.237751 68.169938
470 42 4 0.000000 -95.344186 77.237751 68.169938
471 42 3 0.000000 -89.444186 77.237751 68.169938
472 42 4 0.000000 -83.544186 77.237751 68.169938
473 42 1 0.000000 -77.644186 77.237751 68.169938
474 42 1 0.000000 -71.744186 77.237751 68.169938
475 42 3 0.000000 -65.844186 77.237751 68.169938
476 42 1 0.000000 -59.944186 77.237751 68.169938
477 43 2 0.000000 33.149795 -34.647457 -79.573470
478 43 3 0.000000 39.049795 -34.647457 -79.573470
479 43 3 0.000000 44.949795 -34.647457 -79.573470
480 43 4 0.000000 50.849795 -34.647457 -79.573470
481 43 3 0.000000 56.749795 -34.647457 -79.573470
482 43 4 0.000000 62.649795 -34.647457 -79.573470
483 43 1 0.000000 68.549795 -34.647457 -79.573470
484 43 1 0.000000 74.449795 -34.647457 -79.573470
485 43 3 0.000000 80.349795 -34.647457 -79.573470
486 43 1 0.000000 86.249795 -34.647457 -79.573470
487 44 2 0.000000 41.491728 80.450900 -74.582379
488 44 3 0.000000 47.391728 80.450900 -74.582379
489 44 3 0.000000 53.291728 80.450900 -74.582379
490 44 4 0.000000 59.191728 80.450900 -74.582379
491 44 3 0.000000 65.091728 80.450900 -74.582379
492 44 4 0.000000 70.991728 80.450900 -74.582379
493 44 1 0.000000 76.891728 80.450900 -74.582379
494 44 1 0.000000 82.791728 80.450900 -74.582379
495 44 3 0.000000 88.691728 80.450900 -74.582379
496 44 1 0.000000 94.591728 80.450900 -74.582379
497 45 2 0.000000 -29.071717 -77.541747 46.908390
498 45 3 0.000000 -23.171717 -77.541747 46.908390
499 45 3 0.000000 -17.271717 -77.541747 46.908390
500 45 4 0.000000 -11.371717 -77.541747 46.908390
501 45 3 0.000000 -5.471717 -77.541747 46.908390
502 45 4 0.000000 0.428283 -77.541747 46.908390
503 45 1 0.000000 6.328283 -77.541747 46.908390
504 45 1 0.000000 12.228283 -77.541747 46.908390
505 45 3 0.000000 18.128283 -77.541747 46.908390
506 45 1 0.000000 24.028283 -77.541747 46.908390
507 46 2 0.000000 21.300197 -66.889536 -4.449172
508 46 3 0.000000 27.200197 -66.889536 -4.449172
509 46 3 0.000000 33.100197 -66.889536 -4.449172
510 46 4 0.000000 39.000197 -66.889536 -4.449172
511 46 3 0.000000 44.900197 -66.889536 -4.449172
512 46 4 0.000000 50.800197 -66.889536 -4.449172
513 46 1 0.000000 56.700197 -66.889536 -4.449172
514 46 1 0.000000 62.600197 -66.889536 -4.449172
515 46 3 0.000000 68.500197 -66.889536 -4.449172
516 46 1 0.000000 74.400197 -66.889536 -4.449172
517 47 2 0.000000 -17.585353 -42.289807 67.037947
518 47 3 0.000000 -11.685353 -42.289807 67.037947
519 47 3 0.000000 -5.785353 -42.289807 67.037947
520 47 4 0.000000 0.114647 -42.289807 67.037947
521 47 3 0.000000 6.014647 -42.289807 67.037947
522 47 4 0.000000 11.914647 -42.289807 67.037947
523 47 1 0.000000 17.814647 -42.289807 67.037947
524 47 1 0.000000 23.714647 -42.289807 67.037947
525 47 3 0.000000 29.614647 -42.289807 67.037947
526 47 1 0.000000 35.514647 -42.289807 67.037947
527 48 2 0.000000 -40.385171 -51.876323 7.073296
528 48 3 0.000000 -34.485171 -51.876323 7.073296
529 48 3 0.000000 -28.585171 -51.876323 7.073296
530 48 4 0.000000 -22.685171 -51.876323 7.073296
531 48 3 0.000000 -16.785171 -51.876323 7.073296
532 48 4 0.000000 -10.885171 -51.876323 7.073296
533 48 1 0.000000 -4.985171 -51.876323 7.073296
534 48 1 0.000000 0.914829 -51.876323 7.073296
535 48 3 0.000000 6.814829 -51.876323 7.073296
536 48 1 0.000000 12.714829 -51.876323 7.073296
537 49 2 0.000000 62.576884 26.978050 -11.141985
538 49 3 0.000000 68.476884 26.978050 -11.141985
539 49 3 0.000000 74.376884 26.978050 -11.141985
540 49 4 0.000000 80.276884 26.978050 -11.141985
541 49 3 0.000000 86.176884 26.978050 -11.141985
542 49 4 0.000000 92.076884 26.978050 -11.141985
543 49 1 0.000000 97.976884 26.978050 -11.141985
544 49 1 0.000000 103.876884 26.978050 -11.141985
545 49 3 0.000000 109.776884 26.978050 -11.141985
546 49 1 0.000000 115.676884 26.978050 -11.141985
547 50 2 0.000000 -23.386349 -68.219245 -49.554479
548 50 3 0.000000 -17.486349 -68.219245 -49.554479
549 50 3 0.000000 -11.586349 -68.219245 -49.554479
550 50 4 0.000000 -5.686349 -68.219245 -49.554479
551 50 3 0.000000 0.213651 -68.219245 -49.554479
552 50 4 0.000000 6.113651 -68.219245 -49.554479
553 50 1 0.000000 12.013651 -68.219245 -49.554479
554 50 1 0.000000 17.913651 -68.219245 -49.554479
555 50 3 0.000000 23.813651 -68.219245 -49.554479
556 50 1 0.000000 29.713651 -68.219245 -49.554479
557 51 2 0.000000 -55.694599 15.895569 -48.579348
558 51 3 0.000000 -49.794599 15.895569 -48.579348
559 51 3 0.000000 -43.894599 15.895569 -48.579348
560 51 4 0.000000 -37.994599 15.895569 -48.579348
561 51 3 0.000000 -32.094599 15.895569 -48.579348
562 51 4 0.000000 -26.194599 15.895569 -48.579348
563 51 1 0.000000 -20.294599 15.895569 -48.579348
564 51 1 0.000000 -14.394599 15.895569 -48.579348
565 51 3 0.000000 -8.494599 15.895569 -48.579348
566 51 1 0.000000 -2.594599 15.895569 -48.579348

Bonds

1 1 1 2
2 1 2 3
3 1 3 4
4 1 4 5
5 1 5 6
6 1 6 7
7 1 7 8
8 1 8 9
9 1 9 10
10 1 11 12
11 1 12 13
12 1 13 14
13 1 14 15
14 1 15 16
15 1 16 17
16 1 17 18
17 1 18 19
18 1 19 20
19 1 20 21
20 1 21 22
21 1 22 23
22 1 23 24
23 1 24 25
24 1 25 26
25 1 26 27
26 1 27 28
27 1 28 29
28 1 29 30
29 1 30 31
30 1 31 32
31 1 32 33
32 1 33 34
33 1 34 35
34 1 35 36
35 1 36 37
36 1 37 38
37 1 38 39
38 1 39 40
39 1 40 41
40 1 41 42
41 1 42 43
42 1 43 44
43 1 44 45
44 1 45 46
45 1 46 47
46 1 47 48
47 1 48 49
48 1 49 50
49 1 50 51
50 1 51 52
51 1 52 53
52 1 53 54
53 1 54 55
54 1 55 56
55 1 56 57
56 1 57 58
57 1 58 59
58 1 59 60
59 1 60 61
60 1 61 62
61 1 62 63
62 1 63 64
63 1 64 65
64 1 65 66
65 1 66 67
66 1 67 68
67 1 68 69
68 1 69 70
69 1 70 71
70 1 71 72
71 1 72 73
72 1 73 74
73 1 74 75
74 1 75 76
75 1 77 78
76 1 78 79
77 1 79 80
78 1 80 81
79 1 81 82
80 1 82 83
81 1 83 84
82 1 84 85
83 1 85 86
84 1 87 88
85 1 88 89
86 1 89 90
87 1 90 91
88 1 91 92
89 1 92 93
90 1 93 94
91 1 94 95
92 1 95 96
93 1 97 98
94 1 98 99
95 1 99 100
96 1 100 101
97 1 101 102
98 1 102 103
99 1 103 104
100 1 104 105
101 1 105 106
102 1 107 108
103 1 108 109
104 1 109 110
105 1 110 111
106 1 111 112
107 1 112 113
108 1 113 114
109 1 114 115
110 1 115 116
111 1 117 118
112 1 118 119
113 1 119 120
114 1 120 121
115 1 121 122
116 1 122 123
117 1 123 124
118 1 124 125
119 1 125 126
120 1 127 128
121 1 128 129
122 1 129 130
123 1 130 131
124 1 131 132
125 1 132 133
126 1 133 134
127 1 134 135
128 1 135 136
129 1 137 138
130 1 138 139
131 1 139 140
132 1 140 141
133 1 141 142
134 1 142 143
135 1 143 144
136 1 144 145
137 1 145 146
138 1 147 148
139 1 148 149
140 1 149 150
141 1 150 151
142 1 151 152
143 1 152 153
144 1 153 154
145 1 154 155
146 1 155 156
147 1 157 158
148 1 158 159
149 1 159 160
150 1 160 161
151 1 161 162
152 1 162 163
153 1 163 164
154 1 164 165
155 1 165 166
156 1 167 168
157 1 168 169
158 1 169 170
159 1 170 171
160 1 171 172
161 1 172 173
162 1 173 174
163 1 174 175
164 1 175 176
165 1 177 178
166 1 178 179
167 1 179 180
168 1 180 181
169 1 181 182
170 1 182 183
171 1 183 184
172 1 184 185
173 1 185 186
174 1 187 188
175 1 188 189
176 1 189 190
177 1 190 191
178 1 191 192
179 1 192 193