LAMMPS data file — Week 13 combined RNA+ASO | target=7LYJ | aso=CGGUGUAAGA | n_aso=10 | box=±175.0

166 atoms
155 bonds
144 angles

4 atom types
1 bond types
1 angle types

-175.000000  175.000000  xlo xhi
-175.000000  175.000000  ylo yhi
-175.000000  175.000000  zlo zhi

Masses

1 329.20
2 305.20
3 345.20
4 306.20

Atoms

1 1 2 0.000000 20.000000 0.000000 0.000000
2 1 3 0.000000 25.900000 0.000000 0.000000
3 1 3 0.000000 31.800000 0.000000 0.000000
4 1 4 0.000000 37.700000 0.000000 0.000000
5 1 3 0.000000 43.600000 0.000000 0.000000
6 1 4 0.000000 49.500000 0.000000 0.000000
7 1 1 0.000000 55.400000 0.000000 0.000000
8 1 1 0.000000 61.300000 0.000000 0.000000
9 1 3 0.000000 67.200000 0.000000 0.000000
10 1 1 0.000000 73.100000 0.000000 0.000000
11 2 2 0.000000 2.035273 -1.454939 -5.263727
12 2 3 0.000000 -0.766727 -6.502939 -4.423727
13 2 3 0.000000 -5.322727 -9.458939 -2.332727
14 2 4 0.000000 -10.686727 -9.262939 -0.255727
15 2 3 0.000000 -15.665727 -6.447939 0.528273
16 2 4 0.000000 -19.019727 -1.928939 -0.557727
17 2 1 0.000000 -20.236727 2.554061 -3.887727
18 2 1 0.000000 -19.405727 5.849061 -8.575727
19 2 3 0.000000 -17.035727 6.677061 -13.786727
20 2 4 0.000000 -13.810727 7.693061 -18.960727
21 2 3 0.000000 -13.521727 5.320061 -24.051727
22 2 2 0.000000 -18.390727 4.604061 -27.166727
23 2 1 0.000000 -22.751727 7.610061 -27.785727
24 2 3 0.000000 -25.251727 5.661061 -23.033727
25 2 2 0.000000 -25.745727 1.848061 -18.688727
26 2 2 0.000000 -24.206727 -3.020939 -15.814727
27 2 2 0.000000 -20.286727 -6.736939 -13.593727
28 2 3 0.000000 -14.834727 -6.812939 -12.274727
29 2 4 0.000000 -8.925727 -7.221939 -11.874727
30 2 2 0.000000 -6.745727 -2.241939 -13.668727
31 2 4 0.000000 -6.538727 3.008061 -11.259727
32 2 4 0.000000 -7.523727 6.594061 -6.898727
33 2 1 0.000000 -9.390727 7.820061 -1.549727
34 2 2 0.000000 -10.140727 5.948061 3.775273
35 2 1 0.000000 -9.804727 1.844061 7.813273
36 2 2 0.000000 -7.241727 -3.010939 9.473273
37 2 2 0.000000 -2.778727 -6.626939 8.991273
38 2 3 0.000000 2.464273 -7.569939 6.688273
39 2 4 0.000000 7.381273 -6.270939 3.771273
40 2 3 0.000000 11.599273 -2.655939 2.100273
41 2 2 0.000000 13.877273 2.429061 3.110273
42 2 3 0.000000 14.500273 6.997061 6.554273
43 2 3 0.000000 13.887273 9.351061 11.861273
44 2 2 0.000000 13.523273 8.204061 17.492273
45 2 1 0.000000 13.130273 4.623061 22.042273
46 2 2 0.000000 14.430273 -0.441939 24.179273
47 2 1 0.000000 17.276273 -5.486939 23.807273
48 2 3 0.000000 22.093273 -8.256939 22.139273
49 2 2 0.000000 27.474273 -7.575939 20.369273
50 2 3 0.000000 31.969273 -4.069939 19.780273
51 2 3 0.000000 34.498273 0.513061 22.126273
52 2 1 0.000000 33.791273 3.040061 26.728273
53 2 1 0.000000 29.810273 7.000061 25.579273
54 2 1 0.000000 26.899273 10.524061 22.081273
55 2 2 0.000000 25.405273 7.851061 17.130273
56 2 3 0.000000 25.814273 3.866061 12.902273
57 2 2 0.000000 24.186273 -1.092939 10.458273
58 2 4 0.000000 20.341273 -5.274939 10.305273
59 2 3 0.000000 15.309273 -7.991939 11.820273
60 2 1 0.000000 10.426273 -10.435939 13.459273
61 2 4 0.000000 7.382273 -6.375939 16.757273
62 2 3 0.000000 3.976273 -1.856939 18.047273
63 2 4 0.000000 2.429273 3.736061 15.827273
64 2 2 0.000000 2.390273 8.217061 12.228273
65 2 3 0.000000 2.786273 9.779061 6.734273
66 2 4 0.000000 3.549273 8.281061 1.271273
67 2 1 0.000000 3.573273 5.537061 -4.116727
68 2 4 0.000000 0.140273 6.240061 -8.650727
69 2 1 0.000000 -2.881727 6.096061 -14.228727
70 2 2 0.000000 -6.216727 2.494061 -18.233727
71 2 1 0.000000 -7.540727 -3.007939 -21.438727
72 2 3 0.000000 -10.077727 -7.610939 -22.929727
73 2 3 0.000000 -15.905727 -9.772939 -23.759727
74 2 3 0.000000 -21.609727 -9.830939 -24.399727
75 2 2 0.000000 -26.818727 -7.906939 -26.148727
76 2 4 0.000000 -31.268727 -3.593939 -28.320727
77 3 2 0.000000 19.460843 -156.746451 -74.240325
78 3 3 0.000000 25.360843 -156.746451 -74.240325
79 3 3 0.000000 31.260843 -156.746451 -74.240325
80 3 4 0.000000 37.160843 -156.746451 -74.240325
81 3 3 0.000000 43.060843 -156.746451 -74.240325
82 3 4 0.000000 48.960843 -156.746451 -74.240325
83 3 1 0.000000 54.860843 -156.746451 -74.240325
84 3 1 0.000000 60.760843 -156.746451 -74.240325
85 3 3 0.000000 66.660843 -156.746451 -74.240325
86 3 1 0.000000 72.560843 -156.746451 -74.240325
87 4 2 0.000000 -117.890456 78.035501 58.310831
88 4 3 0.000000 -111.990456 78.035501 58.310831
89 4 3 0.000000 -106.090456 78.035501 58.310831
90 4 4 0.000000 -100.190456 78.035501 58.310831
91 4 3 0.000000 -94.290456 78.035501 58.310831
92 4 4 0.000000 -88.390456 78.035501 58.310831
93 4 1 0.000000 -82.490456 78.035501 58.310831
94 4 1 0.000000 -76.590456 78.035501 58.310831
95 4 3 0.000000 -70.690456 78.035501 58.310831
96 4 1 0.000000 -64.790456 78.035501 58.310831
97 5 2 0.000000 102.869257 -136.310185 -25.765800
98 5 3 0.000000 108.769257 -136.310185 -25.765800
99 5 3 0.000000 114.669257 -136.310185 -25.765800
100 5 4 0.000000 120.569257 -136.310185 -25.765800
101 5 3 0.000000 126.469257 -136.310185 -25.765800
102 5 4 0.000000 132.369257 -136.310185 -25.765800
103 5 1 0.000000 138.269257 -136.310185 -25.765800
104 5 1 0.000000 144.169257 -136.310185 -25.765800
105 5 3 0.000000 150.069257 -136.310185 -25.765800
106 5 1 0.000000 155.969257 -136.310185 -25.765800
107 6 2 0.000000 -181.716918 -92.849468 1.767245
108 6 3 0.000000 -175.816918 -92.849468 1.767245
109 6 3 0.000000 -169.916918 -92.849468 1.767245
110 6 4 0.000000 -164.016918 -92.849468 1.767245
111 6 3 0.000000 -158.116918 -92.849468 1.767245
112 6 4 0.000000 -152.216918 -92.849468 1.767245
113 6 1 0.000000 -146.316918 -92.849468 1.767245
114 6 1 0.000000 -140.416918 -92.849468 1.767245
115 6 3 0.000000 -134.516918 -92.849468 1.767245
116 6 1 0.000000 -128.616918 -92.849468 1.767245
117 7 2 0.000000 -182.793130 -99.383575 49.461864
118 7 3 0.000000 -176.893130 -99.383575 49.461864
119 7 3 0.000000 -170.993130 -99.383575 49.461864
120 7 4 0.000000 -165.093130 -99.383575 49.461864
121 7 3 0.000000 -159.193130 -99.383575 49.461864
122 7 4 0.000000 -153.293130 -99.383575 49.461864
123 7 1 0.000000 -147.393130 -99.383575 49.461864
124 7 1 0.000000 -141.493130 -99.383575 49.461864
125 7 3 0.000000 -135.593130 -99.383575 49.461864
126 7 1 0.000000 -129.693130 -99.383575 49.461864
127 8 2 0.000000 -11.719311 -92.254595 29.457676
128 8 3 0.000000 -5.819311 -92.254595 29.457676
129 8 3 0.000000 0.080689 -92.254595 29.457676
130 8 4 0.000000 5.980689 -92.254595 29.457676
131 8 3 0.000000 11.880689 -92.254595 29.457676
132 8 4 0.000000 17.780689 -92.254595 29.457676
133 8 1 0.000000 23.680689 -92.254595 29.457676
134 8 1 0.000000 29.580689 -92.254595 29.457676
135 8 3 0.000000 35.480689 -92.254595 29.457676
136 8 1 0.000000 41.380689 -92.254595 29.457676
137 9 2 0.000000 75.562051 -162.855409 100.920353
138 9 3 0.000000 81.462051 -162.855409 100.920353
139 9 3 0.000000 87.362051 -162.855409 100.920353
140 9 4 0.000000 93.262051 -162.855409 100.920353
141 9 3 0.000000 99.162051 -162.855409 100.920353
142 9 4 0.000000 105.062051 -162.855409 100.920353
143 9 1 0.000000 110.962051 -162.855409 100.920353
144 9 1 0.000000 116.862051 -162.855409 100.920353
145 9 3 0.000000 122.762051 -162.855409 100.920353
146 9 1 0.000000 128.662051 -162.855409 100.920353
147 10 2 0.000000 38.836000 -52.717330 -113.691765
148 10 3 0.000000 44.736000 -52.717330 -113.691765
149 10 3 0.000000 50.636000 -52.717330 -113.691765
150 10 4 0.000000 56.536000 -52.717330 -113.691765
151 10 3 0.000000 62.436000 -52.717330 -113.691765
152 10 4 0.000000 68.336000 -52.717330 -113.691765
153 10 1 0.000000 74.236000 -52.717330 -113.691765
154 10 1 0.000000 80.136000 -52.717330 -113.691765
155 10 3 0.000000 86.036000 -52.717330 -113.691765
156 10 1 0.000000 91.936000 -52.717330 -113.691765
157 11 2 0.000000 124.330314 -53.923800 -134.393872
158 11 3 0.000000 130.230314 -53.923800 -134.393872
159 11 3 0.000000 136.130314 -53.923800 -134.393872
160 11 4 0.000000 142.030314 -53.923800 -134.393872
161 11 3 0.000000 147.930314 -53.923800 -134.393872
162 11 4 0.000000 153.830314 -53.923800 -134.393872
163 11 1 0.000000 159.730314 -53.923800 -134.393872
164 11 1 0.000000 165.630314 -53.923800 -134.393872
165 11 3 0.000000 171.530314 -53.923800 -134.393872
166 11 1 0.000000 177.430314 -53.923800 -134.393872

Bonds

1 1 1 2
2 1 2 3
3 1 3 4
4 1 4 5
5 1 5 6
6 1 6 7
7 1 7 8
8 1 8 9
9 1 9 10
10 1 11 12
11 1 12 13
12 1 13 14
13 1 14 15
14 1 15 16
15 1 16 17
16 1 17 18
17 1 18 19
18 1 19 20
19 1 20 21
20 1 21 22
21 1 22 23
22 1 23 24
23 1 24 25
24 1 25 26
25 1 26 27
26 1 27 28
27 1 28 29
28 1 29 30
29 1 30 31
30 1 31 32
31 1 32 33
32 1 33 34
33 1 34 35
34 1 35 36
35 1 36 37
36 1 37 38
37 1 38 39
38 1 39 40
39 1 40 41
40 1 41 42
41 1 42 43
42 1 43 44
43 1 44 45
44 1 45 46
45 1 46 47
46 1 47 48
47 1 48 49
48 1 49 50
49 1 50 51
50 1 51 52
51 1 52 53
52 1 53 54
53 1 54 55
54 1 55 56
55 1 56 57
56 1 57 58
57 1 58 59
58 1 59 60
59 1 60 61
60 1 61 62
61 1 62 63
62 1 63 64
63 1 64 65
64 1 65 66
65 1 66 67
66 1 67 68
67 1 68 69
68 1 69 70
69 1 70 71
70 1 71 72
71 1 72 73
72 1 73 74
73 1 74 75
74 1 75 76
75 1 77 78
76 1 78 79
77 1 79 80
78 1 80 81
79 1 81 82
80 1 82 83
81 1 83 84
82 1 84 85
83 1 85 86
84 1 87 88
85 1 88 89
86 1 89 90
87 1 90 91
88 1 91 92
89 1 92 93
90 1 93 94
91 1 94 95
92 1 95 96
93 1 97 98
94 1 98 99
95 1 99 100
96 1 100 101
97 1 101 102
98 1 102 103
99 1 103 104
100 1 104 105
101 1 105 106
102 1 107 108
103 1 108 109
104 1 109 110
105 1 110 111
106 1 111 112
107 1 112 113
108 1 113 114
109 1 114 115
110 1 115 116
111 1 117 118
112 1 118 119
113 1 119 120
114 1 120 121
115 1 121 122
116 1 122 123
117 1 123 124
118 1 124 125
119 1 125 126
120 1 127 128
121 1 128 129
122 1 129 130
123 1 130 131
124 1 131 132
125 1 132 133
126 1 133 134
127 1 134 135
128 1 135 136
129 1 137 138
130 1 138 139
131 1 139 140
132 1 140 141
133 1 141 142
134 1 142 143
135 1 143 144
136 1 144 145
137 1 145 146
138 1 147 148
139 1 148 149
140 1 149 150
141 1 150 151
142 1 151 152
143 1 152 153
144 1 153 154
145 1 154 155
146 1 155 156
147 1 157 158
148 1 158 159
149 1 159 160
150 1 160 161
151 1 161 162
152 1 162 163
153 1 163 164
154 1 164 165
155 1 165 166

Angles

1 1 1 2 3
2 1 2 3 4
3 1 3 4 5
4 1 4 5 6
5 1 5 6 7
6 1 6 7 8
7 1 7 8 9
8 1 8 9 10
9 1 11 12 13
10 1 12 13 14
11 1 13 14 15
12 1 14 15 16
13 1 15 16 17
14 1 16 17 18
15 1 17 18 19
16 1 18 19 20
17 1 19 20 21
18 1 20 21 22
19 1 21 22 23
20 1 22 23 24
21 1 23 24 25
22 1 24 25 26
23 1 25 26 27
24 1 26 27 28
25 1 27 28 29
26 1 28 29 30
27 1 29 30 31
28 1 30 31 32
29 1 31 32 33
30 1 32 33 34
31 1 33 34 35
32 1 34 35 36
33 1 35 36 37
34 1 36 37 38
35 1 37 38 39
36 1 38 39 40
37 1 39 40 41
38 1 40 41 42
39 1 41 42 43
40 1 42 43 44
41 1 43 44 45
42 1 44 45 46
43 1 45 46 47
44 1 46 47 48
45 1 47 48 49
46 1 48 49 50
47 1 49 50 51
48 1 50 51 52
49 1 51 52 53
50 1 52 53 54
51 1 53 54 55
52 1 54 55 56
53 1 55 56 57
54 1 56 57 58
55 1 57 58 59
56 1 58 59 60
57 1 59 60 61
58 1 60 61 62
59 1 61 62 63
60 1 62 63 64
61 1 63 64 65
62 1 64 65 66
63 1 65 66 67
64 1 66 67 68
65 1 67 68 69
66 1 68 69 70
67 1 69 70 71
68 1 70 71 72
69 1 71 72 73
70 1 72 73 74
71 1 73 74 75
72 1 74 75 76
73 1 77 78 79
74 1 78 79 80
75 1 79 80 81
76 1 80 81 82
77 1 81 82 83
78 1 82 83 84
79 1 83 84 85
80 1 84 85 86
81 1 87 88 89
82 1 88 89 90
83 1 89 90 91
84 1 90 91 92
85 1 91 92 93
86 1 92 93 94
87 1 93 94 95
88 1 94 95 96
89 1 97 98 99
90 1 98 99 100
91 1 99 100 101
92 1 100 101 102
93 1 101 102 103
94 1 102 103 104
95 1 103 104 105
96 1 104 105 106
97 1 107 108 109
98 1 108 109 110
99 1 109 110 111
100 1 110 111 112
101 1 111 112 113
102 1 112 113 114
103 1 113 114 115
104 1 114 115 116
105 1 117 118 119
106 1 118 119 120
107 1 119 120 121
108 1 120 121 122
109 1 121 122 123
110 1 122 123 124
111 1 123 124 125
112 1 124 125 126
113 1 127 128 129
114 1 128 129 130
115 1 129 130 131
116 1 130 131 132
117 1 131 132 133
118 1 132 133 134
119 1 133 134 135
120 1 134 135 136
121 1 137 138 139
122 1 138 139 140
123 1 139 140 141
124 1 140 141 142
125 1 141 142 143
126 1 142 143 144
127 1 143 144 145
128 1 144 145 146
129 1 147 148 149
130 1 148 149 150
131 1 149 150 151
132 1 150 151 152
133 1 151 152 153
134 1 152 153 154
135 1 153 154 155
136 1 154 155 156
137 1 157 158 159
138 1 158 159 160
139 1 159 160 161
140 1 160 161 162
141 1 161 162 163
142 1 162 163 164
143 1 163 164 165
144 1 164 165 166
