LAMMPS data file — Week 13 combined RNA+ASO | target=7LYJ | aso=CGGUGUAAGA | n_aso=20 | box=±100.0

266 atoms
245 bonds
224 angles

4 atom types
1 bond types
1 angle types

-100.000000  100.000000  xlo xhi
-100.000000  100.000000  ylo yhi
-100.000000  100.000000  zlo zhi

Masses

1 329.20
2 305.20
3 345.20
4 306.20

Atoms

1 1 2 0.000000 25.000000 0.000000 0.000000
2 1 3 0.000000 30.900000 0.000000 0.000000
3 1 3 0.000000 36.800000 0.000000 0.000000
4 1 4 0.000000 42.700000 0.000000 0.000000
5 1 3 0.000000 48.600000 0.000000 0.000000
6 1 4 0.000000 54.500000 0.000000 0.000000
7 1 1 0.000000 60.400000 0.000000 0.000000
8 1 1 0.000000 66.300000 0.000000 0.000000
9 1 3 0.000000 72.200000 0.000000 0.000000
10 1 1 0.000000 78.100000 0.000000 0.000000
11 2 2 0.000000 2.035273 -1.454939 -5.263727
12 2 3 0.000000 -0.766727 -6.502939 -4.423727
13 2 3 0.000000 -5.322727 -9.458939 -2.332727
14 2 4 0.000000 -10.686727 -9.262939 -0.255727
15 2 3 0.000000 -15.665727 -6.447939 0.528273
16 2 4 0.000000 -19.019727 -1.928939 -0.557727
17 2 1 0.000000 -20.236727 2.554061 -3.887727
18 2 1 0.000000 -19.405727 5.849061 -8.575727
19 2 3 0.000000 -17.035727 6.677061 -13.786727
20 2 4 0.000000 -13.810727 7.693061 -18.960727
21 2 3 0.000000 -13.521727 5.320061 -24.051727
22 2 2 0.000000 -18.390727 4.604061 -27.166727
23 2 1 0.000000 -22.751727 7.610061 -27.785727
24 2 3 0.000000 -25.251727 5.661061 -23.033727
25 2 2 0.000000 -25.745727 1.848061 -18.688727
26 2 2 0.000000 -24.206727 -3.020939 -15.814727
27 2 2 0.000000 -20.286727 -6.736939 -13.593727
28 2 3 0.000000 -14.834727 -6.812939 -12.274727
29 2 4 0.000000 -8.925727 -7.221939 -11.874727
30 2 2 0.000000 -6.745727 -2.241939 -13.668727
31 2 4 0.000000 -6.538727 3.008061 -11.259727
32 2 4 0.000000 -7.523727 6.594061 -6.898727
33 2 1 0.000000 -9.390727 7.820061 -1.549727
34 2 2 0.000000 -10.140727 5.948061 3.775273
35 2 1 0.000000 -9.804727 1.844061 7.813273
36 2 2 0.000000 -7.241727 -3.010939 9.473273
37 2 2 0.000000 -2.778727 -6.626939 8.991273
38 2 3 0.000000 2.464273 -7.569939 6.688273
39 2 4 0.000000 7.381273 -6.270939 3.771273
40 2 3 0.000000 11.599273 -2.655939 2.100273
41 2 2 0.000000 13.877273 2.429061 3.110273
42 2 3 0.000000 14.500273 6.997061 6.554273
43 2 3 0.000000 13.887273 9.351061 11.861273
44 2 2 0.000000 13.523273 8.204061 17.492273
45 2 1 0.000000 13.130273 4.623061 22.042273
46 2 2 0.000000 14.430273 -0.441939 24.179273
47 2 1 0.000000 17.276273 -5.486939 23.807273
48 2 3 0.000000 22.093273 -8.256939 22.139273
49 2 2 0.000000 27.474273 -7.575939 20.369273
50 2 3 0.000000 31.969273 -4.069939 19.780273
51 2 3 0.000000 34.498273 0.513061 22.126273
52 2 1 0.000000 33.791273 3.040061 26.728273
53 2 1 0.000000 29.810273 7.000061 25.579273
54 2 1 0.000000 26.899273 10.524061 22.081273
55 2 2 0.000000 25.405273 7.851061 17.130273
56 2 3 0.000000 25.814273 3.866061 12.902273
57 2 2 0.000000 24.186273 -1.092939 10.458273
58 2 4 0.000000 20.341273 -5.274939 10.305273
59 2 3 0.000000 15.309273 -7.991939 11.820273
60 2 1 0.000000 10.426273 -10.435939 13.459273
61 2 4 0.000000 7.382273 -6.375939 16.757273
62 2 3 0.000000 3.976273 -1.856939 18.047273
63 2 4 0.000000 2.429273 3.736061 15.827273
64 2 2 0.000000 2.390273 8.217061 12.228273
65 2 3 0.000000 2.786273 9.779061 6.734273
66 2 4 0.000000 3.549273 8.281061 1.271273
67 2 1 0.000000 3.573273 5.537061 -4.116727
68 2 4 0.000000 0.140273 6.240061 -8.650727
69 2 1 0.000000 -2.881727 6.096061 -14.228727
70 2 2 0.000000 -6.216727 2.494061 -18.233727
71 2 1 0.000000 -7.540727 -3.007939 -21.438727
72 2 3 0.000000 -10.077727 -7.610939 -22.929727
73 2 3 0.000000 -15.905727 -9.772939 -23.759727
74 2 3 0.000000 -21.609727 -9.830939 -24.399727
75 2 2 0.000000 -26.818727 -7.906939 -26.148727
76 2 4 0.000000 -31.268727 -3.593939 -28.320727
77 3 2 0.000000 -1.453176 -85.498064 -40.494723
78 3 3 0.000000 4.446824 -85.498064 -40.494723
79 3 3 0.000000 10.346824 -85.498064 -40.494723
80 3 4 0.000000 16.246824 -85.498064 -40.494723
81 3 3 0.000000 22.146824 -85.498064 -40.494723
82 3 4 0.000000 28.046824 -85.498064 -40.494723
83 3 1 0.000000 33.946824 -85.498064 -40.494723
84 3 1 0.000000 39.846824 -85.498064 -40.494723
85 3 3 0.000000 45.746824 -85.498064 -40.494723
86 3 1 0.000000 51.646824 -85.498064 -40.494723
87 4 2 0.000000 -76.372067 42.564819 31.805908
88 4 3 0.000000 -70.472067 42.564819 31.805908
89 4 3 0.000000 -64.572067 42.564819 31.805908
90 4 4 0.000000 -58.672067 42.564819 31.805908
91 4 3 0.000000 -52.772067 42.564819 31.805908
92 4 4 0.000000 -46.872067 42.564819 31.805908
93 4 1 0.000000 -40.972067 42.564819 31.805908
94 4 1 0.000000 -35.072067 42.564819 31.805908
95 4 3 0.000000 -29.172067 42.564819 31.805908
96 4 1 0.000000 -23.272067 42.564819 31.805908
97 5 2 0.000000 44.042322 -74.351010 -14.054072
98 5 3 0.000000 49.942322 -74.351010 -14.054072
99 5 3 0.000000 55.842322 -74.351010 -14.054072
100 5 4 0.000000 61.742322 -74.351010 -14.054072
101 5 3 0.000000 67.642322 -74.351010 -14.054072
102 5 4 0.000000 73.542322 -74.351010 -14.054072
103 5 1 0.000000 79.442322 -74.351010 -14.054072
104 5 1 0.000000 85.342322 -74.351010 -14.054072
105 5 3 0.000000 91.242322 -74.351010 -14.054072
106 5 1 0.000000 97.142322 -74.351010 -14.054072
107 6 2 0.000000 -111.186501 -50.645165 0.963952
108 6 3 0.000000 -105.286501 -50.645165 0.963952
109 6 3 0.000000 -99.386501 -50.645165 0.963952
110 6 4 0.000000 -93.486501 -50.645165 0.963952
111 6 3 0.000000 -87.586501 -50.645165 0.963952
112 6 4 0.000000 -81.686501 -50.645165 0.963952
113 6 1 0.000000 -75.786501 -50.645165 0.963952
114 6 1 0.000000 -69.886501 -50.645165 0.963952
115 6 3 0.000000 -63.986501 -50.645165 0.963952
116 6 1 0.000000 -58.086501 -50.645165 0.963952
117 7 2 0.000000 -111.773525 -54.209223 26.979199
118 7 3 0.000000 -105.873525 -54.209223 26.979199
119 7 3 0.000000 -99.973525 -54.209223 26.979199
120 7 4 0.000000 -94.073525 -54.209223 26.979199
121 7 3 0.000000 -88.173525 -54.209223 26.979199
122 7 4 0.000000 -82.273525 -54.209223 26.979199
123 7 1 0.000000 -76.373525 -54.209223 26.979199
124 7 1 0.000000 -70.473525 -54.209223 26.979199
125 7 3 0.000000 -64.573525 -54.209223 26.979199
126 7 1 0.000000 -58.673525 -54.209223 26.979199
127 8 2 0.000000 -18.460533 -50.320688 16.067823
128 8 3 0.000000 -12.560533 -50.320688 16.067823
129 8 3 0.000000 -6.660533 -50.320688 16.067823
130 8 4 0.000000 -0.760533 -50.320688 16.067823
131 8 3 0.000000 5.139467 -50.320688 16.067823
132 8 4 0.000000 11.039467 -50.320688 16.067823
133 8 1 0.000000 16.939467 -50.320688 16.067823
134 8 1 0.000000 22.839467 -50.320688 16.067823
135 8 3 0.000000 28.739467 -50.320688 16.067823
136 8 1 0.000000 34.639467 -50.320688 16.067823
137 9 2 0.000000 29.147482 -88.830223 55.047465
138 9 3 0.000000 35.047482 -88.830223 55.047465
139 9 3 0.000000 40.947482 -88.830223 55.047465
140 9 4 0.000000 46.847482 -88.830223 55.047465
141 9 3 0.000000 52.747482 -88.830223 55.047465
142 9 4 0.000000 58.647482 -88.830223 55.047465
143 9 1 0.000000 64.547482 -88.830223 55.047465
144 9 1 0.000000 70.447482 -88.830223 55.047465
145 9 3 0.000000 76.347482 -88.830223 55.047465
146 9 1 0.000000 82.247482 -88.830223 55.047465
147 10 2 0.000000 9.115091 -28.754907 -62.013690
148 10 3 0.000000 15.015091 -28.754907 -62.013690
149 10 3 0.000000 20.915091 -28.754907 -62.013690
150 10 4 0.000000 26.815091 -28.754907 -62.013690
151 10 3 0.000000 32.715091 -28.754907 -62.013690
152 10 4 0.000000 38.615091 -28.754907 -62.013690
153 10 1 0.000000 44.515091 -28.754907 -62.013690
154 10 1 0.000000 50.415091 -28.754907 -62.013690
155 10 3 0.000000 56.315091 -28.754907 -62.013690
156 10 1 0.000000 62.215091 -28.754907 -62.013690
157 11 2 0.000000 55.748353 -29.412982 -73.305748
158 11 3 0.000000 61.648353 -29.412982 -73.305748
159 11 3 0.000000 67.548353 -29.412982 -73.305748
160 11 4 0.000000 73.448353 -29.412982 -73.305748
161 11 3 0.000000 79.348353 -29.412982 -73.305748
162 11 4 0.000000 85.248353 -29.412982 -73.305748
163 11 1 0.000000 91.148353 -29.412982 -73.305748
164 11 1 0.000000 97.048353 -29.412982 -73.305748
165 11 3 0.000000 102.948353 -29.412982 -73.305748
166 11 1 0.000000 108.848353 -29.412982 -73.305748
167 12 2 0.000000 -99.141052 62.548986 18.670686
168 12 3 0.000000 -93.241052 62.548986 18.670686
169 12 3 0.000000 -87.341052 62.548986 18.670686
170 12 4 0.000000 -81.441052 62.548986 18.670686
171 12 3 0.000000 -75.541052 62.548986 18.670686
172 12 4 0.000000 -69.641052 62.548986 18.670686
173 12 1 0.000000 -63.741052 62.548986 18.670686
174 12 1 0.000000 -57.841052 62.548986 18.670686
175 12 3 0.000000 -51.941052 62.548986 18.670686
176 12 1 0.000000 -46.041052 62.548986 18.670686
177 13 2 0.000000 28.733089 41.351722 6.521056
178 13 3 0.000000 34.633089 41.351722 6.521056
179 13 3 0.000000 40.533089 41.351722 6.521056
180 13 4 0.000000 46.433089 41.351722 6.521056
181 13 3 0.000000 52.333089 41.351722 6.521056
182 13 4 0.000000 58.233089 41.351722 6.521056
183 13 1 0.000000 64.133089 41.351722 6.521056
184 13 1 0.000000 70.033089 41.351722 6.521056
185 13 3 0.000000 75.933089 41.351722 6.521056
186 13 1 0.000000 81.833089 41.351722 6.521056
187 14 2 0.000000 58.610838 -21.863812 9.367314
188 14 3 0.000000 64.510838 -21.863812 9.367314
189 14 3 0.000000 70.410838 -21.863812 9.367314
190 14 4 0.000000 76.310838 -21.863812 9.367314
191 14 3 0.000000 82.210838 -21.863812 9.367314
192 14 4 0.000000 88.110838 -21.863812 9.367314
193 14 1 0.000000 94.010838 -21.863812 9.367314
194 14 1 0.000000 99.910838 -21.863812 9.367314
195 14 3 0.000000 105.810838 -21.863812 9.367314
196 14 1 0.000000 111.710838 -21.863812 9.367314
197 15 2 0.000000 32.742840 21.333555 65.107242
198 15 3 0.000000 38.642840 21.333555 65.107242
199 15 3 0.000000 44.542840 21.333555 65.107242
200 15 4 0.000000 50.442840 21.333555 65.107242
201 15 3 0.000000 56.342840 21.333555 65.107242
202 15 4 0.000000 62.242840 21.333555 65.107242
203 15 1 0.000000 68.142840 21.333555 65.107242
204 15 1 0.000000 74.042840 21.333555 65.107242
205 15 3 0.000000 79.942840 21.333555 65.107242
206 15 1 0.000000 85.842840 21.333555 65.107242
207 16 2 0.000000 -12.626614 36.822931 -81.751611
208 16 3 0.000000 -6.726614 36.822931 -81.751611
209 16 3 0.000000 -0.826614 36.822931 -81.751611
210 16 4 0.000000 5.073386 36.822931 -81.751611
211 16 3 0.000000 10.973386 36.822931 -81.751611
212 16 4 0.000000 16.873386 36.822931 -81.751611
213 16 1 0.000000 22.773386 36.822931 -81.751611
214 16 1 0.000000 28.673386 36.822931 -81.751611
215 16 3 0.000000 34.573386 36.822931 -81.751611
216 16 1 0.000000 40.473386 36.822931 -81.751611
217 17 2 0.000000 -75.528310 -37.910167 -75.637444
218 17 3 0.000000 -69.628310 -37.910167 -75.637444
219 17 3 0.000000 -63.728310 -37.910167 -75.637444
220 17 4 0.000000 -57.828310 -37.910167 -75.637444
221 17 3 0.000000 -51.928310 -37.910167 -75.637444
222 17 4 0.000000 -46.028310 -37.910167 -75.637444
223 17 1 0.000000 -40.128310 -37.910167 -75.637444
224 17 1 0.000000 -34.228310 -37.910167 -75.637444
225 17 3 0.000000 -28.328310 -37.910167 -75.637444
226 17 1 0.000000 -22.428310 -37.910167 -75.637444
227 18 2 0.000000 -74.647640 -71.819743 -39.964751
228 18 3 0.000000 -68.747640 -71.819743 -39.964751
229 18 3 0.000000 -62.847640 -71.819743 -39.964751
230 18 4 0.000000 -56.947640 -71.819743 -39.964751
231 18 3 0.000000 -51.047640 -71.819743 -39.964751
232 18 4 0.000000 -45.147640 -71.819743 -39.964751
233 18 1 0.000000 -39.247640 -71.819743 -39.964751
234 18 1 0.000000 -33.347640 -71.819743 -39.964751
235 18 3 0.000000 -27.447640 -71.819743 -39.964751
236 18 1 0.000000 -21.547640 -71.819743 -39.964751
237 19 2 0.000000 -2.126800 -24.330208 -23.367426
238 19 3 0.000000 3.773200 -24.330208 -23.367426
239 19 3 0.000000 9.673200 -24.330208 -23.367426
240 19 4 0.000000 15.573200 -24.330208 -23.367426
241 19 3 0.000000 21.473200 -24.330208 -23.367426
242 19 4 0.000000 27.373200 -24.330208 -23.367426
243 19 1 0.000000 33.273200 -24.330208 -23.367426
244 19 1 0.000000 39.173200 -24.330208 -23.367426
245 19 3 0.000000 45.073200 -24.330208 -23.367426
246 19 1 0.000000 50.973200 -24.330208 -23.367426
247 20 2 0.000000 -78.838734 -41.943992 78.597826
248 20 3 0.000000 -72.938734 -41.943992 78.597826
249 20 3 0.000000 -67.038734 -41.943992 78.597826
250 20 4 0.000000 -61.138734 -41.943992 78.597826
251 20 3 0.000000 -55.238734 -41.943992 78.597826
252 20 4 0.000000 -49.338734 -41.943992 78.597826
253 20 1 0.000000 -43.438734 -41.943992 78.597826
254 20 1 0.000000 -37.538734 -41.943992 78.597826
255 20 3 0.000000 -31.638734 -41.943992 78.597826
256 20 1 0.000000 -25.738734 -41.943992 78.597826
257 21 2 0.000000 0.096369 19.643581 -59.195043
258 21 3 0.000000 5.996369 19.643581 -59.195043
259 21 3 0.000000 11.896369 19.643581 -59.195043
260 21 4 0.000000 17.796369 19.643581 -59.195043
261 21 3 0.000000 23.696369 19.643581 -59.195043
262 21 4 0.000000 29.596369 19.643581 -59.195043
263 21 1 0.000000 35.496369 19.643581 -59.195043
264 21 1 0.000000 41.396369 19.643581 -59.195043
265 21 3 0.000000 47.296369 19.643581 -59.195043
266 21 1 0.000000 53.196369 19.643581 -59.195043

Bonds

1 1 1 2
2 1 2 3
3 1 3 4
4 1 4 5
5 1 5 6
6 1 6 7
7 1 7 8
8 1 8 9
9 1 9 10
10 1 11 12
11 1 12 13
12 1 13 14
13 1 14 15
14 1 15 16
15 1 16 17
16 1 17 18
17 1 18 19
18 1 19 20
19 1 20 21
20 1 21 22
21 1 22 23
22 1 23 24
23 1 24 25
24 1 25 26
25 1 26 27
26 1 27 28
27 1 28 29
28 1 29 30
29 1 30 31
30 1 31 32
31 1 32 33
32 1 33 34
33 1 34 35
34 1 35 36
35 1 36 37
36 1 37 38
37 1 38 39
38 1 39 40
39 1 40 41
40 1 41 42
41 1 42 43
42 1 43 44
43 1 44 45
44 1 45 46
45 1 46 47
46 1 47 48
47 1 48 49
48 1 49 50
49 1 50 51
50 1 51 52
51 1 52 53
52 1 53 54
53 1 54 55
54 1 55 56
55 1 56 57
56 1 57 58
57 1 58 59
58 1 59 60
59 1 60 61
60 1 61 62
61 1 62 63
62 1 63 64
63 1 64 65
64 1 65 66
65 1 66 67
66 1 67 68
67 1 68 69
68 1 69 70
69 1 70 71
70 1 71 72
71 1 72 73
72 1 73 74
73 1 74 75
74 1 75 76
75 1 77 78
76 1 78 79
77 1 79 80
78 1 80 81
79 1 81 82
80 1 82 83
81 1 83 84
82 1 84 85
83 1 85 86
84 1 87 88
85 1 88 89
86 1 89 90
87 1 90 91
88 1 91 92
89 1 92 93
90 1 93 94
91 1 94 95
92 1 95 96
93 1 97 98
94 1 98 99
95 1 99 100
96 1 100 101
97 1 101 102
98 1 102 103
99 1 103 104
100 1 104 105
101 1 105 106
102 1 107 108
103 1 108 109
104 1 109 110
105 1 110 111
106 1 111 112
107 1 112 113
108 1 113 114
109 1 114 115
110 1 115 116
111 1 117 118
112 1 118 119
113 1 119 120
114 1 120 121
115 1 121 122
116 1 122 123
117 1 123 124
118 1 124 125
119 1 125 126
120 1 127 128
121 1 128 129
122 1 129 130
123 1 130 131
124 1 131 132
125 1 132 133
126 1 133 134
127 1 134 135
128 1 135 136
129 1 137 138
130 1 138 139
131 1 139 140
132 1 140 141
133 1 141 142
134 1 142 143
135 1 143 144
136 1 144 145
137 1 145 146
138 1 147 148
139 1 148 149
140 1 149 150
141 1 150 151
142 1 151 152
143 1 152 153
144 1 153 154
145 1 154 155
146 1 155 156
147 1 157 158
148 1 158 159
149 1 159 160
150 1 160 161
151 1 161 162
152 1 162 163
153 1 163 164
154 1 164 165
155 1 165 166
156 1 167 168
157 1 168 169
158 1 169 170
159 1 170 171
160 1 171 172
161 1 172 173
162 1 173 174
163 1 174 175
164 1 175 176
165 1 177 178
166 1 178 179
167 1 179 180
168 1 180 181
169 1 181 182
170 1 182 183
171 1 183 184
172 1 184 185
173 1 185 186
174 1 187 188
175 1 188 189
176 1 189 190
177 1 190 191
178 1 191 192
179 1 192 193
180 1 193 194
181 1 194 195
182 1 195 196
183 1 197 198
184 1 198 199
185 1 199 200
186 1 200 201
187 1 201 202
188 1 202 203
189 1 203 204
190 1 204 205
191 1 205 206
192 1 207 208
193 1 208 209
194 1 209 210
195 1 210 211
196 1 211 212
197 1 212 213
198 1 213 214
199 1 214 215
200 1 215 216
201 1 217 218
202 1 218 219
203 1 219 220
204 1 220 221
205 1 221 222
206 1 222 223
207 1 223 224
208 1 224 225
209 1 225 226
210 1 227 228
211 1 228 229
212 1 229 230
213 1 230 231
214 1 231 232
215 1 232 233
216 1 233 234
217 1 234 235
218 1 235 236
219 1 237 238
220 1 238 239
221 1 239 240
222 1 240 241
223 1 241 242
224 1 242 243
225 1 243 244
226 1 244 245
227 1 245 246
228 1 247 248
229 1 248 249
230 1 249 250
231 1 250 251
232 1 251 252
233 1 252 253
234 1 253 254
235 1 254 255
236 1 255 256
237 1 257 258
238 1 258 259
239 1 259 260
240 1 260 261
241 1 261 262
242 1 262 263
243 1 263 264
244 1 264 265
245 1 265 266

Angles

1 1 1 2 3
2 1 2 3 4
3 1 3 4 5
4 1 4 5 6
5 1 5 6 7
6 1 6 7 8
7 1 7 8 9
8 1 8 9 10
9 1 11 12 13
10 1 12 13 14
11 1 13 14 15
12 1 14 15 16
13 1 15 16 17
14 1 16 17 18
15 1 17 18 19
16 1 18 19 20
17 1 19 20 21
18 1 20 21 22
19 1 21 22 23
20 1 22 23 24
21 1 23 24 25
22 1 24 25 26
23 1 25 26 27
24 1 26 27 28
25 1 27 28 29
26 1 28 29 30
27 1 29 30 31
28 1 30 31 32
29 1 31 32 33
30 1 32 33 34
31 1 33 34 35
32 1 34 35 36
33 1 35 36 37
34 1 36 37 38
35 1 37 38 39
36 1 38 39 40
37 1 39 40 41
38 1 40 41 42
39 1 41 42 43
40 1 42 43 44
41 1 43 44 45
42 1 44 45 46
43 1 45 46 47
44 1 46 47 48
45 1 47 48 49
46 1 48 49 50
47 1 49 50 51
48 1 50 51 52
49 1 51 52 53
50 1 52 53 54
51 1 53 54 55
52 1 54 55 56
53 1 55 56 57
54 1 56 57 58
55 1 57 58 59
56 1 58 59 60
57 1 59 60 61
58 1 60 61 62
59 1 61 62 63
60 1 62 63 64
61 1 63 64 65
62 1 64 65 66
63 1 65 66 67
64 1 66 67 68
65 1 67 68 69
66 1 68 69 70
67 1 69 70 71
68 1 70 71 72
69 1 71 72 73
70 1 72 73 74
71 1 73 74 75
72 1 74 75 76
73 1 77 78 79
74 1 78 79 80
75 1 79 80 81
76 1 80 81 82
77 1 81 82 83
78 1 82 83 84
79 1 83 84 85
80 1 84 85 86
81 1 87 88 89
82 1 88 89 90
83 1 89 90 91
84 1 90 91 92
85 1 91 92 93
86 1 92 93 94
87 1 93 94 95
88 1 94 95 96
89 1 97 98 99
90 1 98 99 100
91 1 99 100 101
92 1 100 101 102
93 1 101 102 103
94 1 102 103 104
95 1 103 104 105
96 1 104 105 106
97 1 107 108 109
98 1 108 109 110
99 1 109 110 111
100 1 110 111 112
101 1 111 112 113
102 1 112 113 114
103 1 113 114 115
104 1 114 115 116
105 1 117 118 119
106 1 118 119 120
107 1 119 120 121
108 1 120 121 122
109 1 121 122 123
110 1 122 123 124
111 1 123 124 125
112 1 124 125 126
113 1 127 128 129
114 1 128 129 130
115 1 129 130 131
116 1 130 131 132
117 1 131 132 133
118 1 132 133 134
119 1 133 134 135
120 1 134 135 136
121 1 137 138 139
122 1 138 139 140
123 1 139 140 141
124 1 140 141 142
125 1 141 142 143
126 1 142 143 144
127 1 143 144 145
128 1 144 145 146
129 1 147 148 149
130 1 148 149 150
131 1 149 150 151
132 1 150 151 152
133 1 151 152 153
134 1 152 153 154
135 1 153 154 155
136 1 154 155 156
137 1 157 158 159
138 1 158 159 160
139 1 159 160 161
140 1 160 161 162
141 1 161 162 163
142 1 162 163 164
143 1 163 164 165
144 1 164 165 166
145 1 167 168 169
146 1 168 169 170
147 1 169 170 171
148 1 170 171 172
149 1 171 172 173
150 1 172 173 174
151 1 173 174 175
152 1 174 175 176
153 1 177 178 179
154 1 178 179 180
155 1 179 180 181
156 1 180 181 182
157 1 181 182 183
158 1 182 183 184
159 1 183 184 185
160 1 184 185 186
161 1 187 188 189
162 1 188 189 190
163 1 189 190 191
164 1 190 191 192
165 1 191 192 193
166 1 192 193 194
167 1 193 194 195
168 1 194 195 196
169 1 197 198 199
170 1 198 199 200
171 1 199 200 201
172 1 200 201 202
173 1 201 202 203
174 1 202 203 204
175 1 203 204 205
176 1 204 205 206
177 1 207 208 209
178 1 208 209 210
179 1 209 210 211
180 1 210 211 212
181 1 211 212 213
182 1 212 213 214
183 1 213 214 215
184 1 214 215 216
185 1 217 218 219
186 1 218 219 220
187 1 219 220 221
188 1 220 221 222
189 1 221 222 223
190 1 222 223 224
191 1 223 224 225
192 1 224 225 226
193 1 227 228 229
194 1 228 229 230
195 1 229 230 231
196 1 230 231 232
197 1 231 232 233
198 1 232 233 234
199 1 233 234 235
200 1 234 235 236
201 1 237 238 239
202 1 238 239 240
203 1 239 240 241
204 1 240 241 242
205 1 241 242 243
206 1 242 243 244
207 1 243 244 245
208 1 244 245 246
209 1 247 248 249
210 1 248 249 250
211 1 249 250 251
212 1 250 251 252
213 1 251 252 253
214 1 252 253 254
215 1 253 254 255
216 1 254 255 256
217 1 257 258 259
218 1 258 259 260
219 1 259 260 261
220 1 260 261 262
221 1 261 262 263
222 1 262 263 264
223 1 263 264 265
224 1 264 265 266
