LAMMPS data file via write_data, version 29 Aug 2024, timestep = 105000000, units = real

266 atoms
4 atom types
245 bonds
1 bond types
224 angles
1 angle types

-220 220 xlo xhi
-220 220 ylo yhi
-220 220 zlo zhi

Masses

1 329.2
2 305.2
3 345.2
4 306.2

Bond Coeffs # harmonic

1 7.5 5.9

Angle Coeffs # harmonic

1 5 150

Atoms # full

92 4 4 0 -8.057451609262971 -151.0751192743135 -213.78015068619433 -2 -1 1
93 4 1 0 -7.456720998291659 -146.14371245388696 -210.86833360550304 -2 -1 1
94 4 1 0 -4.573768827324817 -143.61735997545549 -206.7478443817254 -2 -1 1
245 19 3 0 -6.958513843556959 -87.27502560297351 -165.79646378038038 -1 0 0
246 19 1 0 -10.655187123881014 -91.60901886691505 -166.52713671825433 -1 0 0
244 19 1 0 -3.918105495533728 -85.55153366458958 -160.85994797988778 -1 0 0
171 12 3 0 -62.69276341318851 -141.20415964206387 -69.27725405517079 0 1 0
172 12 4 0 -63.11642650885662 -146.42359772346373 -65.89227509260874 0 1 0
170 12 4 0 -64.223255193859 -136.267354189564 -72.19853822608547 0 1 0
167 12 2 0 -74.48576919776214 -129.05722926172805 -82.99430998658961 0 1 0
168 12 3 0 -70.34702760063473 -129.48736658103883 -78.80004366536505 0 1 0
169 12 3 0 -66.39892504070065 -133.4511859852144 -76.47496979864636 0 1 0
166 11 1 0 -89.20306148930594 -48.82171385989192 -79.81534247733474 2 1 -1
162 11 4 0 -108.56106117895774 -43.70870578325517 -71.95562292483524 2 1 -1
163 11 1 0 -103.45771835460748 -46.42754533850239 -70.71136124463075 2 1 -1
161 11 3 0 -113.35463243692567 -40.94777249281729 -70.52470094423269 2 1 -1
165 11 3 0 -93.69845265986054 -49.484799422769655 -76.47859437570291 2 1 -1
164 11 1 0 -97.87188298193306 -48.595450142625246 -72.3817805294038 2 1 -1
175 12 3 0 -60.08965252308322 -154.51012423081013 -52.69022653983257 0 1 0
176 12 1 0 -59.66415141443753 -158.3328153950774 -48.04711883779827 0 1 0
174 12 1 0 -61.221763588146814 -149.59095430586257 -55.69388064416816 0 1 0
173 12 1 0 -64.33422762668506 -148.79946554870958 -60.37686565574618 0 1 0
157 11 2 0 -121.92079407497539 -28.11106476802164 -54.62058779114208 2 1 -1
158 11 3 0 -121.86554549227162 -32.21440623328094 -58.81784856318197 2 1 -1
160 11 4 0 -114.94628974628058 -37.12565233913744 -66.36132869160284 2 1 -1
159 11 3 0 -118.24497344017618 -36.348649113742276 -61.6808674090253 2 1 -1
91 4 3 0 -5.396791604739761 -153.25059617253234 -218.75596074476513 -2 -1 1
177 13 2 0 -122.28320387952468 -152.10903752506456 42.58568082896999 -2 1 0
180 13 4 0 -118.21372318591524 -138.0732722243463 43.871449757247696 -2 1 0
179 13 3 0 -116.16536632775525 -143.16128350544707 45.152418297523916 -2 1 0
178 13 3 0 -118.14240177280976 -147.87551973296118 43.487117825233014 -2 1 0
185 13 3 0 -140.8820766165694 -128.9613085185585 36.77025802448077 -2 1 0
186 13 1 0 -146.2580299277778 -127.38377330299161 34.80464795752771 -2 1 0
181 13 3 0 -121.98825740584981 -137.97815616521737 39.30188953578475 -2 1 0
182 13 4 0 -126.56405949430305 -134.59828666263783 36.834354319359036 -2 1 0
184 13 1 0 -135.54831900911208 -126.91192700199196 36.75909266546803 -2 1 0
183 13 1 0 -130.17330819132385 -129.8979426673848 35.592516425533255 -2 1 0
202 15 4 0 -165.8788549132563 -215.25237213737705 195.95924360756197 0 -1 -1
201 15 3 0 -166.63765142298936 -216.65164057676563 190.49880363051292 0 -1 -1
203 15 1 0 -162.2984252830454 -212.25762202721577 199.57592252630909 0 -1 -1
204 15 1 0 -156.94999761700765 -210.2992476593773 200.5345826867944 0 -1 -1
132 8 4 0 -43.12459210931225 -25.46101253352279 201.1943644413988 1 -2 -1
133 8 1 0 -42.22810504704389 -22.153890474583644 196.09997283766256 1 -2 -1
134 8 1 0 -41.54598446984774 -16.200983180040463 196.77642622372898 1 -2 -1
131 8 3 0 -47.910467269149024 -28.601855065646877 202.15745810802645 1 -2 -1
136 8 1 0 -44.65066866308767 -5.031868315950224 198.3204133439495 1 -2 -1
135 8 3 0 -43.90074170561569 -10.808382275312438 198.13532045567038 1 -2 -1
205 15 3 0 -152.29073918270467 -207.3213921604742 202.3579877219566 0 -1 -1
206 15 1 0 -149.80519295411307 -206.78867411738196 207.61666350918256 0 -1 -1
130 8 4 0 -49.7609435373123 -32.517905316088715 205.67577298933472 1 -2 -1
128 8 3 0 -52.84352366781311 -41.009796535492384 209.20232043056006 1 -2 -1
127 8 2 0 -52.11453276193961 -46.880878686902314 209.60358032783705 1 -2 -1
129 8 3 0 -50.35548120162359 -36.27029995316041 210.59202720219758 1 -2 -1
90 4 4 0 -0.37228143474048475 -151.62583719506424 218.4491179870256 -2 -1 0
87 4 2 0 -0.26138267699009066 -152.18769107621955 204.09169754378954 -2 -1 0
8 1 1 0 -170.71436001030062 79.26397365231784 -207.11819239009094 1 0 2
7 1 1 0 -175.65140888215902 82.52509580761556 -205.01329717036106 1 0 2
9 1 3 0 -167.73758580228 77.40786651787968 -211.53507559621005 1 0 2
10 1 1 0 -164.35271714274518 73.33610791350834 -214.0411337418591 1 0 2
6 1 4 0 -176.53831785137277 86.54628340851117 -209.39933074942894 1 0 2
5 1 3 0 -179.0569277871434 91.25945812861737 -211.4318968126253 1 0 2
4 1 4 0 -176.99445415499707 97.05661898583101 -211.91943601219666 1 0 2
3 1 3 0 -178.32181352922828 102.49833335690346 -212.35033806602303 1 0 2
2 1 3 0 -180.13662698798277 105.67645209018204 -216.96821846130916 1 0 2
156 10 1 0 -79.59767372224377 206.3022994989203 -117.37270445630323 0 -1 1
153 10 1 0 -85.05592943697346 208.3509139504466 -101.9295167176331 0 -1 1
155 10 3 0 -81.99483257222737 204.3879581636241 -112.1723504439501 0 -1 1
154 10 1 0 -85.5248120718552 206.5037051512524 -107.93254456826396 0 -1 1
152 10 4 0 -85.5624390744516 207.29134623246145 -96.2942002900408 0 -1 1
151 10 3 0 -83.81282744821127 205.7610004453853 -90.74929409993464 0 -1 1
149 10 3 0 -75.4142776932341 205.38240472215 -83.56536251621716 0 -1 1
150 10 4 0 -80.37247904271617 206.5720994077148 -86.09450415527255 0 -1 1
148 10 3 0 -69.6835532653111 206.11558569244968 -84.1175602695146 0 -1 1
147 10 2 0 -65.29094683540497 203.19221747571603 -86.96400150326286 0 -1 1
77 3 2 0 -43.84127197630201 89.20406819293962 33.33499089982498 0 0 -3
78 3 3 0 -41.467993147086304 87.31562674106333 38.387333833960106 0 0 -3
79 3 3 0 -41.90627292952006 87.46389699504621 44.29683051836228 0 0 -3
80 3 4 0 -39.4005455448504 90.04395171498011 49.17880259927053 0 0 -3
81 3 3 0 -34.52531348891896 93.26442191424736 50.01172948592586 0 0 -3
82 3 4 0 -28.49800128300621 93.962708524053 48.47714159808118 0 0 -3
84 3 1 0 -18.3788674828716 91.26001600283507 51.41775924898295 0 0 -3
83 3 1 0 -23.117600106825844 93.11331534513785 48.2739773766843 0 0 -3
86 3 1 0 -14.014876047936891 85.7149528914657 60.52042017320126 0 0 -3
85 3 3 0 -15.708090284857215 90.22186962404389 56.67600391055526 0 0 -3
113 6 1 0 -102.20338030238656 196.22008035559818 146.61635266417784 -1 -1 0
114 6 1 0 -105.68779745884859 191.9627405400444 148.46517429195643 -1 -1 0
115 6 3 0 -107.7574487621218 189.2138034833385 153.10613080636577 -1 -1 0
112 6 4 0 -96.58589202612963 196.80880292227948 145.42062222331316 -1 -1 0
111 6 3 0 -92.360197975373 199.7168345035623 142.71479233153724 -1 -1 0
110 6 4 0 -88.09764350609561 203.87996024585198 143.6510836565784 -1 -1 0
109 6 3 0 -82.74374986684215 204.87744308323948 141.61802190205768 -1 -1 0
107 6 2 0 -76.00091772503458 212.8739186763966 135.38467305848576 -1 -1 0
108 6 3 0 -78.94895368211162 209.2354666428517 139.38531922915112 -1 -1 0
116 6 1 0 -109.7932878033407 188.28402177282734 158.6005104693453 -1 -1 0
197 15 2 0 -172.4462065514914 202.08110533650665 192.75135377368008 0 -2 -1
199 15 3 0 -171.8174865569458 213.22844310357723 188.8034279706726 0 -2 -1
198 15 3 0 -172.95883689810424 207.58892535240835 189.4769849122271 0 -2 -1
200 15 4 0 -169.09346888970452 218.3001771830345 188.00265707705339 0 -2 -1
1 1 2 0 -178.91752442766628 110.08205252102552 219.7003335505467 1 0 1
95 4 3 0 0.37007707811474344 -140.65080673278695 -204.93691955354853 -2 -1 1
96 4 1 0 6.0336117710251 -139.44348480894655 -204.22208008445529 -2 -1 1
207 16 2 0 65.2240955337377 -119.61093079812476 -201.00888873505153 -1 0 0
13 2 3 0 136.75686248078577 -98.32186441417252 -14.877989972516854 0 1 0
120 7 4 0 118.12967140160221 -8.682291962888394 -216.34992987495085 0 -1 1
121 7 3 0 119.84296009054445 -4.894106391694616 -212.14008428809788 0 -1 1
122 7 4 0 122.21230032362217 -3.242943387139593 -207.41417710628983 0 -1 1
123 7 1 0 127.37067561818264 -0.4098765445779058 -206.36694160491123 0 -1 1
208 16 3 0 68.04612284334708 -118.3229918548234 -196.1145935732676 -1 0 0
209 16 3 0 69.02549363061928 -115.74643244587274 -190.6749883786699 -1 0 0
210 16 4 0 71.28483718226836 -115.68164265563622 -185.4309098953245 -1 0 0
214 16 1 0 78.14650631052355 -126.95372894180132 -169.239314466728 -1 0 0
213 16 1 0 74.00723444462348 -125.7000977823549 -173.59148305185096 -1 0 0
212 16 4 0 71.18586910817979 -120.95611233775094 -175.61810717204557 -1 0 0
211 16 3 0 69.98197554024426 -117.07830731667197 -179.82636894599267 -1 0 0
216 16 1 0 82.21998650261214 -130.03152632129692 -160.5384285814447 -1 0 0
215 16 3 0 79.12809704563226 -130.33344300778091 -165.51274718040932 -1 0 0
20 2 4 0 136.71004741444708 -115.90574094605266 -5.081059222739013 0 1 0
242 19 4 0 3.5801256001549158 -83.37530418876985 -152.78939836419804 -1 0 0
240 19 4 0 6.568680561147374 -86.01100471919278 -143.47799479122742 -1 0 0
241 19 3 0 4.869381050800193 -82.18970816513219 -147.48122229845484 -1 0 0
239 19 3 0 8.55178239123223 -84.82100130443811 -137.8830673815992 -1 0 0
238 19 3 0 8.459667627234975 -84.6057581893877 -131.6639024602036 -1 0 0
237 19 2 0 13.218643631140601 -83.89250487764906 -128.6625303909701 -1 0 0
98 5 3 0 120.96334763847133 -44.7306907237683 -85.20302288207357 1 -1 1
97 5 2 0 123.76773147387885 -44.35692822208749 -90.601752810847 1 -1 1
106 5 1 0 82.70848623620746 -59.53090709784426 -69.88241364658312 1 -1 1
105 5 3 0 85.49868939053297 -57.769768926319905 -75.0474343621326 1 -1 1
104 5 1 0 91.09037669877881 -56.08993592528669 -75.77438091790282 1 -1 1
103 5 1 0 96.51351543758406 -53.320566045484505 -74.63000399674446 1 -1 1
102 5 4 0 99.32828273666199 -49.49539753957261 -78.27903624705743 1 -1 1
99 5 3 0 115.41583434473245 -44.58354711143333 -83.38135251341318 1 -1 1
100 5 4 0 109.54769267424075 -45.86605172834382 -82.52403005621575 1 -1 1
101 5 3 0 104.827446086165 -47.90972954558791 -79.60373471844272 1 -1 1
36 2 2 0 115.92202007701935 -150.34336977305762 -36.26678480613645 0 1 0
35 2 1 0 119.12123966155919 -145.15465429412694 -37.22278776229136 0 1 0
34 2 2 0 121.14860789664138 -139.6599877699278 -38.70948780481246 0 1 0
33 2 1 0 122.5562541877935 -135.45442220165114 -34.85171623881761 0 1 0
66 2 4 0 88.63425782413215 -156.53101784518995 -21.59750063002481 0 1 0
40 2 3 0 102.30219401064078 -156.60354795939878 -19.142753705671133 0 1 0
37 2 2 0 113.59632988005077 -154.26617561384325 -32.80583052275236 0 1 0
39 2 4 0 106.74322198776879 -157.5293982381403 -23.27814239209829 0 1 0
38 2 3 0 110.80536558433502 -154.7774995805099 -27.29158212927462 0 1 0
41 2 2 0 99.07458672667403 -152.22936929420763 -18.74508437625416 0 1 0
67 2 1 0 88.91796307952582 -152.93859541382452 -25.78309143200329 0 1 0
68 2 4 0 89.25559563459574 -147.55816351870038 -28.171712464650682 0 1 0
70 2 2 0 98.1302157099472 -141.39843712728674 -31.141035772541724 0 1 0
69 2 1 0 92.99016463338569 -143.07832020777366 -30.18691211424042 0 1 0
71 2 1 0 103.95353110392576 -142.41125418745636 -30.061966100940875 0 1 0
72 2 3 0 109.080481336879 -142.54406242265546 -27.240090608147558 0 1 0
73 2 3 0 114.41720505019087 -144.69780439208282 -28.034925035185847 0 1 0
74 2 3 0 119.96720643279843 -144.59516016996943 -26.183207667549 0 1 0
75 2 2 0 124.94191522132549 -142.8777163418554 -22.829853186242545 0 1 0
76 2 4 0 127.74466059086909 -142.91654351550278 -17.69602620685413 0 1 0
31 2 4 0 117.20508980716882 -130.7815676153536 -26.035344180126188 0 1 0
30 2 2 0 116.8840745249473 -133.28486619517415 -20.840680231058418 0 1 0
32 2 4 0 119.26010151312202 -131.9422316720781 -31.34815512550294 0 1 0
15 2 3 0 133.1569553764189 -106.32947847593987 -22.76440875668198 0 1 0
14 2 4 0 135.82610942874732 -102.3900269298135 -19.030632931580616 0 1 0
16 2 4 0 134.72464112116307 -111.76287311861958 -24.623461013149285 0 1 0
17 2 1 0 137.05501000313834 -116.28103120859474 -21.648564175258205 0 1 0
12 2 3 0 141.79661723128498 -94.96489141184723 -14.960213941218756 0 1 0
11 2 2 0 147.40774374579405 -95.57107275092682 -17.039036764855013 0 1 0
62 2 3 0 94.71003848931329 -160.7422528787729 -4.2670778347514515 0 1 0
64 2 2 0 86.55207457610132 -156.9017457029899 -10.528113901475479 0 1 0
65 2 3 0 86.06543477687053 -155.73140703907944 -16.220532799997073 0 1 0
63 2 4 0 89.08883996522282 -159.12207424717738 -5.76565665359764 0 1 0
42 2 3 0 95.41364928384866 -148.32706233927263 -16.450190063116935 0 1 0
43 2 3 0 91.9663229799357 -146.64646356859015 -12.017263817627272 0 1 0
44 2 2 0 90.16682279009459 -147.9404117302287 -6.798064816776512 0 1 0
45 2 1 0 91.63340721240465 -149.70927233271988 -1.3862858648159435 0 1 0
57 2 2 0 109.1822226619567 -145.62094968019412 -4.24565956529679 0 1 0
56 2 3 0 107.28558026377223 -140.4230364855528 -6.320991212220581 0 1 0
28 2 3 0 118.44942037177488 -140.09984277776334 -11.516255219332752 0 1 0
29 2 4 0 118.31722675419223 -135.74825110974348 -15.493279940829197 0 1 0
27 2 2 0 120.8314834627343 -142.80526101089143 -7.313611849815728 0 1 0
26 2 2 0 123.07748463435888 -141.34612170480108 -2.3772569753755675 0 1 0
55 2 2 0 106.7367338050798 -134.6481002400576 -6.071780740113726 0 1 0
54 2 1 0 107.93881198803774 -129.02223014368167 -4.282962896809425 0 1 0
18 2 1 0 137.42655016329607 -117.48704041759993 -15.765259565036756 0 1 0
21 2 3 0 132.99533426937444 -118.89913554383719 -1.3125113381803308 0 1 0
19 2 3 0 139.37134612860643 -115.7171168187406 -10.290591928201408 0 1 0
61 2 4 0 99.34135402947368 -160.38626348442466 -0.3569657247751015 0 1 0
53 2 1 0 113.02521157955816 -127.27293651938051 -1.6572249799599097 0 1 0
243 19 1 0 0.4002033395776016 -83.2073881003151 -157.8611299800861 -1 0 0
119 7 3 0 116.88469150330948 -7.042373027842841 218.3322684903273 0 -1 0
60 2 1 0 104.55102478640185 -157.62561181915214 0.7596784339199217 0 1 0
59 2 3 0 108.0497478187497 -154.074876249585 3.0648491756812377 0 1 0
46 2 2 0 94.68931311980326 -151.2124762438812 3.019273602281058 0 1 0
47 2 1 0 97.50261208123872 -148.53677812825995 6.560174133941392 0 1 0
48 2 3 0 102.00931663325845 -144.4257580531641 7.604809412183226 0 1 0
49 2 2 0 107.09192194637231 -142.15232549896044 7.329586676622758 0 1 0
50 2 3 0 110.96179204799407 -138.46557610418003 6.321354882258538 0 1 0
58 2 4 0 109.91959943268014 -148.63082002296645 0.9911051207306286 0 1 0
25 2 2 0 126.97459073765748 -138.42897432431394 0.9118519938762187 0 1 0
51 2 3 0 112.72930579990896 -132.9262764149239 6.619021542169102 0 1 0
52 2 1 0 115.0719636513388 -128.81490209553272 3.592877860080873 0 1 0
117 7 2 0 106.08560637536863 -3.8466051112284982 215.88953346984343 0 -1 0
23 2 1 0 128.4007816251377 -127.07795131486183 2.466989560876865 0 1 0
22 2 2 0 132.5316386049687 -123.13639188478874 2.783229609099501 0 1 0
24 2 3 0 129.35394580442562 -133.3730242914584 2.2583244611360804 0 1 0
192 14 4 0 217.2349685462316 -10.796688469832656 16.422172344877712 2 0 -1
118 7 3 0 111.6152759815794 -6.073938761897522 216.03408844358006 0 -1 0
194 14 1 0 212.8228953671933 -18.74474184979394 23.58648942764343 2 0 -1
195 14 3 0 210.79688183087165 -19.558082372745893 29.01016920331112 2 0 -1
196 14 1 0 209.66008354992096 -23.63261467618916 33.23325976875531 2 0 -1
191 14 3 0 217.23180594063294 -5.017492785035438 14.52413249824167 2 0 -1
193 14 1 0 213.37929398736406 -14.76337704324598 19.080697835339866 2 0 -1
223 17 1 0 127.90611740383093 -108.835489481737 132.74453738333685 -1 -2 0
224 17 1 0 124.9742230968478 -105.07086462619345 135.9577832036383 -1 -2 0
222 17 4 0 133.92870001587622 -109.65212185561943 131.4744573604199 -1 -2 0
221 17 3 0 139.25828333198328 -109.34036965456391 129.1581313800678 -1 -2 0
220 17 4 0 144.22017537146996 -108.44381326147271 131.58233258182895 -1 -2 0
219 17 3 0 149.06925861436653 -105.676454261511 129.95428017145238 -1 -2 0
218 17 3 0 153.14694931437856 -103.18925556568789 127.13354176585514 -1 -2 0
217 17 2 0 156.2564212478042 -100.60613387240991 122.99286059057864 -1 -2 0
225 17 3 0 125.3747253726311 -103.76339659425825 141.7556313168392 -1 -2 0
226 17 1 0 128.39555147281928 -100.25480131020467 145.66108936047715 -1 -2 0
266 21 1 0 96.76697841301831 -3.9374665205827974 139.35586707893478 0 -1 0
265 21 3 0 94.10702068848164 -3.8123188492186437 144.6134270699862 0 -1 0
264 21 1 0 90.46442942743147 -1.2246411911019703 148.25583196697468 0 -1 0
263 21 1 0 87.47315824044055 -3.957116211174843 152.76383271347802 0 -1 0
257 21 2 0 65.66185378214945 -19.91513554798352 159.00174159532517 0 -1 0
258 21 3 0 71.59427167148311 -20.06871530416588 157.83496219515357 0 -1 0
259 21 3 0 76.50316833515267 -17.151632402274213 156.42846320874673 0 -1 0
260 21 4 0 82.55056827630696 -16.005044000769843 156.3674580904912 0 -1 0
261 21 3 0 87.28431919356105 -13.18147089590053 159.31772350631948 0 -1 0
262 21 4 0 88.34632244655967 -7.752768117035898 157.29204674214392 0 -1 0
88 4 3 0 1.7835005325539643 -148.5406880064696 208.09243670292864 -2 -1 0
89 4 3 0 2.2378006132487083 -148.65552439268583 213.74295647275133 -2 -1 0
124 7 1 0 130.485126547381 3.8937746681014165 -204.24209708510472 0 -1 1
125 7 3 0 131.24551637353943 9.6755301144434 -203.67510209563667 0 -1 1
126 7 1 0 134.3350577618953 14.510539465185825 -202.063588649222 0 -1 1
234 18 1 0 129.04297177908145 38.1219678134537 -140.376486397232 -2 1 1
236 18 1 0 128.30751895510036 40.22852052912122 -150.8992652171059 -2 1 1
235 18 3 0 129.29031059130776 36.6319964700452 -146.2829598369418 -2 1 1
230 18 4 0 114.34027315592645 51.00887591014069 -136.61906076880783 -2 1 1
231 18 3 0 116.92776942221653 45.91104054947061 -136.2004306895119 -2 1 1
233 18 1 0 127.08498229352004 41.34839104017729 -135.76495483461076 -2 1 1
232 18 4 0 121.60574512818626 42.991073326268015 -134.99949035540445 -2 1 1
227 18 2 0 110.93818271808618 65.39880849237105 -128.99204123339055 -2 1 1
229 18 3 0 111.55184051205609 55.55190487914389 -134.63213516540168 -2 1 1
228 18 3 0 110.570385920599 60.68880294578945 -132.55455189040205 -2 1 1
249 20 3 0 80.19651009519819 66.8333629110899 -52.27301932108361 0 1 2
247 20 2 0 88.51489210444505 68.01825932333004 -60.695727811821456 0 1 2
248 20 3 0 83.99267259200795 67.05870510918761 -56.91346280888131 0 1 2
256 20 1 0 49.43189288111781 56.20391573302523 -43.2348914732805 0 1 2
255 20 3 0 54.72390037162845 58.942282404444896 -43.578907636841244 0 1 2
254 20 1 0 59.82068643909926 61.06311296250266 -40.94520182449474 0 1 2
253 20 1 0 65.22503591157192 62.22741260522198 -40.80219347903294 0 1 2
252 20 4 0 69.10713614610609 66.75440099024009 -40.54167943726436 0 1 2
250 20 4 0 76.02763940625152 69.44053534520441 -49.40126114921546 0 1 2
251 20 3 0 71.59420756147307 69.06093276420654 -45.39120685840185 0 1 2
189 14 3 0 215.77641053527543 6.168892295203838 17.496374419718105 2 0 -1
188 14 3 0 210.8134282092108 7.7549052538458465 20.11860615917557 2 0 -1
187 14 2 0 205.3236150925467 5.395503611764253 21.800724353622307 2 0 -1
137 9 2 0 62.067493193972474 181.2154798928332 105.00479957690284 -1 0 0
138 9 3 0 62.55791465203145 177.67605503621098 109.35597811632778 -1 0 0
139 9 3 0 61.739604087369436 174.42507236174438 114.12246760241615 -1 0 0
143 9 1 0 53.12408420399479 167.80868644003252 131.39566226806605 -1 0 0
141 9 3 0 59.177443380742154 168.75885879424726 122.95655324361847 -1 0 0
142 9 4 0 57.938338222942555 169.55310635260716 128.52694449718302 -1 0 0
140 9 4 0 58.82488503529455 170.77534843532413 117.55538679707783 -1 0 0
145 9 3 0 46.96262062451092 168.55894201254355 140.63714461819254 -1 0 0
144 9 1 0 47.8331313749874 168.27840979676748 134.63595505116743 -1 0 0
146 9 1 0 43.751880198455765 168.0390711334577 145.6255337502615 -1 0 0
190 14 4 0 216.94497305242896 0.7356272832268343 15.029479516192346 2 0 -1

Velocities

92 -0.00020763622329862975 0.001272396308641626 0.00015008660273956484
93 0.0001305758957998666 0.0003542712714409509 -0.0014705448675531225
94 -0.000507689748689266 0.0008986070228176344 -0.0012728142073100857
245 0.0007075865178107462 0.0012396630914535641 0.0012774331227285466
246 0.0009241284973255878 0.001074942802327795 -0.00045613892068474906
244 -0.0008554842829940077 -0.0002772677674127042 -0.0014094188908180057
171 0.0002399176944323519 -0.00017627323588832294 -0.00014208772042101215
172 -0.0011491766523955005 0.00026116250106377316 0.0005604978564035578
170 -0.0010818431183127724 -0.0017774915399508093 -0.0011120281997559407
167 0.0002749227610197693 0.001446457700526003 -0.0008290116301710236
168 -0.0011551672444492448 0.002297483567579875 0.0001968271503503053
169 -0.0002714111816511178 -0.0011463610097940213 0.0012371063725786203
166 0.0007789621006344651 9.635794859605041e-05 0.0008059057412280187
162 -0.00021029661945813223 0.0014058492425717936 -0.0008622181238636947
163 -0.0016758654966000023 -0.00027501392523063744 0.0005350916778258509
161 0.0008448237195888156 0.0005974130757468942 0.0008681135145038691
165 -0.0006116783788734825 0.0002636753617274837 -0.0006298839533629867
164 0.0015167014943528062 -0.0017457734009828094 0.00036940140765337405
175 3.5369288950792865e-05 0.0010651674949798255 0.0012719777344889656
176 0.0005347943821125145 0.0008632034678157549 -0.0002656199554773231
174 -0.0006226405520128255 -0.0007315359832347117 0.0007158243459177846
173 -0.0014237994247685442 0.00021593092872330846 -0.0011418481545546245
157 0.0004970477969359567 0.0003035280394220863 -0.0009035473845640456
158 0.0007450684003724494 0.0007127912168838688 -0.00028544731069847897
160 0.00017201303863277102 1.3306496355497825e-05 -0.0005167832164259043
159 -0.0013115114814645234 -0.00013332196233521064 -0.00104745343517013
91 -0.0005869846064918221 0.00012764171877981584 0.0008284112644068461
177 -0.0014019281371559938 0.0003888072290204337 -0.0009798366906201062
180 -0.0003557926568784265 -0.0006248135500774225 -0.00037621218378498203
179 0.00034613625682201345 0.0005895157764880278 -0.001454737662531496
178 0.00011954272907717788 -0.0005518680633021924 -0.00034273356862697657
185 -0.0011900868013961436 -0.0006106026321916808 -0.0007428934246667407
186 -0.0011803139065518957 0.001016891745670529 4.3399949200070265e-05
181 0.00028903863912189243 0.00017000927199975247 9.049536732553824e-05
182 0.00047908482536662727 0.0004634188451807976 0.0004242066323625678
184 0.0006310385063451315 0.0008103559224304544 8.381221873501682e-05
183 0.0010132843746041215 0.0006541221912482213 0.00010881011214700659
202 0.0008899799115537325 -0.001726110909201409 -0.0008185139507744416
201 -0.0006212557354637598 0.00044981085915712373 -0.001115385432084361
203 -0.0007204425467964474 0.0009721274064639877 -0.0004888485217993934
204 -0.00045308206721690885 -0.0002590082208359068 0.0004799647275190325
132 -0.00047529377094985875 0.002041964904323493 -0.0006605774595234955
133 8.561219650313307e-05 -0.00028902767714433146 5.403071753499075e-05
134 -0.0004695932167605271 -0.00015481979953429649 0.00013787766365567423
131 0.0007841441292005192 -0.0016143149636414587 6.171209663086257e-05
136 0.0005738737355984697 0.00045051741028558805 0.0011444642941409208
135 0.0007758152744626233 0.00013006569842679343 -0.0005274120407284305
205 0.0005395110561956893 0.0009598673427811238 0.000583075591316771
206 0.0012444980535099566 0.0001501018409052516 0.0003908236149575784
130 -0.000552413149759169 2.4657370810703626e-05 0.0003938842147138102
128 0.0008165943689715661 0.0005496058506500884 0.0009672114805552659
127 -0.001075482698413255 5.043640754327032e-05 0.000353717546504845
129 0.00047997122857017146 -0.002222628467419998 0.0014112356316466252
90 -0.00014175448847376313 -0.0007343952531261162 0.0012428459802960683
87 -0.0010039448689057957 -0.0005085378260447102 2.1319925740671854e-05
8 0.0007642794923883862 -0.0011207065005581023 -0.0012933549537632845
7 -0.00024394948628740054 7.766149631114339e-05 0.00014211961152989659
9 0.0002665395379168506 -0.0006145446654955168 -6.266394542338215e-05
10 0.00032194386916694685 0.0008476850353169905 -0.0008443407372525737
6 -0.0015778303710679677 -0.0002926832627014052 0.00046503159752543405
5 0.0006833799616366397 8.865181854108341e-05 0.0005289471082144321
4 -0.0028096415730492 9.156956689948981e-05 -0.0007476165981372283
3 -0.0005114353849978307 0.0003378819425429208 -4.80490698211383e-05
2 -0.0011446502785116463 -0.0008185930166404231 0.0007127115395739882
156 -0.000664160896841581 0.0004836131915071458 0.0004091632572594016
153 -0.0013447850506307121 0.0019939477336167175 -0.000509718103139495
155 -0.0013278026152503308 -0.0003697299080333722 0.00010479768735926866
154 1.2161415949938244e-05 0.0010849605584809458 -0.00033220616253139073
152 -2.145060361247745e-05 0.0010762624981107225 -0.0018649108323026133
151 0.00046403539927666887 -0.0002731563848400076 0.0008758664643720737
149 -0.00023144123075907966 0.0007362590000178772 3.159329503518944e-05
150 -0.00032932501861913276 0.0006438568607348382 -0.0005969059221865566
148 0.001097212421758424 0.00031172855939091976 0.0006722357596339201
147 8.92622726537014e-05 -0.0003966499788773039 -9.276519917602986e-05
77 0.0016884314304836897 -0.0003223178770033606 0.0006704192360170958
78 0.0007010169815095482 0.0003068282002016208 -0.0010530410901487123
79 -0.00036229377665894367 0.00034328800626403337 -0.0009107263567481082
80 -0.0019926365490359928 0.00024877263183503603 -0.0009389928660817262
81 -0.00010880649793139702 -0.0008800676067038719 0.0001502535119031875
82 -0.0012349391824659414 0.00032962972555295513 -0.00018382677123363636
84 0.0010391657998156515 -0.0009665780295831846 -0.00010991717049593037
83 -0.001093698964404416 0.001036402121169861 0.0006718651971967482
86 0.001181953460959592 0.0014079640398661497 0.0008082129730037389
85 4.5701297314888524e-05 -0.0003329685516625038 -0.0017623744645880804
113 -9.120888427616977e-06 -0.0007290090446893298 0.00015402434123885575
114 0.0010469678150627963 -0.0009346245127954411 -0.0010983121264547754
115 0.00028542961982534596 -0.0009662879499889802 0.0008837157090788126
112 0.00017978974757191078 -0.000268533877092321 -0.00016105174123262018
111 -0.001164281022951609 -3.806991215374096e-05 -0.0022490856592537927
110 -0.0001661311727266382 -0.0010506494734424188 -0.0005048311777163075
109 0.0010099183209766657 -0.00033607089425278613 -0.0009763822963350554
107 0.0005302589302297508 0.0007330988279164723 0.00045240734467686105
108 0.0002342454522902088 0.00022142657788624097 0.00019169026832299723
116 -5.242148743208463e-05 0.000728411175549363 0.0006398663363981972
197 0.0003023687360447424 -0.0005908742811867942 -0.0017010744674593892
199 0.0005686802162495474 -0.00014175697833350214 4.673154971232947e-05
198 0.0009469347645427028 0.0012496185516023958 4.545106728107992e-05
200 0.0005301238635697684 -0.0002651906339686119 -9.448953222883369e-05
1 0.0011557488364667805 -0.00024625262369105505 -7.339404970078321e-05
95 0.0005330382141291365 -0.00014816774176669304 0.0005253956333737715
96 0.001603151448977945 -0.0009028674405888401 0.000257539307212601
207 -0.0011155530075127153 0.0007498897795391635 -0.0003226923770946703
13 0.0008771973116319383 9.88802840309278e-05 0.0011644691287534816
120 0.00015866918039550234 -0.0008787600413650835 -0.0010704664671990964
121 -0.00013380784758412658 -0.0010979654845102256 0.0006310625036723618
122 0.00012813847670104645 0.0010475751056772593 -2.4086149389325515e-05
123 -0.0005490356473907908 0.00012500651324081542 -0.0002572254959071528
208 0.0013063404758292794 -0.0009857837647922743 0.00011383178536288313
209 0.0006181351136299566 -0.00015526600561543776 0.0014098083978181684
210 0.0018395552599643392 0.000563300642302731 0.0010566183746229757
214 0.0004601338549393481 -0.0003458764758444634 0.0003031205038613795
213 -0.0003658162513460306 -0.0016502404892008828 4.80501489030322e-05
212 -0.0016167470787719137 -0.0006347369635128523 0.002560411979622956
211 0.0009156391278669177 -0.0001636168942552806 -0.0006475799266278293
216 0.0001709158522565158 -0.00033645684684683783 -0.00021313090052203635
215 -0.0017748064034919446 -0.001392739973207051 -0.0004235444364853777
20 -9.758390871064044e-05 -0.0003640036137438216 -0.0019410214997596885
242 -0.0003663841767503656 -0.001083687525293245 0.00030685160408609285
240 4.8594031028477926e-05 -0.00036263013543926545 0.001375647325337626
241 0.0001925729246905416 4.093651843877787e-05 -0.000206554455106208
239 0.001059256082389009 -0.0014018372794483494 0.0006731954302440881
238 -0.0006431963534082825 0.0003709435151658033 4.274502595981481e-05
237 -0.0008270525245087648 -0.0011880315485117746 -0.0008053494705511262
98 -0.00018372597435140038 -0.001067315275927919 5.3806169827465716e-05
97 0.0014295480684535537 0.0020377212790692752 0.0012070472567747446
106 0.00026925258389985153 0.0005378385550602735 0.0007820533851064992
105 0.0007729044818651117 0.00013838953765544511 -0.0003423281135478103
104 0.0007927887866008872 -0.0011736072019519895 0.0001984401553115915
103 -0.001371122964516153 0.0001726417854256906 -0.00025564777326950367
102 -0.0008218256109834297 -0.00047416054768627074 -0.000574219814153048
99 -0.0009133318114630131 0.0005033681909937494 0.00036006233763684293
100 0.0008121526844781824 0.0004532854071673451 -0.00022833074640600987
101 0.0008331119531341731 -0.001240291534166178 -0.00031573315997530444
36 0.0005177991727499788 -0.0004782409181129741 0.00201389109484868
35 0.00024683363330582473 0.0010740688922389508 -0.0003568692886856799
34 -0.00035578534173111477 -0.0007113792028674644 0.0017968501594572295
33 -0.0023267178599992596 0.0014516996700348443 -0.0006440958304839365
66 0.0003273756473746886 -0.0014122706560775263 -0.0005607754200964589
40 7.046959552308582e-06 0.0010452659624713761 3.415797455801027e-05
37 -0.0011330087368442109 -0.0002807866006984711 -0.000711966846727525