LAMMPS data file via write_data, version 29 Aug 2024, timestep = 105000000, units = real

166 atoms
4 atom types
155 bonds
1 bond types
144 angles
1 angle types

-175 175 xlo xhi
-175 175 ylo yhi
-175 175 zlo zhi

Masses

1 329.2
2 305.2
3 345.2
4 306.2

Bond Coeffs # harmonic

1 7.5 5.9

Angle Coeffs # harmonic

1 5 150

Atoms # full

127 8 2 0 -55.070773841651274 -70.10305158937248 -144.15373658225312 0 1 -1
95 4 3 0 -77.29660761299316 -74.7665394647561 -132.15105556940304 -1 -1 1
96 4 1 0 -81.33875126639333 -70.74453106442166 -134.68918412084216 -1 -1 1
94 4 1 0 -71.75970720761016 -76.12907342421893 -132.22894828518375 -1 -1 1
91 4 3 0 -58.25348298955713 -85.19807479489727 -126.2005443293789 -1 -1 1
92 4 4 0 -63.4388104740303 -84.11843976467458 -129.28183731775061 -1 -1 1
93 4 1 0 -68.3130260873158 -80.84180373206856 -130.22736725491865 -1 -1 1
130 8 4 0 -59.84666396298813 -71.3651961906845 -128.62142840271696 0 1 -1
131 8 3 0 -61.45413078488779 -70.38439569128484 -123.23493693737669 0 1 -1
129 8 3 0 -57.946780452328774 -73.56053557317838 -133.65748523287482 0 1 -1
90 4 4 0 -52.491724425504714 -83.82826280620887 -125.98578035598499 -1 -1 1
89 4 3 0 -47.793978132533496 -82.63065478495716 -122.62352312539217 -1 -1 1
128 8 3 0 -54.83707574564629 -72.06597419666525 -138.62888313405693 0 1 -1
136 8 1 0 -68.93881780362068 -92.67397354675485 -110.73900324803348 0 1 -1
135 8 3 0 -68.29961974440825 -87.57756110619614 -114.36112113443926 0 1 -1
132 8 4 0 -64.00628195084128 -74.26493654292577 -119.35181800507125 0 1 -1
134 8 1 0 -70.57926062429061 -83.50859456198768 -117.24815224563748 0 1 -1
133 8 1 0 -67.77842363905279 -78.31313629298285 -117.32575338966913 0 1 -1
88 4 3 0 -43.18662737056224 -79.50520042708061 -121.1158658602097 -1 -1 1
87 4 2 0 -39.302920342205056 -75.77067331532294 -118.31806652554965 -1 -1 1
151 10 3 0 115.25243325761663 -85.51003543205059 -91.52671391994487 0 -3 -1
153 10 1 0 112.22693872775567 -74.95285631105361 -91.6498390674211 0 -3 -1
152 10 4 0 112.89307054050754 -80.54707505031786 -93.20246552055735 0 -3 -1
156 10 1 0 102.77814359006562 -64.80419782511464 -88.88941003693881 0 -3 -1
18 2 1 0 -63.142937860862666 -4.799266958596543 -93.77482473217628 0 0 0
17 2 1 0 -68.04600279281678 -5.522096551399073 -91.39695386310885 0 0 0
16 2 4 0 -73.13225232433093 -4.889953895322703 -87.75295774960273 0 0 0
19 2 3 0 -58.31389654758808 -7.922784804935325 -91.97226509002581 0 0 0
20 2 4 0 -52.666104830315476 -9.28090476754607 -90.66365943008915 0 0 0
21 2 3 0 -47.93953221682554 -7.50438893197637 -87.57050053967627 0 0 0
150 10 4 0 112.1092734975116 -88.53161483682312 -87.4101130253931 0 -3 -1
148 10 3 0 116.014832499877 -93.07545835219764 -77.46514438954291 0 -3 -1
149 10 3 0 112.782043716469 -91.69143529547615 -82.47020067315538 0 -3 -1
147 10 2 0 121.67887170139298 -94.73028878953009 -76.6141816214705 0 -3 -1
154 10 1 0 111.32169393187655 -72.04347575911612 -86.70387809146139 0 -3 -1
155 10 3 0 108.14288513440275 -66.78879731527796 -87.23589831063515 0 -3 -1
70 2 2 0 -79.24364448763565 -1.9102615145888466 -72.0264321464916 0 0 0
15 2 3 0 -75.26111544038672 -2.2520241966224797 -82.84387072847726 0 0 0
22 2 2 0 -47.88461119636322 -2.0490656878425075 -86.15708313335384 0 0 0
40 2 3 0 -84.20433914016678 -7.319574478865308 -61.01978763252781 0 0 0
41 2 2 0 -83.94712477040261 -10.660861709907412 -55.73407048354681 0 0 0
39 2 4 0 -84.13953270903345 -1.6201677447720952 -61.76966878894737 0 0 0
68 2 4 0 -74.32922246279774 -9.165388946800526 -65.56566628387492 0 0 0
67 2 1 0 -73.1160986661396 -9.504334380432237 -59.29870776467012 0 0 0
69 2 1 0 -74.9910468733454 -5.438950461867966 -69.69139094232133 0 0 0
66 2 4 0 -72.4147319504535 -7.160666418342019 -53.902763928475984 0 0 0
50 2 3 0 -108.5589946090499 -8.815551053008377 -35.30073306601999 0 0 0
57 2 2 0 -103.22380571341267 -12.039484441846461 -43.5901013190793 0 0 0
58 2 4 0 -103.17094446849576 -6.64500587034318 -46.25588266010242 0 0 0
59 2 3 0 -99.91707252356173 -2.4763671608985374 -47.71243165432809 0 0 0
49 2 2 0 -106.88688994098473 -3.221446506405435 -37.37718954963245 0 0 0
56 2 3 0 -99.88997463614723 -15.007700470196948 -39.56568683693759 0 0 0
43 2 3 0 -81.13098513106871 -8.69706828895565 -44.979572848046516 0 0 0
42 2 3 0 -81.62922139052506 -11.022863345039577 -50.4325032801011 0 0 0
44 2 2 0 -81.66382896266094 -5.240086223798312 -40.26398543767917 0 0 0
45 2 1 0 -85.82835766708011 -2.2738897835804375 -37.406544278341464 0 0 0
65 2 3 0 -74.01772298636462 -4.182263941152124 -49.25808030145628 0 0 0
54 2 1 0 -93.43194420498924 -13.480140727634291 -30.577080210916765 0 0 0
55 2 2 0 -96.65389029432173 -16.098220571938885 -34.97970863544234 0 0 0
51 2 3 0 -106.96035460189601 -11.50631816848187 -30.44190656611907 0 0 0
52 2 1 0 -102.77537132548393 -11.894401543393581 -26.478920318381096 0 0 0
53 2 1 0 -96.53088564915917 -12.856540078570744 -25.829304821919212 0 0 0
97 5 2 0 -58.22293157639817 -85.71375137408528 30.652817721314165 0 -2 0
98 5 3 0 -58.44803480921514 -79.84197989016944 31.982680853916108 0 -2 0
104 5 1 0 -75.00071165512482 -54.67566735537171 34.491421477884 0 -2 0
103 5 1 0 -70.98297900511226 -58.602323260648944 34.74945235303895 0 -2 0
106 5 1 0 -75.13099210773805 -48.04663452971492 24.765448834014787 0 -2 0
105 5 3 0 -76.4318689092655 -50.68432942172803 30.1476767026231 0 -2 0
118 7 3 0 -76.32058617979762 -2.2471528286125415 24.528031203918523 0 -3 -3
117 7 2 0 -74.15022169597486 -7.377877855293802 25.871420054390025 0 -3 -3
99 5 3 0 -60.29881193328123 -75.75091876810095 36.006840616175516 0 -2 0
100 5 4 0 -62.39120751722659 -71.28958924290723 39.04313081052417 0 -2 0
102 5 4 0 -68.71080655223487 -63.76249248483232 36.45009035244879 0 -2 0
101 5 3 0 -64.00437021557899 -65.67642808878325 39.303029195546834 0 -2 0
165 11 3 0 107.1949067566152 -148.2389736116446 83.20706135116244 1 2 -1
166 11 1 0 107.45288766441942 -151.511921490765 87.95640752942607 1 2 -1
164 11 1 0 109.16247864818227 -142.78492056326934 80.83057335099647 1 2 -1
163 11 1 0 108.19917077119581 -137.2043211549005 80.78497832887098 1 2 -1
162 11 4 0 110.53314967915068 -133.15747417176797 84.21925651726147 1 2 -1
160 11 4 0 109.23564599056031 -124.1919236146061 89.70024346903296 1 2 -1
161 11 3 0 110.71894413121635 -129.62924732521566 88.74658402049809 1 2 -1
158 11 3 0 101.55106802385158 -115.97375868296392 89.28306003864276 1 2 -1
159 11 3 0 104.40155939939945 -121.0351070131797 88.84845796962867 1 2 -1
157 11 2 0 101.72246118651562 -111.26200275799249 92.84653964133496 1 2 -1
6 1 4 0 -111.3910056907396 -103.2864650487811 103.69940714215984 -1 -1 -1
5 1 3 0 -108.39903536806817 -98.35667781379513 103.44724698452205 -1 -1 -1
4 1 4 0 -104.19483840749396 -94.20064506505915 103.59484798982945 -1 -1 -1
3 1 3 0 -98.45795319983306 -93.54735207289288 104.93481150860373 -1 -1 -1
7 1 1 0 -112.4888681662161 -108.49799338414876 106.68521282764407 -1 -1 -1
8 1 1 0 -109.25162626074794 -111.60672800933656 110.30670308358015 -1 -1 -1
10 1 1 0 -109.6719481210947 -114.35261151801097 120.75489136564299 -1 -1 -1
9 1 3 0 -107.44605516991903 -111.26452066465991 115.96075400025893 -1 -1 -1
2 1 3 0 -94.28331182247211 -92.41940304487811 109.45718987919277 -1 -1 -1
1 1 2 0 -94.76572829494243 -88.75962126100309 113.90507757342074 -1 -1 -1
138 9 3 0 64.7401104431126 -173.57001408768986 156.56547486189686 -1 0 0
139 9 3 0 65.17969063187931 -168.7823036433673 159.8781034404297 -1 0 0
140 9 4 0 65.75338997265813 -162.75108263099318 160.64451678949388 -1 0 0
141 9 3 0 69.87083972214153 -159.05933797101252 162.088188102078 -1 0 0
142 9 4 0 73.30821712179687 -154.89806070292283 165.27437160730784 -1 0 0
143 9 1 0 73.61041975862341 -149.30422691219857 164.86840838234292 -1 0 0
144 9 1 0 75.85040018771645 -143.60220659018285 165.95229824626904 -1 0 0
146 9 1 0 75.68871136792005 -133.0850708981917 168.40188182832253 -1 0 0
145 9 3 0 75.56614722676268 -137.90063550041248 164.65799931210714 -1 0 0
107 6 2 0 -167.3436094964566 16.87071061640164 -163.80570668313734 0 -1 1
108 6 3 0 -170.63862670945488 21.813037986175353 -162.86056740891266 0 -1 1
109 6 3 0 -174.98915867055933 25.75871882210035 -163.08831297146293 0 -1 1
113 6 1 0 156.27836168948383 34.04844611554205 -169.14341288504295 -1 -1 1
112 6 4 0 159.88570405345448 30.294357424177612 -166.36714786110585 -1 -1 1
111 6 3 0 163.97431938964888 29.12280958079823 -162.4831069471323 -1 -1 1
110 6 4 0 169.47230521785596 27.569238322354536 -162.07042599886944 -1 -1 1
114 6 1 0 156.15845500286684 38.40544830773439 -173.14956793699224 -1 -1 1
29 2 4 0 -83.09780224035171 4.920837124827631 -91.45073077094769 0 0 0
28 2 3 0 -77.69242874192115 5.241989235798619 -93.33838781426009 0 0 0
27 2 2 0 -71.97244955853219 6.5039804536405335 -92.8283325382429 0 0 0
25 2 2 0 -61.17730731682506 6.179573275883609 -90.40300364111873 0 0 0
26 2 2 0 -66.42358576834809 4.50859033003897 -91.51271714501848 0 0 0
24 2 3 0 -55.561194719676834 4.959419023394284 -89.93207837072738 0 0 0
31 2 4 0 -83.92590209844352 9.960308417459041 -81.37958497137284 0 0 0
32 2 4 0 -83.57662410768278 12.346870264748949 -75.72696521654326 0 0 0
30 2 2 0 -84.9920878129872 6.908700541238582 -86.39811126739798 0 0 0
33 2 1 0 -79.12178093970402 14.490604101089906 -72.43593400274183 0 0 0
14 2 4 0 -76.02137777964876 2.4201799676887763 -79.9802249116963 0 0 0
71 2 1 0 -83.3147236667863 2.0388360868534487 -70.83598757891235 0 0 0
12 2 3 0 -70.53957052266496 12.468125809130479 -80.88097926231993 0 0 0
13 2 3 0 -73.03283203223626 7.35623718919171 -79.19673911463644 0 0 0
23 2 1 0 -50.841752121825934 2.630900506040433 -87.29210417538258 0 0 0
11 2 2 0 -69.05638423876394 18.315641896328497 -80.21334194738668 0 0 0
72 2 3 0 -88.00088722168428 5.0478373332291575 -69.13980064519878 0 0 0
73 2 3 0 -89.31196611792019 8.569454920807711 -64.52491919585269 0 0 0
74 2 3 0 -89.43417832088232 14.016732584702556 -61.65216766256043 0 0 0
38 2 3 0 -82.36440520723298 3.642585977600002 -60.1122554377725 0 0 0
37 2 2 0 -79.02002734458206 8.81051934430522 -59.01183909991699 0 0 0
36 2 2 0 -77.31179063093695 14.268271004026014 -60.18557158284973 0 0 0
76 2 4 0 -96.53823651546344 22.280458564557104 -61.53004187975767 0 0 0
34 2 2 0 -78.4818289331562 18.867772374944213 -68.67150962454477 0 0 0
35 2 1 0 -76.2694031797574 19.029394593048234 -63.51968471472535 0 0 0
75 2 2 0 -91.43633733552234 19.720212910054453 -62.05138913573592 0 0 0
77 3 2 0 81.49411921450228 67.63891281362923 -55.29746026565227 0 1 0
47 2 1 0 -96.66219738480322 1.2260859439721699 -37.15198593247973 0 0 0
60 2 1 0 -94.41849464309898 0.025351696678535058 -48.18259115720602 0 0 0
48 2 3 0 -102.44754241744236 0.2529502528763505 -37.35413733305287 0 0 0
61 2 4 0 -90.74413628493758 4.431276144409673 -48.58510450358659 0 0 0
46 2 2 0 -91.15909837822836 0.17200407797948142 -37.53828337950465 0 0 0
62 2 3 0 -85.40234426508763 6.252659945460866 -47.212117851770685 0 0 0
63 2 4 0 -79.60971734562165 5.045058117020114 -46.85365369068972 0 0 0
64 2 2 0 -75.85370245092894 1.1579669709749765 -48.1055420104653 0 0 0
78 3 3 0 84.48424199511979 69.59322864925946 -50.897423610873936 0 1 0
83 3 1 0 84.15077172106677 85.0042879255717 -39.442782630598145 0 1 0
82 3 4 0 89.546987276392 82.38901746507464 -40.232570066620376 0 1 0
79 3 3 0 89.06819365619482 71.00117104797143 -47.737139086078265 0 1 0
80 3 4 0 90.92506868936823 72.34721143720219 -42.13401764802127 0 1 0
84 3 1 0 78.8531769850376 87.03242452959537 -37.35381881328452 0 1 0
81 3 3 0 91.24424258926193 77.28613037392476 -38.7165721183521 0 1 0
86 3 1 0 70.36218286114247 94.82635762098144 -39.47498328214751 0 1 0
85 3 3 0 75.38454528666807 91.40740519366491 -39.225615806095995 0 1 0
125 7 3 0 -72.02462858446191 16.008116251367078 -6.669541661870481 0 -3 -3
124 7 1 0 -71.12214421497713 14.296528416549954 -1.1849378774129675 0 -3 -3
126 7 1 0 -71.5871752880185 18.18839261381781 -12.198897630592029 0 -3 -3
121 7 3 0 -77.51011662406472 9.26425287490419 13.902083784887386 0 -3 -3
122 7 4 0 -75.54971728980338 9.537390316057673 8.31935570072245 0 -3 -3
123 7 1 0 -71.48031529890831 12.037883683531733 4.206400829769981 0 -3 -3
120 7 4 0 -80.96973073607782 5.6227031643638 17.696533311853788 0 -3 -3
119 7 3 0 -79.9559574825656 0.8952770987442967 21.107014262457483 0 -3 -3
137 9 2 0 64.63870754129802 173.9869598244135 151.56972802917093 -1 -1 0
116 6 1 0 147.9091310539811 43.67123448426332 172.487323322973 -1 -1 0
115 6 3 0 153.09537983952822 42.42816072232873 174.1226894913352 -1 -1 0

Velocities

127 0.0008283066607807705 0.00014611808824498872 0.0009836352056016371
95 -0.0010665605007193777 0.002014525798668557 0.0007223591181635809
96 0.0014724724004805743 -0.00017708970240254814 -0.001673056532098657
94 0.0013681392576670324 -0.0009790190685609649 0.0005412012380104548
91 -0.0005906200853962038 0.0006728441592012821 0.0008881971903935347
92 0.0010162732256631171 -0.00019687489360422934 0.00032371616109496055
93 0.0017040649319118428 -0.0010276352407154843 -0.00022122425841223807
130 -0.0019786556219735553 0.0007700796604274753 0.0006753977506356749
131 0.0002104803045772831 -0.0007013593311472083 0.0003854513099224552
129 0.0007487007445757905 0.0005702234060831585 0.0007216674307460497
90 -0.0006669362907066435 -0.0009778205357702631 -0.00044575656734872145
89 -6.459945283653571e-05 9.230840576958227e-05 -9.243205230224778e-05
128 -5.3877896736645164e-05 -0.0002728051500545643 -0.0004606622950507195
136 0.0007596390072589839 -0.000711413046548445 -0.001370155719821163
135 4.017378691351164e-06 -6.642425387224996e-05 0.00047261532069667913
132 -0.00034410335277648674 0.0010771662618811674 -0.00025740437931184027
134 -0.001420689562789652 0.00011418247148718611 0.0007017570347623372
133 0.00023312236777790342 -0.0008162909364457862 -9.346673391616451e-05
88 -0.001378521623449666 0.000876389567827284 -6.14897791863088e-05
87 0.0005888657288687771 0.001556940602080302 0.001128351273832121
151 4.54259047294469e-05 -1.3246828160101384e-05 -0.00028402828976249397
153 -0.00020692136071432822 -9.065528486587449e-05 -0.00037378434729176045
152 0.0006071682074130682 -0.0010122360764418944 -0.0005696269224503979
156 0.00086739151573407 -0.0001543067546667136 0.0008625376668367622
18 -0.00018450891891219734 -0.0006880537829423939 0.0013541428437146548
17 -0.0002881696194406726 -0.000646509433799364 -0.0019023988183640315
16 -0.0007110694533210561 -0.0014684012732131787 -0.0007536630324152874
19 0.00036103284040593523 0.0005656785067106361 0.0012796306529877371
20 0.0012279603200847523 0.00018571967668706152 -0.00044350772689835866
21 -0.0017782554413930639 0.0012307643552294614 0.00025954419765938794
150 0.0008155347085027536 -0.00020706970944568904 0.001531644855926784
148 -0.000340075732864482 0.0008802846219002608 -0.0009610526549082168
149 0.0002459446188664934 0.0008319938797324568 0.0007150734971712212
147 0.0005484878918597956 -0.00079729669683966 0.0005534782829485693
154 -7.258209669862056e-05 -0.0003971237927893328 -5.8248579065692954e-05
155 -0.00025529500948203473 -0.000973992493918751 -0.0012390748559920517
70 0.0006432938230291971 0.00018300511882343885 0.00013572162162328296
15 0.000309490748858724 -0.00035099338273254907 -0.00015949746871344662
22 0.0007344045298047349 0.00036198125376905405 0.00042861649558695043
40 -0.0005391102518015197 0.0005818318433495972 8.91632919799681e-05
41 -0.00012682741730702843 -0.0007414906268945907 0.00042768606192974604
39 -0.0010655629408159045 0.00036766010118430596 0.0007547252455480388
68 -7.647652001166795e-05 -0.0006784153472517071 -0.0010171568020249995
67 0.0020743067439781167 -0.00015063832884591418 -0.00025557800188005965
69 -0.0008412406294415949 2.350559919068714e-06 0.0009981193532288065
66 -0.0008170269433266408 0.00021100929682820688 0.0005584353192721789
50 0.00023782839224276687 -0.0007329460049967036 0.0013846926673668095
57 -0.0026694159177865595 -0.0015403877721849603 -0.0003198286647423567
58 -0.001137312205012404 0.00034650180476049764 0.000497580916856792
59 -0.0010717253604371963 -0.0005504443968874718 -0.0004650997628389673
49 0.0005610715701035399 -0.0004135616586795977 0.00221902876404098
56 0.0009083311725241614 0.002237339943472954 -0.00035121123243282286
43 0.0009353917152226878 2.9061286721672228e-05 0.00022767442765187553
42 -0.000266137244785254 -8.428731304008976e-06 -0.00012400001985487106
44 -0.00024067681271514976 0.0022863613422732833 -0.0012042882917855068
45 0.0014004684075004054 -0.00029826188554437044 -2.4851086958790845e-05
65 1.3377982564912162e-05 -0.0011745591895371372 -0.0015841891073187467
54 0.0009022289215251377 -9.777120715744836e-05 -0.001295317611667125
55 0.001444001656834757 0.0003432301122065804 -6.203358177007013e-05
51 0.0009523326394787989 2.219135863725053e-05 -8.097702293892003e-05
52 0.00019921005919929487 -0.0014278652083835625 -1.86945228764303e-05
53 6.658559582596806e-05 -0.0009566358798080869 -0.0001709055745048209
97 -0.000658552204581439 -0.00042055755645070377 -0.0004618280310334942
98 -0.0003772525608145475 0.0003285610649722493 0.00019695409498175775
104 0.0007273660125435888 -0.0010508843838811378 0.0013619342802920571
103 -3.016559089114021e-07 -0.00029577178899432957 0.001753960325206566
106 -0.0003014121838670295 -0.0013496376890817744 0.002083923641646609
105 -0.0008151214926824315 -0.0006496619173137393 0.000934998465232155
118 -0.0004974649691261585 -0.0014218727903656549 -0.0008579708681712877
117 0.0009372386126587071 0.0025272548353024466 0.0007665382772161308
99 -0.0015368152725217334 -0.00026488253936972453 0.001170284922270957
100 0.00022351850295468544 0.0006153324157512351 1.79769636380119e-05
102 0.0005955652914281737 -0.0005543885612328769 -0.0013762797726947962
101 -0.001013544425902568 0.0009204109237428502 -0.00012392791895331532
165 6.704581804439883e-05 -0.0010456982183004383 -0.0007013711305467064
166 0.0003430669429125749 -0.0008772516900157387 0.0016694662973954085
164 0.00015310021588809482 -0.0003009195890928046 0.0003436327428209214
163 0.000918678135329083 -0.002672626798364671 8.809730727176959e-05
162 0.00045954551354999344 -0.0006516371281226271 -0.00023327043382268204
160 0.0011523609585413863 0.0028043522924405305 -0.0009171438730151318
161 -0.0013967040108389902 0.0005748769471213091 0.0001659700558451731
158 -0.00023586762458181315 -0.00045269636289564544 -0.0009642519850199884
159 0.0009210381016449118 0.00014730550072445005 0.0004228587828673095
157 0.0005172589444523114 -0.0010866792723267648 -0.0008242758223279349
6 -7.354248263777825e-05 0.0009560212247152475 -0.0015439385460879792
5 -0.0007769075938030796 -0.0003121726176987101 0.0002489708167987677
4 -0.0019325702580479606 -0.0013379253042812617 0.00040443598014388747
3 0.0011917753959986915 0.0001376535542787293 0.0009971553998414503
7 0.0014972638838717978 -0.0004184066584264086 -0.00018989941272912192
8 0.002549321677989036 0.0002834602472896055 0.00031920117699088627
10 -0.0006515151974986473 4.7076202380092605e-05 0.0009980620376939054
9 9.783048952813824e-05 0.00015539292582612363 -0.00043228577506457076
2 0.0024717680254776266 0.00030802444018919857 0.0004150506662451722
1 -0.0018777899375532218 0.0007294193945747193 -0.0001582009974567537
138 -0.0005594021138966141 -0.00017238191359372768 0.00013340486616718864
139 -0.0006882954461685419 -0.0010095311091279703 0.0004466479978322911
140 0.0008935179520174427 3.5799414714910796e-05 6.42327551898995e-05
141 -0.0009989965083936796 0.001164819297813699 -0.0011341543601329684
142 0.0010794281732318237 -0.00044022369255832856 -0.0003222958471344405
143 0.0007432757027892661 -0.0010561312694413213 0.0004422405835443553
144 0.0009346108178408111 0.0014351472694787287 0.0008019797164631096
146 -0.00022506941969663345 -0.0010550996844693888 -0.0010699396232649605
145 -2.150882710415756e-05 0.0006607090980820356 -0.00111901305924464
107 -0.0007638625594652544 0.0005781923369029623 -0.0011162071639031948
108 -0.0011388386357414962 -0.0017244682817425657 -0.0003030415274558029
109 0.0009247169384076956 0.0016015660241455601 -0.0015188991595426447
113 -0.00024304036287854568 0.0007926732604993998 -0.0010964671843868843
112 0.00063733424963057 -0.0008810919052849458 -0.0014793571060553526
111 3.1835540266106425e-05 0.0002458610301959683 0.0006250757792995924
110 0.000613410919672778 0.0002462850758781998 -0.001486464236226996
114 -0.0005723587965719427 0.0019373294067587207 0.0006571099439430417
29 0.0008923716733592467 0.0015290246819313115 -0.0007952280410957154
28 -0.0009358989469469477 -0.00028308667802348896 0.0008900464308928763
27 -0.0016900775596085953 0.001614078669936516 -0.0006965575302268667
25 0.00044812499976070667 -0.0017267187753008894 -0.00033864020628174453
26 -0.0005689640101496975 0.00038897670144220296 -0.00040435261856464744
24 0.0003213415894865706 -0.0002828251645902505 -0.0006073652744393995
31 -0.0003118609519160503 0.0009311761368555093 0.0006645279723822822
32 0.0007753371056950622 0.0005848250054031854 0.0008140444004276764
30 -0.00029936766954958974 0.00014506092498580678 0.00016189189860978245
33 -0.001742690534672901 0.00042856358995274266 0.0001406663792765589
14 -1.938076064195629e-05 -0.00022448017037356057 -0.00025686437521713545
71 0.0002517652154524978 -0.0012029705944962105 0.0006053809961776715
12 -0.0005145515085155347 -0.00041031709462150306 0.0006255040288734515
13 -0.00010958269591219723 -0.0002357536197805234 0.0007716587549806991
23 8.792239018146154e-05 0.0003709483521619308 -0.0010419645674218806
11 0.0006493006174486036 0.0018738132067542062 -0.0008192579051496416
72 -0.00020087875559594718 0.0003226138339573376 -0.001699675469763646
73 -0.0005126206843495782 -0.0011239153766804328 -0.0011231164223896473
74 -0.0001976132984325787 0.0005166110616838322 -0.0017257742647258487
38 -0.0009026282827207641 0.001591064441429697 0.0005540998509617858
37 -0.00012218052952616814 -6.478127468180062e-06 0.00044079283885847733
36 -0.0007284232477471268 0.0008927497991795915 -2.7314098174853077e-06
76 7.427215668068193e-05 -0.0014035425165674748 0.0002343403210051094
34 0.0006363271317265945 -0.00041844371648199196 -0.0004578309897759807
35 -0.0013024905064875658 -0.0003183749535390711 0.0008084006113774354
75 -0.0008838264735180459 0.0006151001338328596 -0.0006441042365107752
77 -0.0009616261705288227 0.0003055360247642772 -0.0004924193789631034
47 9.067376922491509e-05 -0.0010881043739570308 -0.001521282953152433
60 -6.887041748530591e-05 -0.001040110538570577 -0.00041924938244990406
48 -0.0014364089835819632 0.001243459151871536 -0.0005293560857275111
61 -0.0003333817087377084 0.00012486774820862117 -0.0010306922467870974
46 0.00018732826440832087 3.7207234286954825e-05 -0.0010769647701981094
62 -0.0002463260447734178 2.7665958898050332e-05 0.0006305272617616179
63 -0.000962811204283136 0.0001965676566198605 0.00014852130672962448
64 -0.0008081931578969023 -0.0011900061270023765 0.0011149030593854909
78 9.038438074001069e-07 0.0001545140200627734 -0.0006395249491093507
83 -0.00028517217933908025 0.001447443225121664 -0.000979239920249341
82 -0.002094324609002276 4.497381283772018e-05 0.0007917285961477571
79 0.0009427650371176567 -0.0006016642339068886 -0.0005250705707111167
80 0.0002974652082074336 -0.00038119372524212644 0.0017793829805465363
84 0.0004266409467351374 9.289831626535897e-05 -0.0002830381768285461
81 0.0005376452003426527 -4.473514784329616e-05 0.0009808290331783914
86 0.0004117697041728038 -0.00026977255585969377 0.0012619541122560625
85 0.00046382139750826556 -4.1810638347510926e-05 -0.0006134792655315009
125 -0.0006039254113958013 0.0017428763311527356 0.00036375973299868466
124 0.00022068640340079592 0.00126160604900008 0.0010982029691207124
126 -0.0010401723916052207 0.0005726699602098896 0.0007466602217787421
121 -0.00011208999960726951 -0.0009682772612777668 -0.001355433743787026
122 0.0013375401577708256 -0.0011172220208621904 0.00040149593550041723
123 -0.0003910181034273919 0.0006936984843571892 0.0014436512891966022
120 -0.000167596167030628 0.0011541477588196262 -0.000725876643294161
119 0.00232170170835454 0.0009422592958647914 9.787473360702406e-05
137 -0.00040539216723843 -0.0015929455934739327 0.0012955919880879132
116 0.0010479295157880873 -0.001586562084806828 0.00016393857243915687
115 0.0004952316867167777 0.0008978543014394295 0.00019677070690701055

Bonds

1 1 127 128
2 1 95 96
3 1 94 95
4 1 91 92
5 1 92 93
6 1 93 94
7 1 130 131
8 1 131 132
9 1 129 130
10 1 90 91
11 1 89 90
12 1 128 129
13 1 135 136
14 1 132 133
15 1 134 135
16 1 133 134
17 1 88 89
18 1 87 88
19 1 151 152
20 1 153 154
21 1 152 153
22 1 18 19
23 1 17 18
24 1 16 17
25 1 19 20
26 1 20 21
27 1 21 22
28 1 150 151
29 1 148 149
30 1 149 150
31 1 147 148
32 1 154 155
33 1 155 156
34 1 70 71
35 1 15 16
36 1 22 23
37 1 40 41
38 1 41 42
39 1 39 40
40 1 68 69
41 1 67 68
42 1 69 70
43 1 66 67
44 1 50 51
45 1 57 58
46 1 58 59
47 1 59 60
48 1 49 50
49 1 56 57
50 1 43 44
51 1 42 43
52 1 44 45
53 1 45 46
54 1 65 66
55 1 54 55
56 1 55 56
57 1 51 52
58 1 52 53
59 1 53 54
60 1 97 98
61 1 98 99
62 1 104 105
63 1 103 104
64 1 105 106
65 1 118 119
66 1 117 118
67 1 99 100
68 1 100 101
69 1 102 103
70 1 101 102
71 1 165 166
72 1 164 165
73 1 163 164
74 1 162 163
75 1 160 161
76 1 161 162
77 1 158 159
78 1 159 160
79 1 157 158
80 1 6 7
81 1 5 6
82 1 4 5
83 1 3 4
84 1 7 8
85 1 8 9
86 1 9 10
87 1 2 3
88 1 1 2
89 1 138 139
90 1 139 140
91 1 140 141
92 1 141 142
93 1 142 143
94 1 143 144
95 1 144 145
96 1 145 146
97 1 107 108
98 1 108 109
99 1 109 110
100 1 113 114
101 1 112 113
102 1 111 112
103 1 110 111
104 1 114 115
105 1 29 30
106 1 28 29
107 1 27 28
108 1 25 26
109 1 26 27
110 1 24 25
111 1 31 32
112 1 32 33
113 1 30 31
114 1 33 34
115 1 14 15
116 1 71 72
117 1 12 13
118 1 13 14
119 1 23 24
120 1 11 12
121 1 72 73
122 1 73 74
123 1 74 75
124 1 38 39
125 1 37 38
126 1 36 37
127 1 34 35
128 1 35 36
129 1 75 76
130 1 77 78
131 1 47 48
132 1 60 61
133 1 48 49
134 1 61 62
135 1 46 47
136 1 62 63
137 1 63 64
138 1 64 65
139 1 78 79
140 1 83 84
141 1 82 83
142 1 79 80
143 1 80 81
144 1 84 85
145 1 81 82
146 1 85 86
147 1 125 126
148 1 124 125
149 1 121 122
150 1 122 123
151 1 123 124
152 1 120 121
153 1 119 120
154 1 137 138
155 1 115 116

Angles

1 1 94 95 96
2 1 93 94 95
3 1 90 91 92
4 1 91 92 93
5 1 92 93 94
6 1 129 130 131
7 1 130 131 132
8 1 128 129 130
9 1 89 90 91
10 1 88 89 90
11 1 127 128 129
12 1 134 135 136
13 1 131 132 133
14 1 133 134 135
15 1 132 133 134
16 1 87 88 89
17 1 150 151 152
18 1 152 153 154
19 1 151 152 153
20 1 17 18 19
21 1 16 17 18
22 1 15 16 17
23 1 18 19 20
24 1 19 20 21
25 1 20 21 22
26 1 149 150 151
27 1 147 148 149
28 1 148 149 150
29 1 153 154 155
30 1 154 155 156
31 1 69 70 71
32 1 14 15 16
33 1 21 22 23
34 1 39 40 41
35 1 40 41 42
36 1 38 39 40
37 1 67 68 69
38 1 66 67 68
39 1 68 69 70
40 1 65 66 67
41 1 49 50 51
42 1 56 57 58
43 1 57 58 59
44 1 58 59 60
45 1 48 49 50
46 1 55 56 57
47 1 42 43 44
48 1 41 42 43
49 1 43 44 45
50 1 44 45 46
51 1 64 65 66
52 1 53 54 55
53 1 54 55 56
54 1 50 51 52
55 1 51 52 53
56 1 52 53 54
57 1 97 98 99
58 1 103 104 105
59 1 102 103 104
60 1 104 105 106
61 1 117 118 119
62 1 98 99 100
63 1 99 100 101
64 1 101 102 103
65 1 100 101 102
66 1 164 165 166
67 1 163 164 165
68 1 162 163 164
69 1 161 162 163
70 1 159 160 161
71 1 160 161 162
72 1 157 158 159
73 1 158 159 160
74 1 5 6 7
75 1 4 5 6
76 1 3 4 5
77 1 2 3 4
78 1 6 7 8
79 1 7 8 9
80 1 8 9 10
81 1 1 2 3
82 1 137 138 139
83 1 138 139 140
84 1 139 140 141
85 1 140 141 142
86 1 141 142 143
87 1 142 143 144
88 1 143 144 145
89 1 144 145 146
90 1 107 108 109
91 1 108 109 110
92 1 112 113 114
93 1 111 112 113
94 1 110 111 112
95 1 109 110 111
96 1 113 114 115
97 1 28 29 30
98 1 27 28 29
99 1 26 27 28
100 1 24 25 26
101 1 25 26 27
102 1 23 24 25
103 1 30 31 32
104 1 31 32 33
105 1 29 30 31
106 1 32 33 34
107 1 13 14 15
108 1 70 71 72
109 1 11 12 13
110 1 12 13 14
111 1 22 23 24
112 1 71 72 73
113 1 72 73 74
114 1 73 74 75
115 1 37 38 39
116 1 36 37 38
117 1 35 36 37
118 1 33 34 35
119 1 34 35 36
120 1 74 75 76
121 1 46 47 48
122 1 59 60 61
123 1 47 48 49
124 1 60 61 62
125 1 45 46 47
126 1 61 62 63
127 1 62 63 64
128 1 63 64 65
129 1 77 78 79
130 1 82 83 84
131 1 81 82 83
132 1 78 79 80
133 1 79 80 81
134 1 83 84 85
135 1 80 81 82
136 1 84 85 86
137 1 124 125 126
138 1 123 124 125
139 1 120 121 122
140 1 121 122 123
141 1 122 123 124
142 1 119 120 121
143 1 118 119 120
144 1 114 115 116
