LAMMPS data file via write_data, version 29 Aug 2024, timestep = 105000000, units = real

3066 atoms
4 atom types
2765 bonds
1 bond types
2464 angles
1 angle types

-540 540 xlo xhi
-540 540 ylo yhi
-540 540 zlo zhi

Masses

1 329.2
2 305.2
3 345.2
4 306.2

Bond Coeffs # harmonic

1 7.5 5.9

Angle Coeffs # harmonic

1 5 150

Atoms # full

976 92 1 0 -423.4250086079551 -487.22528703513586 -528.6007118206693 1 1 0
974 92 1 0 -417.7086045595533 -480.9076634189516 -534.814027503377 1 1 0
975 92 3 0 -419.2078374778085 -485.30711363319347 -531.8365300346044 1 1 0
1397 135 2 0 -405.63142050329066 -460.2035436582652 -531.268746945825 0 1 1
1398 135 3 0 -399.960182770929 -461.1068271323314 -532.317309614706 0 1 1
1399 135 3 0 -394.9287257782739 -463.7251454494406 -532.4080856073102 0 1 1
1400 135 4 0 -391.8285532994086 -466.67452351567624 -528.6781312070196 0 1 1
1401 135 3 0 -388.7700191583607 -464.4709917613115 -524.0863054272205 0 1 1
1402 135 4 0 -383.21003430067003 -462.4895197239999 -523.5464477651861 0 1 1
1403 135 1 0 -378.32325935521504 -463.7139057044295 -520.4861571677753 0 1 1
1404 135 1 0 -376.4665272169481 -463.39315659881265 -514.7576461411911 0 1 1
1405 135 3 0 -375.70269090848853 -464.36619156138073 -509.0615351553677 0 1 1
1406 135 1 0 -372.3672288539463 -464.7304987345587 -504.0508939424131 0 1 1
2756 270 1 0 -424.7869412621453 -338.911705796344 -489.5152302877116 0 0 1
2752 270 4 0 -405.9989996343387 -334.6993563382914 -491.89246833968645 0 0 1
2753 270 1 0 -410.5676188582406 -337.13182312371106 -489.07514330364967 0 0 1
2751 270 3 0 -402.0992875434301 -332.44851930154437 -496.0162090030309 0 0 1
2750 270 4 0 -400.2665866896915 -327.32498854894806 -497.2460988086555 0 0 1
2749 270 3 0 -396.40277999978474 -323.3169255956249 -498.19431804345146 0 0 1
2748 270 3 0 -391.46576818998994 -321.47868565385056 -500.8564592316643 0 0 1
2747 270 2 0 -387.5129638537748 -317.37202886544793 -501.6427817293106 0 0 1
2376 232 1 0 -44.051904804840696 -535.7623694338431 -472.0502594861212 0 0 1
2755 270 3 0 -421.138514330053 -335.4805052277251 -486.7080269919192 0 0 1
2754 270 1 0 -415.6269320537276 -337.50691948933286 -485.67507995842675 0 0 1
1949 190 3 0 -539.2315812445527 -326.17613051599653 -286.969096918763 0 0 0
1687 164 2 0 -91.23513046085868 -325.89087694721906 -287.90270392989953 0 0 0
199 15 3 0 -70.94534608405064 -521.3820073149485 -444.7734774365436 0 1 0
198 15 3 0 -74.8993222618673 -518.1673955966521 -447.83661192230426 0 1 0
197 15 2 0 -79.82295985368148 -517.600454818002 -451.03611037855137 0 1 0
200 15 4 0 -67.45236211582386 -522.9423072079446 -440.35406816327753 0 1 0
206 15 1 0 -41.362339152627534 -531.9458139431572 -426.4969089426294 0 1 0
205 15 3 0 -46.861157781629615 -529.7607507047278 -427.16250702745685 0 1 0
204 15 1 0 -51.01024309652977 -526.2295547205127 -426.85633579739215 0 1 0
201 15 3 0 -62.636641744983706 -521.6078329231201 -437.05056700555104 0 1 0
203 15 1 0 -54.99153818439747 -521.7859793029687 -428.8504989067586 0 1 0
202 15 4 0 -57.5355480707107 -521.6924181231946 -434.29041058975787 0 1 0
1305 125 3 0 -247.08076672983458 -460.7894655511681 -387.74595401963506 0 1 0
1301 125 3 0 -243.2617524634297 -441.6275822468788 -388.3569115817613 0 1 0
1304 125 1 0 -244.33078494251214 -457.32068690522453 -384.42769805976724 0 1 0
1300 125 4 0 -246.54922565951844 -436.7746240819672 -388.00496956184264 0 1 0
1306 125 1 0 -251.12081883089905 -464.7650841799486 -389.4752096378479 0 1 0
1303 125 1 0 -241.87520321549215 -452.2653977561486 -386.85115286776374 0 1 0
1302 125 4 0 -241.7732866679945 -446.58050995457245 -386.5425575559293 0 1 0
1297 125 2 0 -250.59813869588294 -425.1071423719133 -377.3930462596205 0 1 0
1299 125 3 0 -249.61653680948956 -432.3817556501084 -385.9404664765262 0 1 0
1298 125 3 0 -248.9788779414618 -428.7806232094829 -381.15586693843346 0 1 0
1685 163 3 0 -104.75942596540848 -412.8614750695147 -349.69810520220136 0 0 0
1681 163 3 0 -125.6104187181495 -413.8966206561365 -345.6318950796454 0 0 0
1680 163 4 0 -129.47293258270946 -409.8901800811973 -343.67482317817274 0 0 0
1683 163 1 0 -114.84225157526546 -417.44265210570757 -348.70699114369444 0 0 0
1682 163 4 0 -120.3876419928161 -415.29109109039194 -347.9563193778216 0 0 0
1684 163 1 0 -109.84845161343551 -415.870777112927 -350.0783041854425 0 0 0
1686 163 1 0 -99.2906844548555 -411.3672598172154 -349.6715079115845 0 0 0
1679 163 3 0 -130.5726662119086 -404.389714334392 -342.148914051003 0 0 0
1677 163 2 0 -135.08457481802077 -393.82069704285686 -339.97895054409435 0 0 0
1678 163 3 0 -134.24469181134805 -399.83396420861436 -340.06740939260527 0 0 0
604 55 1 0 -289.13101327128646 -402.3014139445116 -322.3154232889185 0 0 0
603 55 1 0 -294.6847957316815 -404.00449464698977 -322.87210032759464 0 0 0
605 55 3 0 -287.2116933162214 -396.52788661818977 -322.72806845544216 0 0 0
606 55 1 0 -283.8589031326733 -392.3031691360275 -324.8956059592922 0 0 0
658 61 3 0 -295.9634748096585 -537.2994155604217 -305.4283618979293 1 0 0
600 55 4 0 -305.3221077161693 -401.2421715440857 -310.1855289388925 0 0 0
601 55 3 0 -302.1650585198089 -403.67598553026164 -314.70437463417784 0 0 0
602 55 4 0 -298.9050123951044 -402.9349621455556 -319.787709032698 0 0 0
2826 277 1 0 -516.0252935768085 -369.00681303294607 -303.7589591584978 1 1 1
661 61 3 0 -302.91497988743674 -529.9704405262389 -293.6362014209088 1 0 0
662 61 4 0 -303.46800752150517 -532.5059022506088 -288.01563770346706 1 0 0
660 61 4 0 -300.7001341463026 -528.8439367439394 -299.01139198369833 1 0 0
659 61 3 0 -298.8756190251242 -532.5490607725226 -302.9380691173559 1 0 0
1492 144 4 0 -421.0695406760715 -408.270035699764 -292.48416891225526 1 1 0
1493 144 1 0 -426.23055515504643 -411.3895706982331 -290.7847604825951 1 1 0
1494 144 1 0 -431.00167527131134 -411.2027822340038 -287.6231318896687 1 1 0
1491 144 3 0 -415.8573450378414 -407.49755863310327 -291.11895594437686 1 1 0
1490 144 4 0 -410.544961964154 -408.13748886797515 -288.5438296832986 1 1 0
598 55 3 0 -307.22902119656294 -398.1582411538331 -300.3322346165861 0 0 0
599 55 3 0 -304.2059684358035 -400.68821694441897 -304.5145595565573 0 0 0
597 55 2 0 -304.794222714131 -399.0740783813825 -294.9345201247204 0 0 0
2822 277 4 0 -520.3921360580366 -380.8968717549129 -288.97282426764616 1 1 1
2823 277 1 0 -518.699213780575 -379.42256410821113 -294.05074722513297 1 1 1
2824 277 1 0 -514.5164030479025 -378.1978589719798 -298.21522059365634 1 1 1
2825 277 3 0 -515.0871068138678 -374.6587373553151 -302.43637486124317 1 1 1
1693 164 1 0 -89.8104746536411 -350.27639332637267 -286.98351627843164 0 0 0
1692 164 4 0 -89.37279708318775 -345.80794247847564 -290.6844730826001 0 0 0
1691 164 3 0 -85.38301394591802 -342.50327077398947 -293.4127399307937 0 0 0
1690 164 4 0 -83.22900760410351 -337.2391419832307 -294.5883988740287 0 0 0
1688 164 3 0 -86.92542106525359 -328.44321635913593 -291.09785395259166 0 0 0
1689 164 3 0 -84.86352731258965 -331.75401812860076 -295.1330096035034 0 0 0
1952 190 4 0 -538.7193427712032 -311.85875689725145 -294.3857244248486 0 0 0
1953 190 1 0 -534.2545901694704 -308.4256721985172 -295.6582674073124 0 0 0
1954 190 1 0 -530.5238764901264 -304.2027781856002 -297.586034121259 0 0 0
1956 190 1 0 -523.4560728586983 -299.42972008774905 -304.461061063808 0 0 0
1955 190 3 0 -527.8690628754019 -302.54208274556026 -302.26173406522844 0 0 0
664 61 1 0 -309.8582765658077 -527.6886399886447 -280.2680443301629 1 0 0
663 61 1 0 -307.19756621783813 -531.930808301687 -283.59509374867963 1 0 0
665 61 3 0 -310.6967795687724 -526.5152451016279 -274.3231125151084 1 0 0
1496 144 1 0 -438.4018220888792 -417.51131679878705 -283.484502161497 1 1 0
1495 144 3 0 -434.7877937813979 -413.3892820154718 -284.15375192980247 1 1 0
1489 144 3 0 -404.60677478964493 -408.7677468246364 -288.72950081147496 1 1 0
1488 144 3 0 -401.08655775323473 -412.1817176188032 -285.5342295746573 1 1 0
1487 144 2 0 -401.493274090891 -417.15690190997043 -281.6440318796923 1 1 0
2820 277 4 0 -527.0037314609673 -375.2661367941884 -281.68187566861053 1 1 1
2821 277 3 0 -525.5742585986007 -378.76275421032403 -286.4874191098183 1 1 1
2819 277 3 0 -525.8432789511907 -370.9892468752806 -277.83917254805874 1 1 1
2818 277 3 0 -523.3697636477901 -368.7621393488119 -272.72151571467754 1 1 1
1948 190 3 0 -535.2998687184572 -330.09228493699027 -284.3045271031572 0 0 0
1694 164 1 0 -91.12234113645948 -355.96069758239406 -285.6269103656083 0 0 0
1695 164 3 0 -92.53640715381813 -361.6353818634372 -286.13626509939076 0 0 0
1696 164 1 0 -92.91212283849242 -365.69601909703846 -281.61172534165155 0 0 0
1947 190 2 0 -533.5832608531454 -335.9745409340996 -283.5151440472021 0 0 0
1241 119 3 0 -131.75528500289673 -539.8340697580212 -427.9553669155587 0 1 1
973 92 1 0 -420.99754344912395 -478.7696987073242 -539.1237988853155 1 1 0
666 61 1 0 -311.9620849821907 -524.1152917330276 -268.7629410010195 1 0 0
1336 128 1 0 -319.2679042062255 -305.08620711862955 -254.45459015931203 0 0 1
1335 128 3 0 -316.8998924908161 -302.5183630913563 -249.58804744625118 0 0 1
1334 128 1 0 -312.2784973002576 -299.85535198599445 -246.48628430553396 0 0 1
1333 128 1 0 -306.58586047007236 -299.55889145695556 -245.96341109070588 0 0 1
1332 128 4 0 -301.23334561305114 -297.97081023855327 -248.19201383926216 0 0 1
1331 128 3 0 -297.182552616099 -294.3994930413775 -246.4247730145923 0 0 1
1330 128 4 0 -294.5585166198024 -293.0133419986125 -241.01306990260397 0 0 1
1329 128 3 0 -290.17467178813223 -289.9353091341858 -238.0900889732439 0 0 1
456 40 1 0 -398.1722581832618 -272.58000992070197 -250.2555140924334 0 0 0
1921 187 3 0 -18.445124961093185 -318.4798088833517 -9.147636450701164 0 1 0
1328 128 3 0 -286.59593895418686 -290.86291699122216 -233.3571192361631 0 0 1
1327 128 2 0 -284.19409386445443 -294.85277210868213 -230.29731645742424 0 0 1
1918 187 3 0 -31.34031454901338 -317.04307208055656 -19.85804776015353 0 1 0
908 86 3 0 -327.5069959732116 -380.8509522800544 -176.12009761306615 0 1 0
909 86 3 0 -322.539860630395 -381.40826405806513 -173.5334771306639 0 1 0
907 86 2 0 -332.02921639120274 -378.1279876410854 -178.57992188401622 0 1 0
911 86 3 0 -314.417549471321 -385.74680120019093 -166.60144419416102 0 1 0
910 86 4 0 -318.4940563232939 -384.5412455874492 -170.6498181950022 0 1 0
1766 171 1 0 -19.21434025039734 -421.48202025364185 -155.94682188114507 -1 1 -1
912 86 4 0 -312.671987642532 -389.12404752990443 -162.59183265818197 0 1 0
913 86 1 0 -309.0612314997895 -389.8615289307954 -157.8354845185101 0 1 0
914 86 1 0 -303.4238364926354 -391.07021632014016 -156.94500283580578 0 1 0
2636 258 1 0 -520.6744325517817 -506.1421378535844 -141.34505056029064 1 0 0
2635 258 3 0 -520.062248231961 -505.82866391013465 -135.32557182219762 1 0 0
1765 171 3 0 -17.875376204548484 -422.81187693530705 -150.53839515206096 -1 1 -1
1764 171 1 0 -15.309959520403034 -421.1809664726691 -145.24430221795143 -1 1 -1
1763 171 1 0 -14.395966459380093 -419.00100316492217 -139.98843477040128 -1 1 -1
1762 171 4 0 -10.216508766323173 -415.8434741086137 -137.0908224406274 -1 1 -1
915 86 3 0 -299.6275610175267 -392.6970096540949 -152.77111780085107 0 1 0
916 86 1 0 -295.2701119674968 -393.698650379508 -149.21990837532306 0 1 0
2634 258 1 0 -517.6439545228685 -507.5571009920813 -130.37363156484213 1 0 0
2633 258 1 0 -516.1172084145313 -506.84897227801144 -124.85264199350661 1 0 0
2632 258 4 0 -517.2947633994886 -504.18817533259727 -119.54108691348121 1 0 0
353 30 1 0 -210.67982918572275 -441.4221606588912 -126.23386917791616 0 0 1
352 30 4 0 -209.52023188082066 -446.35855857029804 -122.76868657901394 0 0 1
351 30 3 0 -211.1965097503171 -451.7008737614136 -120.318567493155 0 0 1
356 30 1 0 -208.43216657554774 -428.76190616647756 -135.95907178553944 0 0 1
354 30 1 0 -211.5975809508739 -439.3525580084715 -131.81583898690036 0 0 1
355 30 3 0 -209.0506286644304 -434.28794516948386 -133.83068398208428 0 0 1
1761 171 3 0 -4.482672398693091 -415.34566218715315 -135.65052810443188 -1 1 -1
3008 296 3 0 -444.83874619952894 -274.30256204812747 -120.71843519418917 0 0 0
3007 296 2 0 -442.88181785027183 -272.00151335473146 -125.56718297954347 0 0 0
2630 258 4 0 -513.7207309728825 -501.2567220101006 -108.82523320783294 1 0 0
2631 258 3 0 -516.3487918295849 -501.6903897499798 -114.39007322621195 1 0 0
2629 258 3 0 -509.36397762581333 -502.0428389959244 -104.96850738795291 1 0 0
2628 258 3 0 -503.737478997605 -501.0964291590497 -102.98413930948908 1 0 0
2627 258 2 0 -500.8114184251649 -499.9026106097586 -97.91375617962258 1 0 0
347 30 2 0 -219.89398577656954 -458.60797338849744 -101.22304474263719 0 0 1
349 30 3 0 -216.96337011338716 -453.74997142687954 -110.05976948422527 0 0 1
350 30 4 0 -214.47086801703819 -453.434218995551 -115.51690813245469 0 0 1
348 30 3 0 -218.50764065355736 -454.17287022905765 -104.49055211238978 0 0 1
3012 296 4 0 -452.9657694699608 -273.3286619148542 -101.46558938683751 0 0 0
3010 296 4 0 -446.01688302903574 -273.2816542390139 -110.09396805837972 0 0 0
3011 296 3 0 -449.1218428742239 -274.90694757737407 -105.5495615124076 0 0 0
3009 296 3 0 -444.05663612115177 -275.6432548377366 -115.36773244971411 0 0 0
2196 214 1 0 -409.1213376688959 -420.3054477209328 -83.8866457884659 0 0 -1
3014 296 1 0 -458.60512130016434 -279.4531123047826 -93.5129329582568 0 0 0
3013 296 1 0 -456.86498820960804 -275.68749171700273 -97.75102173948461 0 0 0
3015 296 3 0 -460.90180894097955 -280.6568954871181 -88.39211547726396 0 0 0
2195 214 3 0 -405.59432220078463 -421.9743975943247 -79.54432319749381 0 0 -1
2194 214 1 0 -401.7121029594078 -424.7076917103489 -76.00731494214972 0 0 -1
2193 214 1 0 -399.9536205489078 -429.76390002542036 -73.33448305589866 0 0 -1
2192 214 4 0 -399.47230435412706 -433.2171633051417 -68.47511168263966 0 0 -1
3016 296 1 0 -461.5310433425863 -280.9380009956469 -82.79770032079122 0 0 0
2473 242 1 0 -421.8073518501323 -468.70756345637227 -50.266553559468115 0 0 0
2190 214 4 0 -393.2869039363128 -439.6896223206482 -63.216895962794624 0 0 -1
2189 214 3 0 -392.44046233636465 -440.03860669123515 -57.26820710490039 0 0 -1
2191 214 3 0 -397.51605710894535 -438.0217780614336 -66.53461032577063 0 0 -1
1596 154 1 0 -506.2444640335825 -337.8393689474384 -56.47730336757149 0 0 0
1595 154 3 0 -506.65300872242767 -333.5231476529881 -60.17887056647662 0 0 0
1594 154 1 0 -504.39638391368834 -328.4386939194715 -62.98960949229609 0 0 0
1592 154 4 0 -499.5590399735014 -318.737029789275 -63.82346929009653 0 0 0
1593 154 1 0 -501.2151755542384 -323.546715803189 -61.56506058546784 0 0 0
1588 154 3 0 -506.53696865410245 -303.7926352286845 -50.67668400335774 0 0 0
1591 154 3 0 -499.70104430224575 -312.92038735685685 -63.00382737589657 0 0 0
1590 154 4 0 -500.57293722386527 -310.351591114231 -57.67107148251853 0 0 0
1589 154 3 0 -502.3812426415555 -306.72140360793753 -53.33927340879126 0 0 0
2471 242 3 0 -430.8121445057438 -474.89434827375607 -52.41858412395665 0 0 0
2470 242 4 0 -436.41064812567413 -476.1284385021096 -50.18679249562872 0 0 0
2472 242 4 0 -425.3441432760548 -472.39375501408034 -52.82775378570353 0 0 0
2469 242 3 0 -438.8007156608737 -477.5139340941664 -44.92915806334988 0 0 0
2467 242 2 0 -430.75327939687725 -473.8856371014083 -38.57399551331471 0 0 0
2468 242 3 0 -436.2482063990798 -475.6381182126806 -39.788033388987635 0 0 0
2475 242 3 0 -413.0378141557431 -462.35428598975324 -48.64730371908077 0 0 0
2474 242 1 0 -418.8222574582315 -463.99416652630094 -49.63087346985824 0 0 0
2476 242 1 0 -410.56538133825364 -458.06683085332435 -51.90857305555589 0 0 0
2188 214 3 0 -392.4267875227393 -437.53561949911284 -52.16667624041838 0 0 -1
2187 214 2 0 -392.1421955378996 -432.998346256139 -48.03279626742261 0 0 -1
1587 154 2 0 -512.0480231588604 -303.477992850959 -48.985785270101424 0 0 0
1042 99 4 0 -284.3961406528552 -534.9857072086564 -22.425371272724462 0 1 0
1043 99 1 0 -285.21106050978557 -536.9751608374355 -27.914802122187126 0 1 0
327 28 2 0 -4.327315389381296 -307.97682490148645 -34.11052238711881 0 1 0
1041 99 3 0 -280.7541489695312 -534.1486320956918 -17.29942712949507 0 1 0
1040 99 4 0 -275.3838254051976 -535.9588485125788 -15.284659741226763 0 1 0
1039 99 3 0 -272.50448389357894 -538.5428701878715 -11.026580404193412 0 1 0
1038 99 3 0 -269.5155493664554 -538.440306262694 -6.444475688093304 0 1 0
1917 187 2 0 -32.23007942129074 -322.4846613599455 -21.513791311828456 0 1 0
1920 187 4 0 -22.4957868286265 -315.7674462030306 -12.227642705057603 0 1 0
1922 187 4 0 -18.70844169727616 -321.8818434402355 -4.367156981863242 0 1 0
1923 187 1 0 -22.77986506565179 -321.4188307180587 -0.21775688979793248 0 1 0
1919 187 3 0 -26.975233474848373 -315.29956529094443 -16.133875984405883 0 1 0
2817 277 2 0 -519.9842976488102 -369.41554507448114 -267.9787159956335 1 1 1
447 40 2 0 -425.7784903767122 -270.73505920698693 -224.77774488163718 0 0 0
1037 99 2 0 -268.27442517131436 -537.6541271586672 -0.8304097307144516 0 1 0
856 80 1 0 -531.0777631859391 -537.3627590360858 6.13892992890583 0 1 0
2266 221 1 0 -344.3688825205556 -311.9483094719064 251.35584968906576 1 0 0
1926 187 1 0 -35.567116993337116 -310.4452512444281 0.800744981058935 0 1 0
1924 187 1 0 -27.486019875808125 -317.9370556620718 1.7028266577887754 0 1 0
1925 187 3 0 -32.64951450081988 -315.37768202379897 1.0265891713523745 0 1 0
2912 286 4 0 -221.19608360939702 -437.32808572792754 69.7519101481703 1 0 -1
2911 286 3 0 -217.2243179411566 -433.644434618423 67.91314920080947 1 0 -1
2910 286 4 0 -212.85132914226028 -429.9449116901395 68.30762355701646 1 0 -1
2909 286 3 0 -215.2272108650461 -424.94359808419154 67.03859267917507 1 0 -1
2916 286 1 0 -232.2366386772526 -450.2060174912107 76.8063534223786 1 0 -1
2915 286 3 0 -229.8605296108642 -445.39752215771364 79.15859345716756 1 0 -1
2913 286 1 0 -226.498048716793 -437.74566531486164 72.36258606946865 1 0 -1
2914 286 1 0 -228.1208969908705 -440.1611167180726 77.43996646784142 1 0 -1
2907 286 2 0 -213.49710321654956 -414.7122569985427 65.29100799359442 1 0 -1
2908 286 3 0 -214.75603998889 -419.26363064540664 68.52224802014241 1 0 -1
1887 184 2 0 -196.18648809766853 -348.6119287913751 77.96757930979224 0 0 0
1888 184 3 0 -193.17301828879437 -350.65189043400375 82.0751350859806 0 0 0
1889 184 3 0 -191.20530691598503 -350.0877970904175 87.70410879948737 0 0 0
1890 184 4 0 -192.13346328390594 -346.8104848760992 92.512205571417 0 0 0
1891 184 3 0 -191.75940812124884 -341.25869204448793 95.03401519045919 0 0 0
1892 184 4 0 -196.49537935095935 -338.15286020096136 96.51227012291889 0 0 0
1895 184 3 0 -213.06223476978087 -336.07023783383517 95.06014492901686 0 0 0
1894 184 1 0 -207.14238512413166 -335.7517495920645 94.16926045907555 0 0 0
1896 184 1 0 -218.2660163265377 -333.1074315997597 95.05899861692637 0 0 0
1893 184 1 0 -201.4948878006239 -336.3141896550274 93.94450864202635 0 0 0
2766 271 1 0 -98.71259021179036 -460.8500939990234 148.93520984461415 0 0 0
2765 271 3 0 -96.00341262179711 -463.38436984749876 153.78855349998693 0 0 0
1276 122 1 0 -166.9360122968596 -444.8166552182486 145.16717906444507 0 0 0
1275 122 3 0 -161.09614532587287 -443.2591709635603 146.48670325379348 0 0 0
1274 122 1 0 -157.1244105457809 -444.5351942930448 150.842006064679 0 0 0
427 38 2 0 -260.7042196021016 -272.6838284829359 143.11465187590778 1 0 0
2762 271 4 0 -99.73771505347788 -456.36379700574554 168.24982580069894 0 0 0
2763 271 1 0 -97.54767847825137 -460.162007642901 164.27182266940687 0 0 0
2764 271 1 0 -96.21794869796035 -463.99442864520864 159.6892270597915 0 0 0
1273 122 1 0 -152.7890589678512 -443.8991470158558 154.6408319836914 0 0 0
1272 122 4 0 -149.4409393383696 -446.78175979043493 159.4858847373419 0 0 0
1270 122 4 0 -139.74272445105765 -448.659383490657 165.87344451346226 0 0 0
1269 122 3 0 -134.2054237860435 -446.3089278689644 166.27608702569373 0 0 0
1271 122 3 0 -144.68411770023178 -448.81172164801933 162.14308771319668 0 0 0
1267 122 2 0 -128.8012199409888 -451.31916618342365 174.49447968666325 0 0 0
1268 122 3 0 -131.78081651213978 -447.629955053846 171.49772092733178 0 0 0
2759 271 3 0 -99.32138800137315 -447.4175180682104 180.96891603357943 0 0 0
2761 271 3 0 -103.20556960811359 -454.2225658889632 172.37335870953737 0 0 0
2760 271 4 0 -102.21507130596477 -451.2450165483018 177.34764699131435 0 0 0
2758 271 3 0 -101.61368830464468 -447.0137581104598 186.45157461774266 0 0 0
2757 271 2 0 -105.22634311961916 -446.23513275478746 191.15661494564338 0 0 0
2947 290 2 0 -486.93377078162865 -448.0985384887387 222.06849697169503 0 1 1
2949 290 3 0 -487.853795811136 -444.9569654257476 231.8475474569236 0 1 1
2948 290 3 0 -489.52598200228203 -445.98590496920565 226.7686399973397 0 1 1
2950 290 4 0 -487.64665496817355 -446.7335708286763 237.47929975669433 0 1 1
2258 221 3 0 -335.2346811262702 -336.3274394075595 228.44097869196887 1 0 0
2259 221 3 0 -338.5916955602091 -337.07070340496284 233.3874753306264 1 0 0
2257 221 2 0 -333.37718327421146 -337.6217542857474 222.9608141931913 1 0 0
2955 290 3 0 -464.02049446638927 -456.30319883506576 239.7744345464847 0 1 1
2956 290 1 0 -459.93828323585836 -453.4668732783075 236.66423347421764 0 1 1
2953 290 1 0 -475.14130729527363 -454.89768935237174 243.54037900738686 0 1 1
2951 290 3 0 -485.52099167574613 -451.6940358130521 239.70481163939235 0 1 1
2952 290 4 0 -479.5525823497242 -452.6296569725655 240.37820204667878 0 1 1
2954 290 1 0 -469.24706827215977 -455.50082157932815 242.64528510213907 0 1 1
2260 221 4 0 -339.1564798905293 -337.68952510002663 239.1315587413279 1 0 0
2263 221 1 0 -345.8896414885495 -328.1402358292627 250.36216267346552 1 0 0
2264 221 1 0 -343.41441558189507 -323.140050716281 252.85087475097083 1 0 0
2262 221 4 0 -342.31534891415265 -332.53577213952985 249.06464674012625 1 0 0
2261 221 3 0 -339.9554312295121 -335.4672738236697 244.4907864586693 1 0 0
2265 221 3 0 -343.85236302136644 -317.65207634031674 253.19506767386645 1 0 0
2589 254 3 0 -118.05402881025317 -442.8002038180557 269.8142573049385 0 1 0
2587 254 2 0 -121.13298655442506 -453.74077103437884 271.48693125814896 0 1 0
2588 254 3 0 -118.3256881199165 -448.5207032827475 271.811177434109 0 1 0
970 92 4 0 -423.973169864606 -481.9065547591391 523.8258908110042 1 1 -1
2593 254 1 0 -115.69504302401255 -427.2001696787533 285.34358637714246 0 1 0
2590 254 4 0 -117.77271097166208 -436.8535382639917 271.3998633633925 0 1 0
2592 254 4 0 -117.45885262482507 -431.3898802190959 281.712989075062 0 1 0
2591 254 3 0 -116.7675829820544 -433.12800435165866 276.1661725901038 0 1 0
337 29 2 0 -390.5756365539978 -281.75819163751294 274.3763369456083 0 0 0
338 29 3 0 -388.0872069303035 -276.36545250050654 275.4998489217291 0 0 0
339 29 3 0 -386.9624919423079 -270.7686022526108 273.73728820789034 0 0 0
607 56 2 0 -3.243724124122258 -315.3656452653107 394.8933614302187 0 0 0
2595 254 3 0 -116.45602007363048 -427.5829315938065 295.53328294096787 0 1 0
2596 254 1 0 -121.12676356974069 -427.1908734590656 299.4501235693313 0 1 0
2594 254 1 0 -114.08760801959151 -424.8393961465547 290.66398879657095 0 1 0
2979 293 3 0 -193.67995050040557 -442.202013085325 319.1838644232342 0 1 0
2980 293 4 0 -189.54210776419185 -444.02606442069094 323.5394131050937 0 1 0
2978 293 3 0 -194.87107540487415 -439.2381493476693 314.1637733819405 0 1 0
2981 293 3 0 -184.81263004151552 -445.53448243956916 321.0828328556438 0 1 0
2982 293 4 0 -179.06601436067257 -444.72332294915225 319.8752606398544 0 1 0
2983 293 1 0 -173.97092404156834 -444.088169551669 316.8050078442164 0 1 0
2984 293 1 0 -168.07811796520102 -444.097293370355 315.13940941840934 0 1 0
2986 293 1 0 -162.0467209172778 -436.86316998856245 310.7223344621439 0 1 0
2985 293 3 0 -166.85993716770196 -440.3140535613759 310.3367853328567 0 1 0
2977 293 2 0 -195.4260345950697 -440.9683414728024 308.58699666890254 0 1 0
2797 275 2 0 -166.44171246550462 -346.76467506722724 345.35447942661426 0 0 0
2798 275 3 0 -163.42724171882813 -344.1733838079919 349.4038235668456 0 0 0
2296 224 1 0 -426.0204938041691 -412.94316695172193 372.0256757122292 0 0 0
2802 275 4 0 -166.55378614098768 -345.2929530133958 369.3670281065285 0 0 0
2799 275 3 0 -162.11961158957604 -343.32529284766514 355.0671477935423 0 0 0
2801 275 3 0 -167.8157479503045 -342.3911079076829 364.7576917345567 0 0 0
2800 275 4 0 -164.42239327545693 -342.5146913136597 360.07607800502586 0 0 0
2290 224 4 0 -446.4698477930852 -423.77269455047843 387.2751600278256 0 0 0
2291 224 3 0 -445.02797240910314 -418.8828688576636 389.5898777602707 0 0 0
2292 224 4 0 -440.83003984204674 -414.8939938434482 388.3178613697789 0 0 0
2295 224 3 0 -428.44427709365544 -413.05736068526136 377.49212954068526 0 0 0
2293 224 1 0 -437.69807332925825 -411.1622311967034 385.1678790222731 0 0 0
2294 224 1 0 -432.80167135627164 -412.5892372258711 381.59208162407657 0 0 0
2806 275 1 0 -171.23743252638076 -361.4957387420403 385.61629446841795 0 0 0
2805 275 3 0 -170.3200969585989 -357.4903167617023 381.20329946284375 0 0 0
2804 275 1 0 -167.83813222331602 -352.72985513098854 378.20001079227336 0 0 0
2803 275 1 0 -167.6420040542635 -348.2426292777676 374.55823189484465 0 0 0
2287 224 2 0 -456.4367587362337 -436.56424249348817 391.9958098968439 0 0 0
2289 224 3 0 -449.81896600875336 -428.36717648245406 388.7756292259757 0 0 0
2288 224 3 0 -452.45004090897675 -432.270352764808 392.59920672077556 0 0 0
608 56 3 0 -2.31397145641927 -313.52242459238727 400.4924119072085 0 0 0
610 56 4 0 -3.9198397970527634 -311.5265699782626 411.4468227190161 0 0 0
611 56 3 0 -5.246257760545021 -308.6938397637649 417.0668021855517 0 0 0
609 56 3 0 -3.817244822848587 -310.5304089600964 405.6248409128571 0 0 0
875 82 3 0 -526.9326282961252 -299.3026748769594 414.99135352036325 0 0 0
876 82 1 0 -532.0010998391181 -300.1703339264173 411.66936801734164 0 0 0
873 82 1 0 -515.3604494480157 -300.02903971312816 414.6515634927199 0 0 0
874 82 1 0 -521.2112578036373 -300.78903046097 414.10080489950616 0 0 0
872 82 4 0 -510.50871930580325 -297.900247422234 417.29243649470834 0 0 0
612 56 4 0 -7.844107620417619 -303.62782603021384 419.2828671958483 0 0 0
613 56 1 0 -5.795794400801359 -298.19909074173944 421.00469257481126 0 0 0
614 56 1 0 -6.937877687814265 -293.04653588024314 418.8188890080558 0 0 0
615 56 3 0 -8.06027414143502 -287.49666617510314 418.73255137668986 0 0 0
616 56 1 0 -7.8578733491003065 -281.7361507569896 419.7243234271627 0 0 0
796 74 1 0 -359.31015715929425 -357.3954713456441 429.50369623494356 0 1 0
794 74 1 0 -349.6414305640997 -357.78700112470074 434.08984315516483 0 1 0
793 74 1 0 -343.8513257266668 -359.02371377266917 434.48012241344264 0 1 0
795 74 3 0 -354.8006843547958 -359.73515076369284 432.22901034089676 0 1 0
792 74 4 0 -338.7477153636641 -356.8761561056363 436.153500303574 0 1 0
787 74 2 0 -318.4349999548858 -342.1307234014527 427.5352770108522 0 1 0
791 74 3 0 -332.9790853886062 -357.44780494743134 435.77225033165365 0 1 0
788 74 3 0 -321.9402064483854 -346.75004444053764 429.51184949193123 0 1 0
789 74 3 0 -324.8288942327646 -350.76451221315807 432.9991801993243 0 1 0
790 74 4 0 -329.84908465586426 -352.3470877735749 435.8268246668966 0 1 0
871 82 3 0 -508.06669069489 -295.38976675508013 422.0532643701127 0 0 0
870 82 4 0 -503.5610885746614 -295.29155852375095 425.85001525613023 0 0 0
869 82 3 0 -501.2457850559123 -295.8921216487229 431.220326637057 0 0 0
868 82 3 0 -501.84690723827987 -298.6722668773134 436.53975965244365 0 0 0
867 82 2 0 -498.4878237378842 -301.12090491487993 440.4162560183866 0 0 0
2224 217 1 0 -253.27119484651038 -495.33651797649117 494.0218506999978 1 0 0
2223 217 1 0 -255.00383196213198 -491.0460447514499 497.8228523185699 1 0 0
2225 217 3 0 -247.55296681205115 -497.2516442914502 494.4224838231208 1 0 0
2226 217 1 0 -243.4642672365011 -498.63488825577355 490.5965404635973 1 0 0
2222 217 4 0 -253.2858041587203 -487.86756837674636 501.8082044649053 1 0 0
538 49 3 0 -426.29958150428183 -292.9828759971279 491.60271006766607 0 0 0
541 49 3 0 -436.5275344124737 -303.7150013486998 500.07585434400977 0 0 0
539 49 3 0 -429.6158914814607 -297.54335396163947 493.8681437900014 0 0 0
540 49 4 0 -434.7509684185627 -299.1944965582823 496.2678929034063 0 0 0
537 49 2 0 -421.4200558000198 -289.4608076715652 492.15900672016267 0 0 0
542 49 4 0 -437.20154985942514 -304.0060534937624 505.7333949874173 0 0 0
969 92 3 0 -421.8132125193746 -478.15734942855335 519.7650495802117 1 1 -1
2221 217 3 0 -249.20431739333662 -488.7893834716335 506.20927761343285 1 0 0
2220 217 4 0 -246.9724876825172 -486.6851626345861 511.2908348748055 1 0 0
2219 217 3 0 -243.09287554492937 -484.8257146291621 515.1465373100359 1 0 0
2218 217 3 0 -242.27166921990263 -479.9131929062292 518.8596948588622 1 0 0
2217 217 2 0 -239.78161846734386 -475.8942436912621 522.6656812728045 1 0 0
968 92 3 0 -421.9008266871215 -472.8683017076823 516.9432542376591 1 1 -1
967 92 2 0 -423.43815799742436 -471.07605342085856 511.60288629784674 1 1 -1
546 49 1 0 -450.88405876481477 -311.0401233907989 521.5738360024499 0 0 0
545 49 3 0 -447.65939919882044 -309.0920949399187 516.9491335999285 0 0 0
544 49 1 0 -444.0164532146113 -304.6318273503832 515.0821167916346 0 0 0
543 49 1 0 -441.0185938633966 -302.65106640017507 510.20388389185973 0 0 0
972 92 4 0 -422.7992646363299 -480.2759913770872 535.4703941989956 1 1 -1
971 92 3 0 -423.57932281437155 -480.99702665695173 529.4472556590814 1 1 -1
2926 287 1 0 -92.57464324248342 -220.07051703213804 -512.7150154477215 0 0 1
2925 287 3 0 -86.61896999543072 -220.59520515208018 -511.21635991435966 0 0 1
2924 287 1 0 -82.79594262781096 -220.34413954407026 -506.65710713431173 0 0 1
2923 287 1 0 -80.99014587993915 -217.8323492639875 -501.42528067820786 0 0 1
2922 287 4 0 -79.41674538195707 -218.08534422613172 -495.7162626623247 0 0 1
2921 287 3 0 -80.23064590437893 -214.8641478810408 -490.5984474344817 0 0 1
2920 287 4 0 -79.49067678338608 -210.1233157328762 -486.86235557117226 0 0 1
2919 287 3 0 -74.61038876442777 -208.10916896851217 -483.9024893044002 0 0 1
2918 287 3 0 -69.98093346116984 -204.6968471959841 -483.13268533266944 0 0 1