LAMMPS data file via write_data, version 29 Aug 2024, timestep = 105000000, units = real

116 atoms
4 atom types
110 bonds
1 bond types
104 angles
1 angle types

-100 100 xlo xhi
-100 100 ylo yhi
-100 100 zlo zhi

Masses

1 329.2
2 305.2
3 345.2
4 306.2

Bond Coeffs # harmonic

1 7.5 5.9

Angle Coeffs # harmonic

1 5 150

Atoms # full

33 2 1 0 8.945300803493822 -91.20782091192375 -98.60886563255904 0 -1 1
32 2 4 0 8.425354816554995 -97.11300544670009 -97.55228257341376 0 -1 1
34 2 2 0 8.758405668103013 -85.47510926408076 -97.22408207577833 0 -1 1
35 2 1 0 7.677593203174306 -80.2252136927629 -97.32146703849288 0 -1 1
36 2 2 0 8.96109200611959 -74.48982801280312 -97.48179631787092 0 -1 1
85 3 3 0 99.87599695819513 -96.37178881163022 -80.60552224517825 -2 3 0
86 3 1 0 98.98593156481512 -92.09943231414658 -84.11189204717824 -2 3 0
65 2 3 0 -2.626658411432019 -46.45898258306321 -99.60115466567697 0 -1 1
52 2 1 0 -10.046448217660554 -47.78454029466061 64.38349438661719 0 -1 0
56 2 3 0 -6.1243306787763885 -50.038609531315615 76.12200131474708 0 -1 0
57 2 2 0 -0.636015469387911 -50.68088985870518 77.97790041912418 0 -1 0
58 2 4 0 5.035994517048782 -48.812966424311334 77.74824593437938 0 -1 0
53 2 1 0 -14.257186180858135 -48.45282047134305 68.20813226570213 0 -1 0
51 2 3 0 -4.106300664085828 -46.34101950894772 64.32716214295507 0 -1 0
55 2 2 0 -10.420863872789287 -46.11798229519589 76.66228652886015 0 -1 0
54 2 1 0 -14.614715256510896 -45.65434734321042 73.32098922198442 0 -1 0
50 2 3 0 0.27055355830100125 -46.78624161688106 68.39599195342306 0 -1 0
49 2 2 0 3.9738860891262586 -42.57200033740104 70.21575593461213 0 -1 0
48 2 3 0 4.411793665729817 -37.84969051895727 73.5017251831985 0 -1 0
47 2 1 0 6.065902603777397 -35.24587340286829 78.45145886000326 0 -1 0
59 2 3 0 9.82669645130691 -45.97167919704033 79.06978659410754 0 -1 0
89 4 3 0 -61.20010410726906 -72.69627952886145 94.58346530081046 1 0 -1
88 4 3 0 -62.90222518230714 -75.65143976800746 89.81016859773396 1 0 -1
87 4 2 0 -62.52656919985203 -76.39270714363585 84.07661975668466 1 0 -1
90 4 4 0 -64.97466472189001 -69.18467414355212 97.16325009394322 1 0 -1
71 2 1 0 -7.060280156354294 -74.44551890166467 92.03548619581628 0 -1 0
70 2 2 0 -8.657754789340604 -68.6487744726153 91.35936648630124 0 -1 0
72 2 3 0 -3.2509942299094776 -78.67465635989862 93.181951741663 0 -1 0
75 2 2 0 12.834735884530481 -78.21667710157993 92.39057814394755 0 -1 0
74 2 3 0 7.783643292366475 -79.57828716562804 90.08464679369412 0 -1 0
38 2 3 0 4.766394565567623 -67.44670965290867 93.85107233603568 0 -1 0
73 2 3 0 2.048983564038507 -80.58305287685401 91.43874863123841 0 -1 0
37 2 2 0 5.790102687108223 -69.93027498358892 99.63183960932746 0 -1 0
76 2 4 0 18.680571633775124 -77.16726014221251 92.41737458808669 0 -1 0
93 4 1 0 -65.8305060952942 -52.39313278617691 97.6010624905725 1 0 -1
69 2 1 0 -12.18660947445967 -64.64975818705764 93.25630926701406 0 -1 0
41 2 2 0 -1.3487921240279117 -53.357992886916854 88.66961220902297 0 -1 0
40 2 3 0 -0.47148549434604037 -58.85767676591717 89.65927599181255 0 -1 0
66 2 4 0 -6.469005283247528 -50.74762070074447 98.75786568058759 0 -1 0
68 2 4 0 -13.620946658317651 -58.725194683481575 94.94708498117927 0 -1 0
67 2 1 0 -10.444170785274617 -53.53946598252052 95.0248157705963 0 -1 0
39 2 4 0 1.259928147464137 -64.28909341715811 90.67625675480777 0 -1 0
94 4 1 0 -64.88483241011015 -48.90280493381058 93.15110761377215 1 0 -1
96 4 1 0 -59.6225586918655 -41.11758456833087 88.21092330619268 1 0 -1
95 4 3 0 -64.55173865866789 -43.789084014787996 90.64452938800424 1 0 -1
42 2 3 0 -5.040679461747891 -48.74674434113343 89.27000749105318 0 -1 0
43 2 3 0 -5.352825301464119 -42.895878225856734 89.24158117287152 0 -1 0
44 2 2 0 -3.413644040801956 -37.5150664948859 88.35575196152821 0 -1 0
64 2 2 0 1.5729879542235055 -42.203464983478945 99.26545784388163 0 -1 0
46 2 2 0 5.856275830029338 -33.49803764434186 83.92534696595366 0 -1 0
63 2 4 0 6.091013225637201 -38.56308306829431 96.7035677819782 0 -1 0
62 2 3 0 10.320970922952526 -37.18205235134772 92.26363451075093 0 -1 0
45 2 1 0 0.17929850729423513 -33.58614288693931 86.04127327573848 0 -1 0
60 2 1 0 12.115829745275832 -42.8583555191831 83.40670520495948 0 -1 0
61 2 4 0 13.09981827018268 -39.1339995479009 87.30342433090851 0 -1 0
92 4 4 0 -66.16444317340199 -58.3389079262086 97.06927476137611 1 0 -1
91 4 3 0 -65.58900769850061 -63.46691180656691 99.45595410170158 1 0 -1
11 2 2 0 -20.663110889976466 13.088524799702833 -90.10934012954517 0 -2 1
13 2 3 0 -10.697083870601977 17.680450890898815 -92.25886610488591 0 -2 1
12 2 3 0 -16.043758690379565 16.893689620642245 -90.78262252993862 0 -2 1
14 2 4 0 -6.789277879564362 19.071858006992368 -96.08972779088421 0 -2 1
15 2 3 0 -2.1829695604596826 23.17864643111819 -96.54096924232064 0 -2 1
16 2 4 0 -3.191328218789726 28.834565401121573 -97.67193808786158 0 -2 1
17 2 1 0 -4.651181131137064 34.34206638573764 -96.38844807304272 0 -2 1
18 2 1 0 -7.861449707704085 38.80658150833956 -98.86806172372924 0 -2 1
19 2 3 0 -9.885542854953439 44.03863139633123 -99.8115012651805 0 -2 1
23 2 1 0 -7.315964116806528 64.18294432949224 -93.84926466763024 0 -2 1
22 2 2 0 -10.624397708378412 59.91109709134105 -96.49468478762142 0 -2 1
24 2 3 0 -3.9088379923061845 65.58134950020496 -89.19897736046839 0 -2 1
84 3 1 0 97.49604960600966 99.72673109285044 -76.49239406904601 -2 2 0
116 6 1 0 70.68536629150498 26.481610291841168 -42.54002390623011 -3 -3 4
3 1 3 0 -5.84995993671225 77.77967339981694 -97.15740773327879 0 2 2
25 2 2 0 0.6390034901200148 69.70568496441732 -88.56818751297536 0 -2 1
2 1 3 0 -5.231253288946582 81.41931617192647 -92.57812161075022 0 2 2
26 2 2 0 5.525507652029342 72.23213157855238 -90.6409407003913 0 -2 1
27 2 2 0 7.540999148853097 76.3889414382578 -94.60952660062475 0 -2 1
28 2 3 0 7.4331735305100315 81.98967139144787 -96.43933015661258 0 -2 1
1 1 2 0 -5.781283368857745 82.3812972100518 -86.49582627412023 0 2 2
31 2 4 0 8.140694231633296 98.84038197063127 -93.87852600312651 0 -2 1
30 2 2 0 7.113930091107131 93.12958385492101 -93.9970618546142 0 -2 1
29 2 4 0 5.818198817315588 87.653150298232 -95.26363287374765 0 -2 1
102 5 4 0 14.42068106339291 88.38035006439259 -88.62575114974561 0 -7 1
103 5 1 0 9.763640902913112 88.15484859741055 -84.95089650204359 0 -7 1
101 5 3 0 18.295325612376104 92.24637658152376 -91.58595716793839 0 -7 1
100 5 4 0 19.55209421676334 94.22612946694679 -96.87941092688781 0 -7 1
107 6 2 0 62.60906297488017 38.25942344599768 -77.73611160123367 -3 -3 4
108 6 3 0 68.02304360063744 39.61139487096867 -78.48883933332549 -3 -3 4
110 6 4 0 76.23074006734768 39.08265594029085 -71.1641638590222 -3 -3 4
109 6 3 0 73.05780566579806 40.168192658824104 -75.92528106047762 -3 -3 4
111 6 3 0 76.28343674422646 34.39986115525485 -67.13363722700052 -3 -3 4
106 5 1 0 6.41720126879268 75.9749563402275 -74.71778512297911 0 -7 1
105 5 3 0 9.284707856920994 80.35767987293828 -77.67001405409096 0 -7 1
104 5 1 0 7.091287802156321 84.89148470610513 -80.98013940916157 0 -7 1
83 3 1 0 96.98392579357815 94.78402194984062 -73.83962597956462 -2 2 0
82 3 4 0 95.07827417813263 92.09118565983297 -69.16573218680398 -2 2 0
81 3 3 0 98.17171480224502 88.61307075310057 -65.29870310468252 -2 2 0
114 6 1 0 70.7016301974543 33.61655927953612 -51.37246553512544 -3 -3 4
113 6 1 0 71.38387262984423 34.19976772761064 -57.3341111486641 -3 -3 4
112 6 4 0 71.66014639875885 33.64722528161462 -63.4134604176379 -3 -3 4
78 3 3 0 -88.95117180804505 78.95080372131179 -64.63970836125405 -1 2 0
79 3 3 0 -94.17897121631005 81.53400125969048 -63.62776488147792 -1 2 0
77 3 2 0 -85.20999090385763 74.30343735159676 -64.71677650629513 -1 2 0
80 3 4 0 -99.51680744910206 83.36725483448639 -64.59665812136579 -1 2 0
115 6 3 0 72.36467503364912 30.235271479905926 -46.68133039557121 -3 -3 4
21 2 3 0 -9.23831818281881 55.08510205614002 -99.86371824902743 0 -2 1
20 2 4 0 -7.0424508389949905 49.485314020400246 99.91737772643016 0 -2 0
10 1 1 0 12.87598599945867 46.23361846901952 97.73092052736384 0 2 1
99 5 3 0 17.894332746780158 95.61432252377848 97.4131951520782 0 -7 0
9 1 3 0 8.90578054993825 50.59045868082456 97.07410494947551 0 2 1
8 1 1 0 8.306350978866185 55.48638628007348 99.90622640225858 0 2 1
5 1 3 0 -1.6131430316040156 68.55717105063168 97.99032555395651 0 2 1
4 1 4 0 -2.731976437732789 73.91226872586006 99.81505034914676 0 2 1
98 5 3 0 13.490301546542794 97.36464534876053 93.95647583602506 0 -7 0
97 5 2 0 10.538267596320683 94.295758084928 89.83319417970286 0 -7 0
7 1 1 0 5.451792555771604 60.45937795338548 98.59844293010605 0 2 1
6 1 4 0 1.1057265770775644 63.4959645996123 96.82359240592257 0 2 1

Velocities

33 4.2054033881034115e-05 -0.00023056857866811034 -0.0004891496531591034
32 8.63815910661163e-05 0.000341142087123303 0.00034253696266423625
34 -0.0005735748250890795 -0.0008896605475843147 -0.0012221301113011032
35 -0.0005010678141120021 -0.0003425283398669144 -0.0009271519928387424
36 0.0016278461909879683 0.0004099672696881065 -7.655365812358263e-06
85 0.00034647402735490593 0.0009686315287224503 -0.00048682866185479235
86 7.025334825467143e-05 -0.0005340004087826342 -0.00016525760844097944
65 0.00010222472751533862 0.0006949475139559898 -0.0006408269427160308
52 0.0002187780722203796 -0.0010977742789837147 -0.00024683577045174764
56 -0.0001765097320482558 0.0012909003022320935 0.0015255462346838696
57 0.00014154111111564958 -0.0003244393364974711 0.0004834237457682681
58 -0.0011150371246868363 0.0007021665646982582 -0.0003932802291708228
53 -0.00018703825159502858 0.0013980139390960423 -0.0007357594731594101
51 -0.0005141824100763522 -0.0006338215732663599 7.776046056550799e-05
55 0.0006108543439130023 -0.0015592431920716063 0.0003630489362279932
54 0.002020895246118403 0.0015616869833647155 -0.0012121733236977758
50 0.00018254647970539244 0.0001135090819088924 -0.0006857493515788321
49 -0.0012656762263615548 0.0011218310261012943 -0.001793102236384733
48 -0.0007371636961939641 -0.0005396568648227888 -0.0001221817950914481
47 0.0013407899482389845 -0.0011552660143977602 -6.518656424323548e-05
59 0.0006560423404441805 -6.592287145443427e-05 0.00025007201564269856
89 -0.0011452364890953378 -0.0003477688532593478 -0.000570904303615645
88 -0.0011561960748287616 0.0006534929226910376 -0.0005957258764804287
87 0.0004446899311640343 -0.001058294698221857 0.0005918580842532353
90 0.0024327207800375512 0.00010002687831982339 -0.0008256487764951729
71 0.0006424664805951682 -0.000569788040377082 0.0004180354141252189
70 0.0006011489133684307 -0.0005102263207997081 0.0003471073670428641
72 -0.00030984267778231926 1.3100690519920886e-05 -0.001991674068004499
75 -0.001092766347078425 9.732673504239081e-05 0.000514841635929886
74 5.5636103048852966e-05 0.0011084535203951644 -0.0006030718184668051
38 -0.0004998430231450109 0.0020480238418244525 2.5506991682046223e-05
73 -0.0006292164517871246 0.0003382134205806501 -0.0014287531750430938
37 0.001243144657507951 -7.973231763108683e-05 0.0012398086299045552
76 -0.0003437431553580208 0.0007583486632399003 0.0009246036786235004
93 0.0005132247467902312 0.0014983137004127042 -0.002819224792365607
69 0.0006153748699653934 -0.0005239336230457466 -0.0004800980534457126
41 -0.0006762686796383982 -0.0009410999607592813 0.0008521704180559481
40 0.0015166071814429326 0.000665134704655808 0.0007261280557733919
66 0.0007541944866213213 -0.0008329318029693402 -1.3174578752574097e-05
68 0.00020453287470361005 0.001030475383343957 -0.0010349048352828254
67 0.0001706707586335247 -0.0006016033848369052 0.0001609688913922462
39 3.523884691193093e-05 0.00042547679276536013 0.0002253991059605643
94 -0.0008760089179000631 0.00011402095526059484 -0.0002270733653758454
96 0.0006821644121247044 0.0009057420191543276 -0.0012332827353315186
95 -0.0004562306379523092 0.00033836468397237935 -0.00031148880006665345
42 0.0002289445870053746 7.560874898427389e-06 -0.0003376669454367389
43 0.0001924062110858839 -0.0013705781567892894 0.001170908887746275
44 -0.001732199139886646 -0.0008084273630384567 -0.0013176370387294558
64 -4.568518599654905e-05 0.0013875465603653452 -0.0012174256501291238
46 -0.00040331177803189407 0.000968479467828734 5.314096126601401e-05
63 -0.0005534434113726002 0.00033222955127665293 0.0006657039885437239
62 -0.000333952711339514 -0.00029051349231390227 -0.000865800458059199
45 -0.0001271029647769866 0.0007176821863003047 0.0017236937003164868
60 -0.00025004971759771 0.0008297609283812609 -0.0010403715494390108
61 0.0005072723437552181 0.0005573867794212099 0.0013636120518843136
92 0.0003986236513022418 0.00071272950289868 -9.94167193198931e-05
91 0.00022604931108603104 -0.0013935700672377132 0.000399592014942937
11 -0.00021911294064653285 0.0007095788413225296 0.0009830106781362046
13 0.0004268896936760119 0.0004487850407028935 0.00022919525981326565
12 0.000277352168030285 -0.0003817928580360919 -0.0015547381697272463
14 -0.0005506834331731019 0.0008528281425651636 -8.60930824559368e-06
15 0.00018469940843775045 -4.44916625895337e-05 -0.00011813795987049806
16 -0.00016304905580526524 -0.000948151363277814 -0.00046597416151047185
17 0.00010509662683778141 -0.0011320202279676561 0.0002098722547362454
18 -0.0009228289356911988 -0.0009111435405693409 -0.0007010221834911908
19 2.0998851540151798e-05 0.0007645902521625546 -0.0018030151331785982
23 -0.00033833465731013886 -0.00018185840544027068 -0.0010480092347784134
22 0.0016543758903043299 0.00029522204352452777 0.0016737704455367982
24 0.0015138272385102846 0.00011451744747029544 0.000979286676807416
84 0.0003729043070771781 -0.0016362374389653923 0.0005921328296078074
116 -0.00017655306727375355 0.000503279395566294 0.0004868687843256167
3 -0.001492482374275824 0.0004151133896031423 0.0006206245835579933
25 0.00040652526585038037 0.0002640051858948492 0.0007311110205019735
2 -0.0012261910639501067 -0.00040381088755659766 0.0014361421244526034
26 0.0006450610084995687 -0.000903460923284288 -0.0005290762067353609
27 -0.0006716999707489672 -0.0009751850344682873 0.00023114107632691303
28 -0.001644013520651745 3.994854898215404e-05 0.0002460558369505893
1 0.0008410863238831229 -0.0016497175087569708 -0.0013576802915828937
31 -0.0009626241019638357 -0.00012040513222276046 0.0008351599457492073
30 -1.0838634829726378e-05 -0.001169681717192983 0.0013144817937963478
29 -0.00017927638413198316 -0.001234632608544252 -0.0004727177615716162
102 0.000641594156253715 -0.0009014647309222787 0.0002831752630217796
103 0.0009631449584851515 0.0006331479590416542 -0.0011394299972234416
101 -0.0003241092002796625 0.001114861146978901 0.0014798731085013696
100 6.400264073377413e-05 0.00038046916225381507 -0.0010686335679843653
107 0.00033736508989719186 -0.0007266799831093993 -0.00013353147408592567
108 0.0002336964598246151 0.0015206693237425207 0.0020178174817212582
110 -0.00030656500980133906 0.0017814459493689847 -0.00040424008918313
109 -0.00024759200874504954 -2.076213996200603e-05 0.00011627116282767236
111 0.0009423942351024166 -2.2537817879986086e-05 0.0008456007644727763
106 -0.001471167324829712 0.00020529733296598322 0.0001294497425970183
105 -0.0007894028329026082 -0.0005530116250424548 0.000370345850218388
104 -0.0013040070042702762 -0.00048282796163304356 -0.0010107817030978205
83 0.0005373640902526259 0.0006236828185244583 -0.0006734692479531288
82 -0.0006387925616698006 -0.0008172957171514875 0.0009147416724704993
81 -0.00036830145737721674 -0.0013231279044128976 0.00037860344080381503
114 -0.0002524227717069765 -0.0005530292997289995 0.00029173409053928005
113 -0.00017418526036452414 -5.1931342548995125e-05 0.0003395826977594036
112 1.7903797234620057e-05 -0.001691530217718486 0.0015982909459589202
78 -0.00019861681157179535 -0.00041103079876551695 0.0023716842448573386
79 -0.0005836825320791744 0.00038600175536613555 -0.0010691667206234562
77 0.000713517778922636 0.001349904152386722 -0.0019801866719633522
80 0.0017304419497372755 0.0005532233521006089 0.0002591856860247097
115 -0.0015613764711054615 -0.0006463286506185259 0.0003019615501192737
21 -0.0003025730224717239 0.0017749161125893574 -0.0004076658817716972
20 0.0009838513587316746 0.0004626187560485742 -0.00011109182455576938
10 -0.00011185655344920543 0.0015107364727567887 0.0012589189327232447
99 0.0010252003512086045 -0.0003987712661454876 -0.0004741426196328615
9 0.0013311653407046434 -0.0002132501718055868 0.0008565579816998312
8 -4.1123942258227395e-06 -0.0006819823539982838 0.0002936146907374233
5 -0.0011542471544607337 0.0001538944694900682 0.0012459084225064426
4 0.00037742608319491357 0.0005566005014929908 0.0018791225907878039
98 0.0008680350412649892 -0.001430590008667383 0.00012185284771922968
97 1.5516348592162018e-05 -0.0004598875282680337 0.00038079191887007823
7 -0.0008562809286301806 -0.00043542512077365103 -0.001363397634852274
6 -0.00057914494400512 -0.0019527125565933674 0.0016046057794405473

Bonds

1 1 33 34
2 1 32 33
3 1 34 35
4 1 35 36
5 1 36 37
6 1 85 86
7 1 65 66
8 1 52 53
9 1 56 57
10 1 57 58
11 1 58 59
12 1 53 54
13 1 51 52
14 1 55 56
15 1 54 55
16 1 50 51
17 1 49 50
18 1 48 49
19 1 47 48
20 1 59 60
21 1 89 90
22 1 88 89
23 1 87 88
24 1 90 91
25 1 71 72
26 1 70 71
27 1 72 73
28 1 75 76
29 1 74 75
30 1 38 39
31 1 73 74
32 1 37 38
33 1 93 94
34 1 69 70
35 1 41 42
36 1 40 41
37 1 66 67
38 1 68 69
39 1 67 68
40 1 39 40
41 1 94 95
42 1 95 96
43 1 42 43
44 1 43 44
45 1 44 45
46 1 64 65
47 1 46 47
48 1 63 64
49 1 62 63
50 1 45 46
51 1 60 61
52 1 61 62
53 1 92 93
54 1 91 92
55 1 11 12
56 1 13 14
57 1 12 13
58 1 14 15
59 1 15 16
60 1 16 17
61 1 17 18
62 1 18 19
63 1 19 20
64 1 23 24
65 1 22 23
66 1 24 25
67 1 84 85
68 1 3 4
69 1 25 26
70 1 2 3
71 1 26 27
72 1 27 28
73 1 28 29
74 1 1 2
75 1 31 32
76 1 30 31
77 1 29 30
78 1 102 103
79 1 103 104
80 1 101 102
81 1 100 101
82 1 107 108
83 1 108 109
84 1 110 111
85 1 109 110
86 1 111 112
87 1 105 106
88 1 104 105
89 1 83 84
90 1 82 83
91 1 81 82
92 1 114 115
93 1 113 114
94 1 112 113
95 1 78 79
96 1 79 80
97 1 77 78
98 1 80 81
99 1 115 116
100 1 21 22
101 1 20 21
102 1 99 100
103 1 9 10
104 1 8 9
105 1 5 6
106 1 4 5
107 1 98 99
108 1 97 98
109 1 7 8
110 1 6 7

Angles

1 1 32 33 34
2 1 31 32 33
3 1 33 34 35
4 1 34 35 36
5 1 35 36 37
6 1 84 85 86
7 1 64 65 66
8 1 51 52 53
9 1 55 56 57
10 1 56 57 58
11 1 57 58 59
12 1 52 53 54
13 1 50 51 52
14 1 54 55 56
15 1 53 54 55
16 1 49 50 51
17 1 48 49 50
18 1 47 48 49
19 1 46 47 48
20 1 58 59 60
21 1 88 89 90
22 1 87 88 89
23 1 89 90 91
24 1 70 71 72
25 1 69 70 71
26 1 71 72 73
27 1 74 75 76
28 1 73 74 75
29 1 37 38 39
30 1 72 73 74
31 1 36 37 38
32 1 92 93 94
33 1 68 69 70
34 1 40 41 42
35 1 39 40 41
36 1 65 66 67
37 1 67 68 69
38 1 66 67 68
39 1 38 39 40
40 1 93 94 95
41 1 94 95 96
42 1 41 42 43
43 1 42 43 44
44 1 43 44 45
45 1 63 64 65
46 1 45 46 47
47 1 62 63 64
48 1 61 62 63
49 1 44 45 46
50 1 59 60 61
51 1 60 61 62
52 1 91 92 93
53 1 90 91 92
54 1 12 13 14
55 1 11 12 13
56 1 13 14 15
57 1 14 15 16
58 1 15 16 17
59 1 16 17 18
60 1 17 18 19
61 1 18 19 20
62 1 22 23 24
63 1 21 22 23
64 1 23 24 25
65 1 83 84 85
66 1 2 3 4
67 1 24 25 26
68 1 1 2 3
69 1 25 26 27
70 1 26 27 28
71 1 27 28 29
72 1 30 31 32
73 1 29 30 31
74 1 28 29 30
75 1 101 102 103
76 1 102 103 104
77 1 100 101 102
78 1 99 100 101
79 1 107 108 109
80 1 109 110 111
81 1 108 109 110
82 1 110 111 112
83 1 104 105 106
84 1 103 104 105
85 1 82 83 84
86 1 81 82 83
87 1 80 81 82
88 1 113 114 115
89 1 112 113 114
90 1 111 112 113
91 1 77 78 79
92 1 78 79 80
93 1 79 80 81
94 1 114 115 116
95 1 20 21 22
96 1 19 20 21
97 1 98 99 100
98 1 8 9 10
99 1 7 8 9
100 1 4 5 6
101 1 3 4 5
102 1 97 98 99
103 1 6 7 8
104 1 5 6 7
