LAMMPS data file via write_data, version 29 Aug 2024, timestep = 105000000, units = real

5066 atoms
4 atom types
4565 bonds
1 bond types
4064 angles
1 angle types

-640 640 xlo xhi
-640 640 ylo yhi
-640 640 zlo zhi

Masses

1 329.2
2 305.2
3 345.2
4 306.2

Bond Coeffs # harmonic

1 7.5 5.9

Angle Coeffs # harmonic

1 5 150

Atoms # full

4717 467 2 0 -438.97401493050666 -629.3212302438913 -628.9421876396899 0 0 1
4718 467 3 0 -436.24232937539955 -624.0569016774384 -628.6352733911164 0 0 1
4724 467 1 0 -417.8779975815776 -624.9521380079923 -627.4830737882971 0 0 1
4723 467 1 0 -417.5968649884767 -625.9964974185905 -633.4937975726626 0 0 1
4722 467 4 0 -419.7298397459518 -626.6308493822173 -638.4585465981881 0 0 1
4725 467 3 0 -414.6669653867442 -623.3427550654308 -623.3305855633114 0 0 1
4719 467 3 0 -431.33844185831657 -621.3726983977647 -631.016859207198 0 0 1
4720 467 4 0 -429.06038931464127 -622.2872274613059 -636.4322845288157 0 0 1
1677 163 2 0 -103.61745291395465 -357.9288302345615 -631.4195210409598 0 0 0
1678 163 3 0 -103.50351883949122 -352.03730040339747 -632.106739869358 0 0 0
1679 163 3 0 -103.42979181593533 -347.73433281634124 -635.8161153564638 0 0 0
4726 467 1 0 -413.05474909583705 -619.0361598917668 -619.923770500392 0 0 1
3786 373 1 0 -5.2296204004957225 -579.8271442471603 -609.0103356633946 0 0 1
4301 425 3 0 -51.436151472670026 -350.8569481437312 -581.8718912836008 0 0 0
4302 425 4 0 -57.28670842081304 -351.03017850947094 -579.9460707364263 0 0 0
4303 425 1 0 -60.71692257508635 -350.40129069937126 -574.6625647261242 0 0 0
4298 425 3 0 -40.092558280267724 -351.7919708207751 -571.3807185541857 0 0 0
4300 425 4 0 -47.10834576039074 -348.31542262038215 -579.4149198068588 0 0 0
4299 425 3 0 -43.02461230937323 -348.73465606410105 -575.3150715191265 0 0 0
3477 343 2 0 -158.96606603891001 -369.62121217484696 -562.3644495702293 0 0 1
3478 343 3 0 -160.75453310905158 -366.25428337980935 -557.3688416020987 0 0 1
4306 425 1 0 -56.547266116625174 -357.7094277983812 -561.4506846154563 0 0 0
4297 425 2 0 -36.8415519647692 -356.69132112644263 -571.1998968233638 0 0 0
4304 425 1 0 -59.86788025933783 -350.5579485184614 -568.8331847265669 0 0 0
4305 425 3 0 -57.258821697923224 -352.967433406473 -563.9577845141025 0 0 0
3053 300 1 0 -131.05339765808483 -572.8163177747608 -540.0306964886514 0 0 1
3056 300 1 0 -135.18511134149918 -563.2561591921275 -550.8333312371655 0 0 1
3054 300 1 0 -134.60771471201832 -568.5152749367775 -541.4313050694617 0 0 1
3055 300 3 0 -135.77032493346655 -564.534240879179 -545.4813444302957 0 0 1
3737 369 2 0 -46.58645173070999 -459.19639628412955 -543.984195855632 0 0 1
3738 369 3 0 -51.18610964247817 -462.26544415742984 -541.4098628424466 0 0 1
3479 343 3 0 -164.30323673941763 -367.3326741694957 -553.0270416481436 0 0 1
3480 343 4 0 -162.8148358213439 -369.42536235014296 -547.6822522103676 0 0 1
3481 343 3 0 -166.16760792329458 -368.7965061111712 -542.5568486928968 0 0 1
3052 300 4 0 -130.1202450180774 -578.3563552002088 -539.320769628453 0 0 1
3051 300 3 0 -126.54752072587574 -582.7572944738383 -538.3872803232491 0 0 1
3050 300 4 0 -121.78762032200372 -583.7605565459661 -535.5837101919969 0 0 1
3049 300 3 0 -117.25388384399011 -580.1964486738838 -534.6642711573198 0 0 1
3048 300 3 0 -113.26311209579328 -580.9588167210478 -530.2428693873702 0 0 1
3047 300 2 0 -113.36045311665117 -583.7028165708546 -525.0041403794097 0 0 1
3739 369 3 0 -52.425229236817934 -462.7884747769611 -535.7402341890274 0 0 1
3740 369 4 0 -51.98319318954497 -462.73541468684215 -529.6072448724096 0 0 1
3741 369 3 0 -50.59179192483669 -467.0290055226689 -525.8174102354142 0 0 1
3484 343 1 0 -163.43113715164807 -368.93312190546106 -527.6320205911798 0 0 1
3483 343 1 0 -166.32390622229448 -371.7454575730576 -531.9178379231303 0 0 1
3482 343 4 0 -167.7517958785595 -371.33965936283846 -537.5844778477107 0 0 1
3485 343 3 0 -159.20192423925738 -364.839854218782 -526.1811775720915 0 0 1
3516 346 1 0 -218.6931590511661 -474.8044935988641 -515.7885036622185 0 0 0
3515 346 3 0 -218.53011132057765 -468.8431172522525 -515.8971249121777 0 0 0
3514 346 1 0 -218.99032092503188 -463.4591399868798 -513.2960797491924 0 0 0
3513 346 1 0 -218.1825117878276 -457.5383684391837 -512.3713517371483 0 0 0
3743 369 1 0 -57.493393047861844 -468.0349240847763 -517.3501771385289 0 0 1
3744 369 1 0 -59.657246965984626 -464.1399848736236 -513.0238348948812 0 0 1
3742 369 4 0 -52.767011462128345 -468.8073015598914 -520.7731936645655 0 0 1
3745 369 3 0 -60.515985248422936 -458.9287373753662 -509.96976441823114 0 0 1
3512 346 4 0 -217.87685299557435 -453.3993359928779 -508.21389853145166 0 0 0
3511 346 3 0 -219.3099016093468 -448.1572583631876 -507.4683240148568 0 0 0
3509 346 3 0 -228.51273125244447 -442.2423921361813 -510.3681804978589 0 0 0
3510 346 4 0 -224.23008106131815 -444.84459574058593 -507.44962184235385 0 0 0
3508 346 3 0 -230.8934268288486 -437.22436449454267 -512.1638789980028 0 0 0
3507 346 2 0 -231.56901608284022 -432.00238571736185 -514.6679318780879 0 0 0
4048 400 3 0 -618.573566899509 -328.29648404929094 -329.3542476952747 0 0 0
3486 343 1 0 -155.11658224547958 -362.2702836046888 -522.9107498205882 0 0 1
3746 369 1 0 -62.258850234632966 -455.9961048417207 -505.1420062764466 0 0 1
1920 187 4 0 -506.63093760861403 -326.23010219759806 -489.7491546418307 0 1 1
1919 187 3 0 -505.06631749601223 -332.0243254343812 -489.6586800464949 0 1 1
4284 423 1 0 -566.8089252167068 -473.1551932986511 -476.20519189040226 0 0 0
4285 423 3 0 -564.2774776347325 -475.1487465616505 -481.5849936895729 0 0 0
4286 423 1 0 -559.3807067649512 -475.84275069197827 -484.18304485169404 0 0 0
4282 423 4 0 -574.2486605815943 -466.8483405407094 -470.40161508901696 0 0 0
4283 423 1 0 -571.545301025691 -471.93727981420204 -472.2992828796384 0 0 0
1917 187 2 0 -500.5415498107127 -335.38611060218676 -480.7903269621854 0 1 1
1918 187 3 0 -502.4288786483607 -335.7171517307372 -486.32725446333814 0 1 1
4281 423 3 0 -572.7117367402406 -461.5582597352288 -468.6542621195037 0 0 0
4280 423 4 0 -567.6460320515829 -460.4294588772488 -465.82718234388005 0 0 0
4279 423 3 0 -563.5526729346668 -462.32979402488866 -461.4772846798274 0 0 0
4278 423 3 0 -559.3852070125703 -466.4874717588245 -460.23965177992903 0 0 0
4277 423 2 0 -554.354213448539 -469.2516152927684 -462.633183617538 0 0 0
3295 324 3 0 -576.0042042307398 -502.18728162167696 -422.17042044970776 1 0 0
3296 324 1 0 -577.8673494511647 -503.482885566996 -427.65165121596993 1 0 0
3287 324 2 0 -552.88856515559 -468.0417760432516 -420.06361233134294 1 0 0
1279 123 3 0 -378.3298008429854 -340.3561855414927 -422.5522817758302 1 0 0
1278 123 3 0 -379.29401994791556 -346.03557609926344 -423.6170644661797 1 0 0
1277 123 2 0 -381.7632551811 -349.600715995771 -419.51718753118104 1 0 0
3294 324 1 0 -573.1020990797175 -498.8621066916209 -418.7089771861856 1 0 0
3293 324 1 0 -571.3711267746241 -494.50532922005357 -414.70743550203963 1 0 0
3292 324 4 0 -571.1505584406665 -488.495397875794 -414.39152693420533 1 0 0
3291 324 3 0 -568.5477981002343 -483.27190071947985 -415.32798051759056 1 0 0
3290 324 4 0 -564.7643566770834 -478.9584490815846 -416.0523544710333 1 0 0
3289 324 3 0 -561.0177791478569 -475.702607313985 -419.30741993702463 1 0 0
3288 324 3 0 -555.7929197238342 -472.95883727195286 -420.2132509562561 1 0 0
3783 373 1 0 -0.19690283411853982 -569.3508087501417 -616.9312879348042 0 0 1
1280 123 4 0 -380.04995796494154 -334.9725525767635 -419.9008232971357 1 0 0
1282 123 4 0 -380.24413597172725 -325.1715283265155 -416.73937805541254 1 0 0
1281 123 3 0 -377.6338928300487 -330.58165202369673 -416.93458993832667 1 0 0
3719 367 3 0 -22.457709815922325 -379.4099852104854 -352.05802843373095 0 0 0
3717 367 2 0 -22.815074156520488 -389.24068582040644 -350.5535392865926 0 0 0
3718 367 3 0 -22.925849110267016 -383.8466490823026 -348.45547199932474 0 0 0
3720 367 4 0 -20.93004318986148 -373.5055204085995 -351.2003309084583 0 0 0
3726 367 1 0 -42.10109742156912 -364.8661571780485 -341.7757088613396 0 0 0
3725 367 3 0 -38.66746534441114 -360.02038951009644 -342.37309232371933 0 0 0
3724 367 1 0 -34.76326343966168 -359.39102870195524 -346.8431672216254 0 0 0
3721 367 3 0 -22.64551734553479 -367.9880381990097 -349.54358546017727 0 0 0
3723 367 1 0 -30.531186358926988 -361.52036671550184 -350.23803674635144 0 0 0
3722 367 4 0 -24.771498023512855 -362.7429615460399 -349.7798353122209 0 0 0
2537 249 2 0 -255.58375114720485 -460.8028303020675 -327.8485673758557 0 0 0
2538 249 3 0 -255.36380788643217 -462.9208953884892 -322.23354352169724 0 0 0
4049 400 3 0 -615.7324826946426 -325.21207120638803 -325.7674221215399 0 0 0
4047 400 2 0 -620.9925058858053 -333.75920571524335 -329.3897672326727 0 0 0
4050 400 4 0 -611.0916352142475 -321.86289873877433 -324.7293133165879 0 0 0
3785 373 3 0 -0.5967000582120802 -576.5719205504041 -608.6145491625653 0 0 1
1921 187 3 0 -508.5399796037645 -321.6140322529634 -492.86922132276794 0 1 1
2460 241 4 0 -570.388460624104 -639.4977833447466 -431.76496627118087 0 0 0
4721 467 3 0 -425.3635908788224 -625.1765040736668 -639.673971106671 0 0 1
517 47 2 0 -314.6482669531042 -517.2390099107135 -303.2797052228562 0 1 0
524 47 1 0 -282.6554018979474 -510.64015235170734 -303.18254127957005 0 1 0
526 47 1 0 -278.0850076250974 -512.3942964434749 -314.14937057595256 0 1 0
525 47 3 0 -280.5511502642211 -512.109459684304 -308.4969115842502 0 1 0
2541 249 3 0 -248.47023757717167 -468.5688809861937 -308.9676077862482 0 0 0
2539 249 3 0 -255.3189272281755 -467.1093359822848 -318.0487511941839 0 0 0
2540 249 4 0 -251.6930578498382 -469.30079224270105 -314.03193313840956 0 0 0
2542 249 4 0 -243.02679940872565 -468.1972012982102 -306.4904570223795 0 0 0
2543 249 1 0 -237.32047406577064 -469.162140184017 -307.7369456484096 0 0 0
2544 249 1 0 -231.71160429444464 -468.18761990745344 -306.07571213701635 0 0 0
518 47 3 0 -311.1883801549645 -512.8085301140001 -301.3553392862269 0 1 0
519 47 3 0 -307.612779461258 -511.20966476433233 -296.9805179571058 0 1 0
522 47 4 0 -292.2132432911472 -512.8385684818938 -298.75367802971414 0 1 0
520 47 4 0 -303.05175906600476 -512.5585766297964 -293.92791535267594 0 1 0
521 47 3 0 -297.31121501867625 -513.0145937413632 -295.5403513477224 0 1 0
523 47 1 0 -286.9171300024897 -510.56884492046845 -299.305603804128 0 1 0
2545 249 3 0 -229.44886664194647 -466.1079337193309 -301.2588838047452 0 0 0
2546 249 1 0 -228.78593104000112 -463.2128826557622 -295.8992665769927 0 0 0
587 54 2 0 -506.79857968273245 -440.2875442160503 -302.37276740176657 0 0 0
590 54 4 0 -508.3309620001078 -447.2276097059362 -287.6016997128911 0 0 0
588 54 3 0 -507.9607028550098 -443.81393981625126 -297.63479551263634 0 0 0
589 54 3 0 -508.7225298741432 -443.4472290997031 -291.95924627558156 0 0 0
2766 271 1 0 -312.0297534196579 -363.389384904638 -289.7455821883972 0 0 0
2765 271 3 0 -311.5270169631431 -367.837908402939 -286.1747182593221 0 0 0
592 54 4 0 -507.26040951952274 -454.9524507826277 -280.431401390755 0 0 0
593 54 1 0 -503.5140861035971 -454.46672593131944 -275.47504807394006 0 0 0
591 54 3 0 -509.5991993785595 -452.48692315629586 -284.86054414074107 0 0 0
594 54 1 0 -502.2463050896913 -450.9487448517741 -270.7729289256479 0 0 0
4238 419 3 0 -140.51768149014052 -421.1722516549321 -282.4561456450303 1 0 0
4239 419 3 0 -135.9162784447673 -425.285823666572 -281.79076412128217 1 0 0
4240 419 4 0 -130.2613172435312 -425.46931663161394 -283.17639578220087 1 0 0
4241 419 3 0 -125.44923311698261 -423.8679700542674 -279.9317265296504 1 0 0
4242 419 4 0 -123.63052538030242 -420.149076370256 -275.93191113298144 1 0 0
4237 419 2 0 -145.76960034672874 -419.8084691121189 -284.732984598848 1 0 0
4243 419 1 0 -120.55608640793693 -419.39441742296935 -271.0031311438064 1 0 0
2764 271 1 0 -307.31199076732844 -369.5627810183535 -282.1592459377484 0 0 0
2763 271 1 0 -303.05048111651786 -368.9938356838545 -278.05857497812184 0 0 0
2762 271 4 0 -298.4461682637336 -366.49923099475404 -274.6826493970923 0 0 0
2761 271 3 0 -294.55232063692915 -362.24989055200155 -274.09444863544536 0 0 0
2760 271 4 0 -289.4279278972427 -360.4025012319328 -270.94669868899445 0 0 0
2759 271 3 0 -284.8956121634701 -357.30388431237094 -269.35509717955324 0 0 0
596 54 1 0 -499.8955088631536 -448.6490317388283 -259.79583376267516 0 0 0
595 54 3 0 -500.60303792090707 -450.17671165796565 -265.11428360276653 0 0 0
576 52 1 0 -528.7751259186334 -411.83932250194084 -266.5525514426352 1 0 0
575 52 3 0 -529.9078540447443 -415.4318992745529 -262.143703717131 1 0 0
574 52 1 0 -527.2734703392276 -415.8228680811638 -256.6245339978372 1 0 0
4244 419 1 0 -115.05214958178912 -418.07824796336973 -268.42968952359206 1 0 0
4245 419 3 0 -108.9703396518482 -417.0933313954546 -268.70946088849854 1 0 0
4246 419 1 0 -105.04258811655302 -413.669172747337 -266.1030826052785 1 0 0
2758 271 3 0 -284.8114273405424 -352.8550308477702 -265.4447339468269 0 0 0
2757 271 2 0 -282.6187920112121 -347.46865279887464 -265.83683571787367 0 0 0
2977 293 2 0 -231.46299699398187 -503.5252116635682 -242.6104767989817 0 1 0
2978 293 3 0 -227.5715884582949 -499.7727604946419 -240.26290711526877 0 1 0
2979 293 3 0 -223.39609988944213 -498.33579085219475 -236.69999121469837 0 1 0
1246 119 1 0 -217.20552561496208 -496.22353427081447 -251.43100400053504 0 0 1
1245 119 3 0 -216.96235438236323 -491.50546765872355 -247.64490501465443 0 0 1
1244 119 1 0 -218.21358913355417 -487.0475879587001 -244.24813845843687 0 0 1
1243 119 1 0 -222.1253825807286 -486.0776093927993 -239.66913294477442 0 0 1
1242 119 4 0 -227.0020686414569 -488.2271345205209 -236.42859361102776 0 0 1
573 52 1 0 -524.7561957059784 -414.1161235454729 -251.18492518294403 1 0 0
572 52 4 0 -523.042650230363 -414.91892367692384 -245.66019072596586 1 0 0
571 52 3 0 -518.5721274664708 -414.6892158452635 -241.85254143516488 1 0 0
570 52 4 0 -516.7030743106293 -417.15307861141895 -237.0814049672315 1 0 0
3702 365 4 0 -634.5199829645018 -402.71967911887026 -242.57715132044876 0 0 0
3703 365 1 0 -632.3325513329805 -397.8837180070176 -239.66063036938675 0 0 0
3701 365 3 0 -639.9505898558726 -403.4501623732571 -245.48903286478748 0 0 0
2244 219 1 0 -18.561103746259047 -351.38762913684315 -245.4909344017506 0 0 0
2243 219 1 0 -15.88463137389691 -355.5486116741812 -248.61913330284045 0 0 0
2242 219 4 0 -10.481965079087255 -358.8196286394352 -247.90201821332238 0 0 0
2241 219 3 0 -7.541135294017847 -363.5833649100667 -245.48979400003427 0 0 0
2240 219 4 0 -3.1802616167502893 -365.38488920679026 -241.53643845341887 0 0 0
2246 219 1 0 -28.369980904895836 -347.5005998238298 -241.5261011130315 0 0 0
2245 219 3 0 -23.92036776207485 -349.490219327814 -245.15081429981717 0 0 0
2986 293 1 0 -207.55241662385046 -527.8281246084714 -229.9619320702967 0 1 0
2984 293 1 0 -213.01688878465026 -518.1723028901428 -226.98378617077952 0 1 0
2983 293 1 0 -216.18501201931218 -513.2428027334818 -227.8415330125149 0 1 0
2985 293 3 0 -211.41243778407497 -523.6425141278775 -229.00317492473266 0 1 0
2982 293 4 0 -216.66594341025694 -507.595356374929 -226.61276555428324 0 1 0
2980 293 4 0 -220.66993335795894 -499.4440023395412 -231.58911483895506 0 1 0
2981 293 3 0 -216.56588641046332 -502.8485279668321 -229.8499915203742 0 1 0
1241 119 3 0 -229.1802422713939 -486.5036075192217 -231.50637892157613 0 0 1
1240 119 4 0 -226.45026225133654 -484.0975861692664 -227.01250186823734 0 0 1
1239 119 3 0 -222.8728228675076 -479.8680397598845 -225.0492850393443 0 0 1
1238 119 3 0 -224.40626456408762 -476.35290628157844 -220.44350250892143 0 0 1
567 52 2 0 -516.8423480320815 -422.3431408051728 -221.3099871000178 1 0 0
569 52 3 0 -516.1064038359315 -416.05415035359255 -231.52968134097634 1 0 0
568 52 3 0 -515.1262886114104 -418.37331496115627 -225.96842938110711 1 0 0
3704 365 1 0 -629.5416435024001 -394.1847529515142 -236.38606630374994 0 0 0
3705 365 3 0 -625.4637263974853 -395.0253925133495 -232.69639294966558 0 0 0
3706 365 1 0 -623.2029186128785 -396.3925154460028 -227.72312504049134 0 0 0
2238 219 3 0 -3.665090236347021 -370.29323390748306 -231.21180200262384 0 0 0
2237 219 2 0 -8.363819457650939 -372.8509294520229 -228.50852231137046 0 0 0
2239 219 3 0 -2.3115705465116205 -367.0228943294398 -236.17465670467496 0 0 0
1237 119 2 0 -226.61602995270593 -475.23714482693924 -215.44970206504044 0 0 1
2713 266 1 0 -205.05769156330499 -629.2153868890377 -195.13261401089886 0 1 0
2712 266 4 0 -203.14492780322922 -632.8020963074696 -191.23585479242527 0 1 0
2714 266 1 0 -206.20380374457164 -623.3016876204719 -196.71150615091847 0 1 0
2711 266 3 0 -203.50994813497238 -638.1867696295049 -189.1585866302401 0 1 0
2715 266 3 0 -202.86053314236406 -618.9946147320969 -198.98604572166917 0 1 0
2716 266 1 0 -200.71321840830572 -613.5130899153063 -198.54301788284639 0 1 0
3297 325 2 0 -203.40199330985146 -364.4568414250655 -169.011310702064 0 1 0
3298 325 3 0 -198.99357388270093 -365.3209819826033 -165.45412133707254 0 1 0
3299 325 3 0 -194.80045807444282 -367.14918314002443 -162.0989561572451 0 1 0
3300 325 4 0 -191.33455352993298 -363.6752572137192 -158.67979163591866 0 1 0
3301 325 3 0 -189.28693647156408 -362.1600322212451 -153.22868641772388 0 1 0
3305 325 3 0 -174.3402670731412 -372.7089826505651 -143.86677084451605 0 1 0
3306 325 1 0 -169.41636551065818 -374.26764103003956 -146.6562953611031 0 1 0
3302 325 4 0 -184.13505470595425 -361.3474600701177 -150.72250163023278 0 1 0
3304 325 1 0 -176.3222125052197 -367.2282455685317 -144.83006548584174 0 1 0
3303 325 1 0 -181.1355331162042 -364.50066428624785 -147.09473879605707 0 1 0
10 1 1 0 -393.77920995022373 -448.2562752778971 -131.107549718624 0 0 0
9 1 3 0 -397.1039823012682 -443.43806889771275 -130.35827157063179 0 0 0
8 1 1 0 -398.29187455431764 -437.8591764495343 -131.18476146462496 0 0 0
7 1 1 0 -398.3008890521058 -432.2645103950881 -128.72384100007798 0 0 0
6 1 4 0 -398.5902860505997 -429.8561406160761 -123.33356141496338 0 0 0
5 1 3 0 -401.16757112102584 -426.0609001476287 -119.80775514127504 0 0 0
917 87 2 0 -147.55679681075728 -369.7592913561079 -119.60023421929772 0 0 0
4 1 4 0 -406.49607322946326 -425.26459247030937 -117.05904781092198 0 0 0
3 1 3 0 -409.94975690835105 -423.3922475693501 -112.96575238257626 0 0 0
2 1 3 0 -414.3272982681063 -422.109610410707 -108.76570168591304 0 0 0
1 1 2 0 -420.2056247900455 -421.5847315665213 -108.49417898154782 0 0 0
922 87 4 0 -165.09317460065475 -370.09913659773576 -99.88313804364603 0 0 0
921 87 3 0 -161.79161166103418 -368.10400709153396 -104.51024241525035 0 0 0
920 87 4 0 -156.9904705543741 -370.8694492517596 -107.17987772115957 0 0 0
919 87 3 0 -151.82983588574166 -369.06119110340535 -109.73767742741852 0 0 0
918 87 3 0 -148.22312548728058 -367.8159571034267 -114.26197112174256 0 0 0
925 87 3 0 -160.25571701353581 -374.75261317989634 -85.48474067024382 0 0 0
924 87 1 0 -163.7350042204558 -371.63606597459716 -89.33281996519268 0 0 0
923 87 1 0 -165.8511206013933 -369.2201965834604 -94.53342604795672 0 0 0
4358 431 3 0 -4.294070943551636 -593.7633929409067 -67.29987516749921 0 0 0
926 87 1 0 -158.4974124257457 -379.6886531634746 -82.64722399750664 0 0 0
4357 431 2 0 -6.002048456318278 -597.374202619927 -63.11404236015878 0 0 0
4364 431 1 0 -5.679016693867779 -570.8058988444116 -62.226645538062776 0 0 0
4363 431 1 0 -0.19891336184258143 -572.3191722424646 -63.34087417404729 0 0 0
4366 431 1 0 -14.955129623865718 -566.9056712514288 -67.13676511668572 0 0 0
4365 431 3 0 -11.012706844356138 -569.5416112934644 -64.28796784343822 0 0 0
2297 225 2 0 -145.55303243464743 -438.61375650314125 -43.84430523685258 0 0 0
2298 225 3 0 -140.16403164948576 -438.58932704833467 -41.0845854648683 0 0 0
2299 225 3 0 -134.6196194033019 -435.6489668201575 -41.03085394700613 0 0 0
2300 225 4 0 -131.30229957557043 -433.5476425834321 -36.62466447758595 0 0 0
2301 225 3 0 -126.49839337041564 -430.7352730194136 -35.163065890685665 0 0 0
2302 225 4 0 -122.98020779205993 -425.5009498988173 -35.40396747030935 0 0 0
2303 225 1 0 -122.98615769309185 -420.17778440486876 -37.4141677076805 0 0 0
2304 225 1 0 -121.60393324316351 -415.9095602569418 -41.47309947360594 0 0 0
2305 225 3 0 -118.22310810431276 -414.32679753107084 -46.116944149701155 0 0 0
2306 225 1 0 -116.71183085676795 -414.1726637781489 -52.16785019640594 0 0 0
566 51 1 0 -463.42870375290795 -606.5743915564576 -30.281968503244407 0 0 0
563 51 1 0 -459.01165740818254 -592.1185583248407 -24.60099809171303 0 0 0
564 51 1 0 -462.3223163206353 -596.8075706151382 -25.888929952181538 0 0 0
565 51 3 0 -463.64563115096377 -600.5415841067896 -30.49749482231182 0 0 0
562 51 4 0 -453.2482381707838 -591.7288616314281 -22.71107511067138 0 0 0
561 51 3 0 -452.0498116996866 -593.4752322226552 -17.08916480936265 0 0 0
559 51 3 0 -452.25659315590127 -596.5029487214179 -6.716871521951842 0 0 0
560 51 4 0 -451.407938897236 -596.6822617189952 -12.628314056277521 0 0 0
558 51 3 0 -449.5269532225897 -595.1818719179911 -1.332450041966284 0 0 0
557 51 2 0 -444.38574399754043 -597.3477336660472 1.041080842987425 0 0 0
3566 351 1 0 -190.34730318801414 -432.2573720808696 8.713864472007758 0 0 0
3565 351 3 0 -185.01391281303987 -429.9358163310222 9.383236436857601 0 0 0
3564 351 1 0 -179.20357836785732 -431.6207378840486 9.488118491856675 0 0 0
3563 351 1 0 -175.34018529102948 -432.2383534118359 13.751580272626237 0 0 0
4077 403 2 0 -244.92931158201716 -376.9126249214245 9.235015987244871 1 0 0
4078 403 3 0 -246.39195751278038 -375.7449181641866 15.077214934500532 1 0 0
3562 351 4 0 -174.84493924820165 -429.038017126732 19.026900484413282 0 0 0
3561 351 3 0 -176.97214943097288 -427.3049266204871 24.68793137521171 0 0 0
3560 351 4 0 -177.38308853025757 -422.6673713295267 29.040747879174827 0 0 0
3559 351 3 0 -179.32359190982535 -417.19208631314444 28.63894781510504 0 0 0
3558 351 3 0 -182.28897271051468 -413.5062465705777 32.206041351237936 0 0 0
4082 403 4 0 -262.925603421346 -377.74047420982146 29.750103836599504 1 0 0
4081 403 3 0 -260.3008026493651 -376.4089652766873 24.82501272405896 1 0 0
4080 403 4 0 -255.07692232106106 -377.79684393616753 21.96079651470165 1 0 0
4079 403 3 0 -249.28100485538934 -376.98300428278975 19.829221180118807 1 0 0
3557 351 2 0 -187.4287685708934 -415.095926407171 34.571474275447194 0 0 0
4086 403 1 0 -277.3426720492778 -386.4768936981287 35.606627913831666 1 0 0
4085 403 3 0 -272.0009688927327 -386.271914678057 38.36940874191091 1 0 0
4083 403 1 0 -263.22492919454584 -381.53213402598783 34.33536567903635 1 0 0
4084 403 1 0 -266.41723544068697 -385.08215748473896 37.51812464659614 1 0 0
4926 487 1 0 -88.12229750797667 -620.9170764282026 60.483412461948475 -1 1 0
4925 487 3 0 -89.1416960881965 -616.0862838164167 63.68843482101037 -1 1 0
4924 487 1 0 -85.94690780684456 -611.3700876660614 64.19385604859431 -1 1 0
4923 487 1 0 -80.7670572858991 -608.1536701451238 62.004777699033625 -1 1 0
4922 487 4 0 -76.37546670069318 -603.9635418306012 61.96755807325165 -1 1 0
4921 487 3 0 -72.35300086951227 -601.0362648658813 58.975899842232046 -1 1 0
4920 487 4 0 -67.86460571184519 -597.4489546592405 59.21079560363306 -1 1 0
4919 487 3 0 -63.33300120883527 -595.7899595559138 63.1450301150721 -1 1 0
1823 177 1 0 -637.7506579009678 -559.0165145854171 59.07676890673882 0 1 0
1822 177 4 0 -637.3551967477317 -559.159561492996 65.0778852656699 0 1 0
1182 113 4 0 -509.2438408663184 -624.5733356863279 70.96784096453743 1 0 0
1183 113 1 0 -514.8933022652925 -624.7777971121774 71.39287275099574 1 0 0
1184 113 1 0 -520.5602644905549 -622.702213953392 71.6821397082218 1 0 0
1181 113 3 0 -503.57321982693276 -625.8770760754484 70.74686562885167 1 0 0
1179 113 3 0 -491.8834243505012 -626.9941674139945 70.79146588058207 1 0 0
1180 113 4 0 -497.46446195585395 -625.4097915570082 71.14588681415337 1 0 0
1177 113 2 0 -482.8192304325495 -625.5274104848305 77.64366356328101 1 0 0
1178 113 3 0 -486.687518587137 -625.356546422016 72.99338768615007 1 0 0
1186 113 1 0 -528.7185104415988 -616.9898292717518 76.813806364597 1 0 0
1185 113 3 0 -523.6899802985613 -618.2246332151184 74.27401403591946 1 0 0
4918 487 3 0 -60.617945580632906 -592.430992546757 67.27211838677393 -1 1 0
4917 487 2 0 -60.833281038391966 -587.5853400328393 70.4322318803686 -1 1 0
1821 177 3 0 -636.3497465568623 -555.698874176322 69.8441674702818 0 1 0
1820 177 4 0 -634.7981434032653 -553.9251993282223 75.40854535363314 0 1 0
1818 177 3 0 -629.615834178876 -543.8938078777265 77.53708962007121 0 1 0
1819 177 3 0 -631.9640909995597 -549.4177961424668 78.13238387275764 0 1 0
1817 177 2 0 -629.6384455992945 -538.1094142198708 79.17092002473737 0 1 0
2663 261 1 0 -53.584989143925064 -456.1680590824088 97.64161756961813 0 0 0
2662 261 4 0 -52.95263356926577 -453.0963803618196 92.48725073475282 0 0 0
2661 261 3 0 -51.094330426541575 -448.1029572016731 89.99899548058453 0 0 0
2660 261 4 0 -48.46569425706616 -443.45976436502997 92.67802651087017 0 0 0
2659 261 3 0 -44.080336760999884 -439.4317452785144 92.58980367244251 0 0 0
2658 261 3 0 -38.656793154238265 -437.4166944318833 91.12579192525112 0 0 0
2657 261 2 0 -34.58536757599253 -433.1840901661984 91.42098429609742 0 0 0
2665 261 3 0 -48.01443220162868 -462.4962457785272 104.8242538214488 0 0 0
2664 261 1 0 -52.326550582405666 -458.9165352477977 103.00581291373466 0 0 0
2666 261 1 0 -43.921534258201625 -464.6853459024119 108.19023564011657 0 0 0
1111 106 3 0 -383.2211020190585 -638.8702070210875 236.67955274480303 1 1 0
1112 106 4 0 -381.60425811276946 -633.7485046696266 239.42406338004292 1 1 0
1347 130 2 0 -459.2157170053196 -623.8469105283791 235.3125578143288 0 0 0
1113 106 1 0 -381.01092935003504 -627.8599500581906 238.23828367002818 1 1 0
1114 106 1 0 -383.25788396278256 -622.5647163621543 240.17338290347948 1 1 0
1348 130 3 0 -456.5155345126112 -623.3676492936911 240.70680370197186 0 0 0
1350 130 4 0 -456.0498703792384 -616.6112481293463 249.23674392386116 0 0 0
1349 130 3 0 -458.1213638460946 -619.8914009989793 245.09816467968457 0 0 0
1116 106 1 0 -393.3982534332062 -619.34917994091 238.3531282829813 1 1 0
1115 106 3 0 -387.948241802008 -619.2077507559201 240.99352741095504 1 1 0
1353 130 1 0 -450.6613384659172 -601.0795289827328 254.0965666609948 0 0 0
1356 130 1 0 -436.19914107863474 -594.9642362539831 252.3564995244786 0 0 0
90 4 4 0 -475.65045588055443 -505.8731741256975 251.8916887324686 0 1 0
91 4 3 0 -480.1154955370278 -508.0554613005582 254.95276622888508 0 1 0
176 12 1 0 -169.70123781741268 -510.61768267126666 251.86677511100078 0 1 0
89 4 3 0 -472.92867111297284 -502.2353093404641 248.45081988602217 0 1 0
88 4 3 0 -469.9480337601498 -497.384536860073 248.03977633835873 0 1 0
87 4 2 0 -468.4976656599482 -491.75046094934487 249.18333276029014 0 1 0
3976 392 1 0 -190.44250636332157 -473.19547971084813 250.78977385462068 0 0 -1
3967 392 2 0 -160.69804146248785 -459.00751661439824 247.33427506359573 0 0 -1
3968 392 3 0 -162.79297651089996 -456.37014586529045 252.50502839444866 0 0 -1
1351 130 3 0 -454.5502794899977 -610.9359410850006 251.23497380570805 0 0 0
1352 130 4 0 -454.91469676569324 -605.3931116797895 253.62911864281517 0 0 0
1355 130 3 0 -441.8758870254505 -594.1489230069103 254.3659349872215 0 0 0
1354 130 1 0 -446.36773207727623 -597.4118766014875 256.2260643245386 0 0 0
95 4 3 0 -476.4818599205383 -528.1624730093615 261.76531300068194 0 1 0
94 4 1 0 -480.20054911829095 -524.7632694737641 258.9896179461418 0 1 0
173 12 1 0 -174.53875175210294 -523.227059518772 261.7589578080278 0 1 0
172 12 4 0 -178.29224918252027 -526.1106347438472 265.3786117487233 0 1 0
93 4 1 0 -481.79302169729715 -519.3330482714662 257.10870548570796 0 1 0
92 4 4 0 -481.9766552607004 -513.7624865693 255.4877927908672 0 1 0
174 12 1 0 -173.73832389969598 -518.2303302854438 258.6572204634668 0 1 0
175 12 3 0 -170.56491150608886 -513.6305630745837 256.510882319091 0 1 0
3975 392 3 0 -185.4023235110421 -471.94365525721935 254.01297895415226 0 0 -1
3974 392 1 0 -183.23509863381653 -468.45649883926103 258.23958488237025 0 0 -1
3973 392 1 0 -181.48080946891332 -465.73333704668335 263.63868817587996 0 0 -1
3972 392 4 0 -177.48961528009914 -462.15439716365637 266.74637455825047 0 0 -1
3971 392 3 0 -173.623360456249 -458.044543710415 265.1600189435872 0 0 -1
3970 392 4 0 -170.17496990311884 -456.3933776723167 260.9831687334706 0 0 -1
3969 392 3 0 -167.82480543833563 -456.462208243582 255.7316865186568 0 0 -1
167 12 2 0 -180.956440947565 -545.4329371969804 281.5580424562028 0 1 0
168 12 3 0 -183.64492388295167 -539.954147551476 280.6418017675141 0 1 0
96 4 1 0 -473.9328058755101 -526.5597953241909 266.6498619298255 0 1 0
169 12 3 0 -181.0533684281961 -534.9678886407108 278.34130892082123 0 1 0
171 12 3 0 -179.40710253077168 -525.6097376643424 271.42974780709477 0 1 0
170 12 4 0 -180.71804421193258 -530.1610412562952 275.14550906455906 0 1 0
1393 134 1 0 -485.35739657166044 -320.5866488810268 284.0652228599135 1 0 -1
238 19 3 0 -335.79435313287036 -592.105601913737 302.6350257793885 0 0 0
237 19 2 0 -331.8361386941711 -588.7195663763792 299.6413740104058 0 0 0
4785 473 3 0 -496.65368431009244 -577.7351705775084 302.26958960886105 0 0 0
4786 473 1 0 -501.3474034173982 -578.8440494556146 305.7885675027149 0 0 0
4784 473 1 0 -493.85405717606835 -572.7416422236824 303.11313977210665 0 0 0
1391 134 3 0 -483.1258883731162 -328.58995121230777 291.4254001398437 1 0 -1
1390 134 4 0 -479.7746121543802 -327.06053298976866 295.9632751823969 1 0 -1
1392 134 4 0 -485.3585033765656 -323.6671565470264 288.97698925664776 1 0 -1
1389 134 3 0 -474.5870557192596 -324.18552570926374 296.08668279541706 1 0 -1
1388 134 3 0 -470.5996161772873 -327.06899922328034 298.89647910254365 1 0 -1
1387 134 2 0 -466.9817103515013 -331.22941596638157 298.4552615374178 1 0 -1
2853 280 1 0 -139.68252758819028 -635.9159738171458 318.15519994075225 0 0 0
2854 280 1 0 -139.96800662746088 -630.1375859052049 319.12342637135237 0 0 0
2855 280 3 0 -141.45343434937158 -624.3002438117622 317.70531047251694 0 0 0
240 19 4 0 -344.31871187127047 -592.5365900709494 310.12790134287 0 0 0