LAMMPS data file via write_data, version 29 Aug 2024, timestep = 105000000, units = real

566 atoms
4 atom types
515 bonds
1 bond types
464 angles
1 angle types

-100 100 xlo xhi
-100 100 ylo yhi
-100 100 zlo zhi

Masses

1 329.2
2 305.2
3 345.2
4 306.2

Bond Coeffs # harmonic

1 7.5 5.9

Angle Coeffs # harmonic

1 5 150

Atoms # full

82 3 4 0 -84.81174149811066 -90.042124862442 -94.12599177158975 1 0 -1
80 3 4 0 -95.14932899512517 -94.46945867214731 -97.26645122606044 1 0 -1
81 3 3 0 -89.60103757217018 -92.9200360926478 -96.05830705356696 1 0 -1
83 3 1 0 -80.94239407311692 -90.29210386800276 -89.91151892155393 1 0 -1
84 3 1 0 -78.39408309599456 -90.22322366563839 -84.66013537390701 1 0 -1
24 2 3 0 -6.515819499374785 -15.564734912440635 -12.39921626289153 0 0 0
433 38 1 0 -82.09239347570092 -1.3685998599184162 -41.584160871746626 -1 -1 2
357 31 2 0 -6.154555846257638 -82.65849904421405 -81.17000074806529 1 -2 -1
467 42 2 0 -53.11248747826724 -12.246455630361993 -95.86002019719814 4 2 4
85 3 3 0 -77.10689716554661 -85.43548988502528 -82.14118222290473 1 0 -1
86 3 1 0 -76.8393080888309 -79.78140134042688 -81.18564125797093 1 0 -1
142 9 4 0 -72.51371821978464 -71.97710947205644 -78.51899212549371 2 -1 -2
143 9 1 0 -75.00256270041038 -68.25264012420516 -74.53025954719371 2 -1 -2
144 9 1 0 -76.98613885854103 -66.95017691203361 -69.07672327221078 2 -1 -2
141 9 3 0 -67.11483476711037 -74.64743078009323 -78.27512898445438 2 -1 -2
140 9 4 0 -62.41570557825726 -75.57475536553699 -81.51208502874472 2 -1 -2
139 9 3 0 -56.6251566085414 -77.10992635312083 -79.94877911899297 2 -1 -2
138 9 3 0 -50.75096633481731 -76.73381847045755 -79.60164406032101 2 -1 -2
137 9 2 0 -45.870017696470825 -76.2277728000224 -76.51424514002184 2 -1 -2
358 31 3 0 -3.886119755857912 -77.24834976333796 -79.41749156825936 1 -2 -1
359 31 3 0 -4.863314636121857 -71.6553093372958 -78.29525789822834 1 -2 -1
360 31 4 0 -8.424206409700863 -66.75498038897389 -77.26281435799346 1 -2 -1
361 31 3 0 -11.471579996954977 -64.2409965763814 -72.49084550437999 1 -2 -1
145 9 3 0 -77.23829046658423 -68.63537770234355 -63.56411573713858 2 -1 -2
146 9 1 0 -74.63807574804467 -72.96104105219091 -60.52554859955832 2 -1 -2
547 50 2 0 -64.50949174120719 -74.08147175600195 -51.3949207544094 1 2 0
548 50 3 0 -66.23171396859041 -70.47949457189868 -55.55939639159865 1 2 0
551 50 3 0 -74.41954936527348 -58.15384177445127 -59.55126365342957 1 2 0
550 50 4 0 -70.29230406424557 -61.53328723964378 -61.59795626480411 1 2 0
552 50 4 0 -75.11791114133676 -53.21026078461893 -56.286042246792626 1 2 0
553 50 1 0 -77.4100733814247 -47.867313389401275 -56.49733378502658 1 2 0
549 50 3 0 -67.0266870404122 -65.08159600270085 -58.39671268349162 1 2 0
362 31 4 0 -10.25600074195843 -63.80309101614845 -66.79732869745845 1 -2 -1
363 31 1 0 -8.853147987783814 -60.29938144383413 -62.605916705213154 1 -2 -1
364 31 1 0 -5.008917178504798 -56.60512569998427 -59.83064455584569 1 -2 -1
365 31 3 0 -3.5899706663731403 -51.94876800067364 -56.11899499134783 1 -2 -1
555 50 3 0 -81.24776720308061 -41.146968675204995 -62.67333835340687 1 2 0
554 50 1 0 -82.21156902760909 -45.70144952027474 -59.2308801710615 1 2 0
556 50 1 0 -81.28800987972383 -38.37257003319428 -68.02831308648109 1 2 0
366 31 1 0 -3.892096765576251 -45.994144309682184 -56.11069100569634 1 -2 -1
267 22 2 0 -27.28959033972864 -46.91120932336732 -37.795775768906125 1 0 0
269 22 3 0 -21.825346760078354 -37.27268774845789 -38.45008890770272 1 0 0
268 22 3 0 -22.841656616373196 -43.11426070084109 -39.38367130272603 1 0 0
270 22 4 0 -17.170731900644427 -34.12182694089078 -39.80587855568686 1 0 0
271 22 3 0 -12.063028591978219 -31.357872212528417 -37.43734302053033 1 0 0
272 22 4 0 -7.152979819191902 -32.34936601022478 -34.33972298405012 1 0 0
273 22 1 0 -3.1317801221830135 -28.777568557611854 -32.60662971982685 1 0 0
434 38 1 0 -82.85364489678655 -7.221169955539525 -40.223862552757424 -1 -1 2
435 38 3 0 -80.92652794883837 -10.599618791365574 -36.39665211118767 -1 -1 2
108 6 3 0 -72.09612304807729 -82.34344561084974 -25.85952363139301 2 0 4
107 6 2 0 -66.50690678912453 -83.58941827094803 -27.17714425116378 2 0 4
111 6 3 0 -84.07710156088702 -76.53763281066527 -18.65246776932494 2 0 4
112 6 4 0 -89.57619590820264 -75.40098764904067 -17.251856116197285 2 0 4
113 6 1 0 -93.58774873692059 -79.66600378337905 -18.655779102089156 2 0 4
109 6 3 0 -74.02577416495276 -78.97044315024397 -21.58938892601963 2 0 4
110 6 4 0 -77.78784490721739 -76.70401201433206 -17.91947855867611 2 0 4
460 41 4 0 -81.93790236458453 -67.4135122848726 -23.348144039566773 -1 -1 -6
459 41 3 0 -87.75911569740929 -67.21725263312278 -24.219283727345513 -1 -1 -6
457 41 2 0 -92.53090103433445 -58.10460523947894 -20.054506776833033 -1 -1 -6
458 41 3 0 -91.4260902309395 -63.982519092412765 -21.338205032024945 -1 -1 -6
461 41 3 0 -78.1710246590138 -62.890520190437385 -23.241842698701355 -1 -1 -6
462 41 4 0 -77.04356160425037 -58.577262566750925 -19.26977990632016 -1 -1 -6
463 41 1 0 -72.86558178704456 -55.60943280289431 -16.84332256571079 -1 -1 -6
182 13 4 0 -0.937644763758897 -53.73512835304284 -19.289912382900628 0 3 2
183 13 1 0 -6.1526763584977155 -55.3507228000144 -16.480717032618568 0 3 2
29 2 4 0 -16.361529198862694 -35.94982429435162 -22.660867046129187 0 0 0
30 2 2 0 -14.079823941722124 -40.309892323002295 -19.535084390232743 0 0 0
31 2 4 0 -9.048902018271725 -41.9955508897769 -16.938908671478305 0 0 0
28 2 3 0 -18.294749053581768 -30.077520038134526 -22.728241014408397 0 0 0
27 2 2 0 -18.80191800472994 -24.633193664465516 -20.522748039444537 0 0 0
26 2 2 0 -16.266580121092115 -20.34757502509371 -17.223146339724213 0 0 0
74 2 3 0 -5.691784360565791 -24.904405222908846 -24.246391103985225 0 0 0
75 2 2 0 -6.360679081433828 -19.13247028090037 -25.49912818500086 0 0 0
73 2 3 0 -5.970971526463955 -28.761759521472445 -20.013279337703185 0 0 0
436 38 1 0 -81.36589511035582 -13.408828428613155 -31.173546404824126 -1 -1 2
535 48 3 0 -36.19348610866149 -2.1008908147646976 -20.375755417648158 0 -1 1
536 48 1 0 -33.20738203897276 -6.229329805420849 -17.43859703158438 0 -1 1
76 2 4 0 -3.713715963518151 -15.40243159131263 -29.112610908135142 0 0 0
25 2 2 0 -11.920072940482642 -17.441401138505167 -14.275218529051854 0 0 0
114 6 1 0 -98.04284319094002 -83.33800449212418 -18.031364178629946 2 0 4
416 36 1 0 -24.210399253464868 -83.42107648990557 -2.6493769457281364 -2 2 -1
464 41 1 0 -69.30414995614225 -57.29407406876291 -12.604976608531679 -1 -1 -6
466 41 1 0 -68.77651916318689 -67.56852040135134 -6.779448222606406 -1 -1 -6
465 41 3 0 -70.03634721723463 -62.872778416726426 -10.332662030458613 -1 -1 -6
186 13 1 0 -22.102833241224232 -53.17391689672548 -9.404515657121852 0 3 2
185 13 3 0 -16.60978978469641 -51.54661464120927 -11.916170950645116 0 3 2
184 13 1 0 -11.365984750063559 -53.454339672232756 -13.823286819140039 0 3 2
32 2 4 0 -6.369781027862291 -42.46885839288449 -11.596468037001646 0 0 0
33 2 1 0 -1.8860812788579313 -45.13295288682199 -8.741286631979897 0 0 0
69 2 1 0 -3.2055791110291985 -33.172556673771986 -1.313640142005202 0 0 0
70 2 2 0 -8.13569368819318 -31.53313494308 -4.005628681920506 0 0 0
71 2 1 0 -10.31508066876559 -30.049093441639823 -9.438166770627163 0 0 0
72 2 3 0 -7.538626295010857 -30.73171352210798 -14.358731945511359 0 0 0
23 2 1 0 -2.710844564673781 -14.172695436560074 -16.356698397467852 0 0 0
468 42 3 0 -52.25656515642116 -18.014463528965695 -97.50892048243512 4 2 4
196 14 1 0 -31.96057731297381 -99.53303413066176 -99.69075533942659 -2 2 1
415 36 3 0 -23.013134753943678 -85.10033841093438 2.925871407112453 -2 2 -1
414 36 1 0 -20.02872118355541 -82.8322586582442 7.3069645655473625 -2 2 -1
413 36 1 0 -21.332960067621933 -77.80177451523411 10.134470645482548 -2 2 -1
412 36 4 0 -21.254373069923023 -74.41381819235679 14.985294216593925 -2 2 -1
322 27 4 0 -57.06707618190304 -86.29885914761486 28.583909230321304 1 3 2
306 25 1 0 -2.5752658563385706 -88.08144576327719 22.374632163218816 0 1 -1
321 27 3 0 -59.50201407888207 -82.23964240661117 24.863810089196726 1 3 2
320 27 4 0 -60.12382952423731 -76.26613478036695 23.741915185607287 1 3 2
319 27 3 0 -58.637698364378586 -70.65545799015584 24.56805125127416 1 3 2
410 36 4 0 -26.360611965691092 -68.21392509361289 22.24726222130829 -2 2 -1
411 36 3 0 -25.732281863128055 -72.99136597125954 18.413795559045955 -2 2 -1
317 27 2 0 -54.39603820249558 -61.32498003502416 29.08941050479871 1 3 2
318 27 3 0 -55.71271588437731 -65.46619549931914 24.775852339533674 1 3 2
407 36 2 0 -33.72279346652986 -63.045738553849624 35.77830748221587 -2 2 -1
409 36 3 0 -30.3658674113733 -64.92634891286387 25.37625778488012 -2 2 -1
408 36 3 0 -31.0759041757099 -62.60727119637861 30.54096420188821 -2 2 -1
323 27 1 0 -52.54285343238663 -86.0033279012419 32.839701953476066 1 3 2
324 27 1 0 -46.80272748774486 -84.98315993073153 32.154323521375346 1 3 2
326 27 1 0 -35.98802876531202 -82.36918881337695 35.960936433625406 1 3 2
325 27 3 0 -41.60453077195467 -83.1107266259562 34.61521811921459 1 3 2
386 33 1 0 -83.0526277327849 -20.42503313917741 44.24706099765321 2 0 0
385 33 3 0 -83.27818901220068 -15.708822084386002 40.965638649612764 2 0 0
383 33 1 0 -83.97710990465711 -5.003963194717175 39.38471780891652 2 0 0
384 33 1 0 -84.34751601846578 -10.82543809582592 38.16641660531728 2 0 0
308 26 3 0 -93.74702944288514 -11.741664865861642 49.11899775408497 -3 4 1
307 26 2 0 -98.68440714448084 -8.78461705864135 47.570174304288514 -3 4 1
165 11 3 0 -29.221822837449675 -39.43542343447833 60.097638081454434 1 -1 0
164 11 1 0 -30.97239763402079 -35.076644583901235 63.3537019870827 1 -1 0
166 11 1 0 -25.771135768869744 -41.485518413808116 55.975385647087855 1 -1 0
313 26 1 0 -69.0262920583649 -18.059439687919365 58.04329866731261 -3 4 1
286 23 1 0 -50.5020032161785 -29.747762431453694 48.10422097356547 0 3 1
284 23 1 0 -41.37587089604239 -24.88204706136773 52.582633355477235 0 3 1
285 23 3 0 -46.15036062304441 -27.76511380774086 51.37245779969793 0 3 1
283 23 1 0 -37.29813086083118 -23.888783991039595 56.74564763784131 0 3 1
282 23 4 0 -31.473123426530893 -24.86783268315492 58.46730213554264 0 3 1
281 23 3 0 -27.048642121710536 -24.27595158898816 62.59448528782912 0 3 1
309 26 3 0 -88.32786671871725 -11.715034870590145 51.162674144267875 -3 4 1
310 26 4 0 -82.45658979820661 -13.283436854531212 50.75707814597699 -3 4 1
311 26 3 0 -77.11290791913439 -14.715684852661472 51.512928739846515 -3 4 1
312 26 4 0 -73.9781786426996 -17.987179230865383 55.34172867628688 -3 4 1
316 26 1 0 -52.862923964344844 -12.961120729217008 59.142906332428055 -3 4 1
315 26 3 0 -58.3322428261547 -13.305089628419394 57.17097278802348 -3 4 1
314 26 1 0 -64.12741975064792 -14.62741672676282 58.34218581602883 -3 4 1
159 11 3 0 -38.59433752071395 -13.919026252518146 61.300944647208624 1 -1 0
157 11 2 0 -38.16288721162881 -11.316667804487743 49.97017797999751 1 -1 0
158 11 3 0 -36.817400579170815 -12.375053921814633 55.67204683490839 1 -1 0
469 42 3 0 -52.535682763090655 -22.015454780342953 97.71758341118655 4 2 3
163 11 1 0 -32.43621294033078 -33.50839845048869 68.64442505341552 1 -1 0
160 11 4 0 -38.12874114342668 -17.681258351857387 65.58837701604881 1 -1 0
161 11 3 0 -36.018376143638875 -22.731455447395486 68.52420423479285 1 -1 0
162 11 4 0 -34.56993740358638 -28.30034947718033 70.32999417418621 1 -1 0
280 23 4 0 -22.485730250892082 -25.543785323577676 65.90142692624991 0 3 1
279 23 3 0 -18.370417674514677 -24.678078540297708 70.14913891958861 0 3 1
278 23 3 0 -13.18067773175827 -22.058431542754946 71.87443096919743 0 3 1
277 23 2 0 -8.599246826548477 -19.7974592422206 74.76057589279516 0 3 1
487 44 2 0 -76.57542310293603 -13.411055636789222 78.5722067063917 -1 2 -2
488 44 3 0 -73.03643856073133 -10.695113785976048 75.04137274122932 -1 2 -2
489 44 3 0 -70.12441979307721 -5.319562410133922 74.62903876168734 -1 2 -2
490 44 4 0 -67.14750451402944 -0.06297436391645472 75.73634932097553 -1 2 -2
475 42 3 0 -83.48707162617445 -31.244010390520522 96.70793762194448 4 2 3
476 42 1 0 -89.06902290762325 -33.10025178427493 95.59363488800462 4 2 3
473 42 1 0 -71.95253010750005 -29.952554011265516 94.25370410227613 4 2 3
474 42 1 0 -77.80778141544215 -29.82508873388525 95.03259828946995 4 2 3
471 42 3 0 -60.38752023186584 -27.90387031504632 91.2580976216196 4 2 3
470 42 4 0 -55.38223706492946 -25.438392243482742 93.83047629375837 4 2 3
472 42 4 0 -66.44423452546546 -28.97074639522376 91.85086208930936 4 2 3
192 14 4 0 -38.25187683073923 91.34611182422364 -81.90456161080613 -2 1 1
193 14 1 0 -39.79127367060845 94.722694209983 -86.45501730455284 -2 1 1
194 14 1 0 -36.72257227229706 95.32601037972624 -91.63969643176434 -2 1 1
419 37 3 0 -65.15586731654118 25.924113592160587 -71.58601191557042 2 1 0
420 37 4 0 -60.76764923840206 26.491965513042146 -75.86958749711772 2 1 0
421 37 3 0 -56.67883523601902 31.09998051026171 -75.81411777980114 2 1 0
423 37 1 0 -57.026993257086794 42.584820006170105 -75.62756867117736 2 1 0
422 37 4 0 -57.38133329436909 36.91330655401432 -74.0500191838281 2 1 0
424 37 1 0 -55.81930294239655 47.36523649982595 -79.05131894622835 2 1 0
238 19 3 0 -42.49909993865992 44.901122969778974 -71.63298245439542 0 -3 0
239 19 3 0 -38.382609080109155 44.97822087171593 -67.09383059483864 0 -3 0
237 19 2 0 -42.71712226398413 46.59903614116004 -77.15268280859006 0 -3 0
426 37 1 0 -53.289080899200336 56.74138317082829 -77.08589431540334 2 1 0
425 37 3 0 -53.43890997609778 52.28688309748118 -81.0234828962412 2 1 0
517 47 2 0 -97.92149675888602 78.67407835633247 -77.00128562061776 1 -1 -2
187 14 2 0 -52.7349679555305 69.16882625085069 -77.10892965532753 -2 1 1
190 14 4 0 -39.777378007298154 80.30167570062075 -80.0320405898941 -2 1 1
188 14 3 0 -49.147427942282306 72.94729735770811 -79.89834085239487 -2 1 1
189 14 3 0 -44.10984118618357 76.1334230423142 -79.71790400785902 -2 1 1
191 14 3 0 -36.841139422923405 85.65287028748682 -80.26066185839352 -2 1 1
418 37 3 0 -67.53544031949764 25.507004578109296 -66.21255620775202 2 1 0
417 37 2 0 -72.42403336862948 23.74200745264553 -62.48105071661261 2 1 0
243 19 1 0 -30.33986944097835 34.76750240403977 -50.76928980738114 0 -3 0
240 19 4 0 -34.41598667102422 42.09486915527382 -63.770001504159076 0 -3 0
242 19 4 0 -28.44197278751781 36.54502337037931 -55.77719466620355 0 -3 0
241 19 3 0 -30.85765201103117 39.021956731757534 -60.30175065460209 0 -3 0
559 51 3 0 -1.8673137416993655 44.14040254673777 -51.8429642625733 2 -4 0
558 51 3 0 -4.753939043973636 44.4304612125382 -56.841183956804024 2 -4 0
557 51 2 0 -6.4842920326861915 47.802482454614115 -61.173353792538144 2 -4 0
432 38 4 0 -82.00128642352895 4.380603379862439 -40.416844767297775 -1 -1 2
431 38 3 0 -80.82167907485653 9.677639167982282 -37.47426463439466 -1 -1 2
430 38 4 0 -76.27298703887784 13.37383763119652 -37.63356905115291 -1 -1 2
527 48 2 0 -65.81497690688289 11.054084465589781 -15.56247151706195 0 -1 1
429 38 3 0 -74.23498229772527 19.103392205272087 -38.12448114185645 -1 -1 2
428 38 3 0 -68.78417052644792 22.00961862341065 -38.26973703561887 -1 -1 2
427 38 2 0 -64.69673176265646 25.199303922949703 -34.859245570924884 -1 -1 2
246 19 1 0 -41.091326424974454 23.07898532011831 -48.02417330373629 0 -3 0
244 19 1 0 -34.04093133948975 31.97742363447503 -47.35145861958897 0 -3 0
245 19 3 0 -38.88037879974022 28.424228457702124 -47.76921085295064 0 -3 0
530 48 4 0 -54.5008283259064 1.9722126198836274 -24.17070377460467 0 -1 1
528 48 3 0 -61.97475293551244 6.513760455824709 -17.343006604249396 0 -1 1
529 48 3 0 -59.776300806770365 3.0191687636564004 -21.40397159406297 0 -1 1
534 48 1 0 -36.42184803981933 0.7661680421100452 -25.21131916984223 0 -1 1
531 48 3 0 -50.11239188143203 2.8023612844450847 -28.100992532828776 0 -1 1
533 48 1 0 -38.73293108525005 5.033538022622575 -28.437124924056004 0 -1 1
532 48 4 0 -44.71580431074819 4.8166480619275 -30.059766204207634 0 -1 1
195 14 3 0 -35.20870220180857 96.83147142758676 -97.04182538661428 -2 1 1
381 33 3 0 -83.15078029162451 3.6449903699629447 46.96976432511526 2 0 0
382 33 4 0 -84.4359992882111 0.09650702031139932 42.631649489109094 2 0 0
545 49 3 0 -5.457184119047519 12.81626169558779 41.12216686373532 -2 -1 4
544 49 1 0 -3.96350331349482 17.77611332591764 43.89726414001369 -2 -1 4
543 49 1 0 -6.888807469934587 21.222474707461867 47.91527360936936 -2 -1 4
542 49 4 0 -10.775814364926138 25.585001971065353 49.4268410205893 -2 -1 4
541 49 3 0 -11.67445778511666 31.23735697628877 47.86168621574262 -2 -1 4
540 49 4 0 -8.529341204475935 36.21503967270396 45.93873361911916 -2 -1 4
539 49 3 0 -3.657190228262598 38.89421529080862 46.06559337228975 -2 -1 4
380 33 4 0 -85.05643288216801 5.080645828855374 52.653259432219045 2 0 0
379 33 3 0 -85.98624602999837 8.827170134293736 56.62019824404975 2 0 0
378 33 3 0 -87.26486636669912 14.510418503303654 56.45585240955131 2 0 0
377 33 2 0 -89.68431757472085 19.20733973421365 53.80831271141823 2 0 0
491 44 3 0 -62.1625423288061 2.9725341952053452 76.69878939106067 -1 2 -2
492 44 4 0 -58.756999384460904 6.093860662819614 80.56136671348825 -1 2 -2
234 18 1 0 -51.44409336885855 52.7996756566969 82.0987478871728 0 0 -2
235 18 3 0 -50.0048885393884 47.192167008456416 83.75170007985028 0 0 -2
230 18 4 0 -69.87148824835502 62.73566671928065 77.37608521974549 0 0 -2
229 18 3 0 -75.25115329217424 64.07246331075403 78.71703261262414 0 0 -2
231 18 3 0 -65.27806281070382 59.43950107684994 75.38377223393552 0 0 -2
232 18 4 0 -59.727074903269084 57.51244664222023 75.00506740090727 0 0 -2
233 18 1 0 -54.833885991657645 55.123727803210826 77.54328988372608 0 0 -2
228 18 3 0 -78.7322231214046 68.62351770284866 77.84618536407997 0 0 -2
227 18 2 0 -84.27447848653303 71.16485347917448 77.32767128445772 0 0 -2
494 44 1 0 -50.91517636397484 4.324583906344861 89.52692323407578 -1 2 -2
493 44 1 0 -55.47154600169023 5.614894860889426 85.65372861605205 -1 2 -2
495 44 3 0 -46.579843623171946 0.891020079787166 91.60361039886928 -1 2 -2
496 44 1 0 -41.28447273847363 1.8048515145692894 94.67263803228009 -1 2 -2
236 18 1 0 -51.232610403372306 43.4424550807228 88.14400664035288 0 0 -2
134 8 1 0 -95.79632676685554 54.3036572018673 87.45186611402188 1 1 0
135 8 3 0 -92.51929691471997 58.181273971690004 90.21957383317289 1 1 0
136 8 1 0 -90.46592693652842 62.24586339463584 94.54148968314725 1 1 0
546 49 1 0 -3.4520491093359387 8.00348597050476 38.97949386640997 -2 -1 4
133 8 1 0 -99.56655333457475 49.78343806925416 87.97852311421128 1 1 0
77 3 2 0 92.05868670824525 -90.29180492608559 -97.58537029704809 0 0 -1
265 21 3 0 88.00596112293928 -37.817295919071285 -9.306772739318514 -2 -2 -2
216 16 1 0 25.944263051204636 -61.57285690932328 -95.65239455473525 1 2 0
202 15 4 0 44.575696055110875 -56.722460543198906 -93.59747081480094 2 0 1
201 15 3 0 45.48577663961355 -56.79524936870318 -87.83496690289313 2 0 1
203 15 1 0 40.28202811454038 -59.02705513206466 -97.12545519760809 2 0 1
200 15 4 0 45.653929602410265 -59.05215792600946 -82.25661760521099 2 0 1
204 15 1 0 35.27797419578414 -60.87628562922929 -99.3491456948929 2 0 1
197 15 2 0 55.99536215751727 -69.72323828911546 -77.08402599867406 2 0 1
199 15 3 0 46.653959435259004 -64.14536748594031 -80.20449085517025 2 0 1
198 15 3 0 50.33758775921232 -68.30611194785828 -79.2445884059363 2 0 1
406 35 1 0 79.71795976657282 -60.76161354799689 -70.46552049484073 3 -2 1
48 2 3 0 46.396110867769295 -51.063606182376425 -51.5505810530672 0 0 0
403 35 1 0 82.8383292967486 -56.260471075984114 -55.27780691217474 3 -2 1
404 35 1 0 80.03515541186236 -58.75261662978472 -59.716617439845706 3 -2 1
405 35 3 0 80.38682725729879 -57.54966696671879 -65.32496509873137 3 -2 1
154 10 1 0 71.24823089046171 -56.588446238065785 -54.9653711086513 -1 -1 1
402 35 4 0 84.20168905889285 -52.5896784040675 -51.61287233188153 3 -2 1
52 2 1 0 27.68649151240787 -45.0592898985473 -52.005741570913095 0 0 0
51 2 3 0 32.744361348934156 -42.842689416926206 -53.85279633705906 0 0 0
50 2 3 0 38.01020345484402 -44.903843369954124 -55.717967744081015 0 0 0
49 2 2 0 42.581105855095885 -48.50516611584855 -55.35895736860014 0 0 0
153 10 1 0 71.6329095008908 -51.781878338488255 -58.07978559871723 -1 -1 1
151 10 3 0 78.35253919359552 -45.012093965245036 -61.364278183678486 -1 -1 1
152 10 4 0 73.13080946184546 -46.43733217512758 -59.34782620865233 -1 -1 1
150 10 4 0 82.67458924466338 -42.93059106934036 -64.73265234589041 -1 -1 1
148 10 3 0 93.09655311522496 -38.83867230405609 -63.8514406428789 -1 -1 1
149 10 3 0 87.19740750149684 -38.99726051752776 -64.15536864406603 -1 -1 1
147 10 2 0 97.5711356583128 -41.524817443914806 -66.31207322804866 -1 -1 1
56 2 3 0 19.88646642471792 -56.96786448668556 -41.37604217402339 0 0 0
57 2 2 0 20.69491642907218 -59.34905006618933 -35.94305521050702 0 0 0
42 2 3 0 30.91187030221322 -52.464584780330554 -38.957990547614344 0 0 0
43 2 3 0 30.045594636113144 -58.041347034275795 -41.05500538660404 0 0 0
44 2 2 0 32.85064281688132 -61.99807036412432 -44.42123291087694 0 0 0
55 2 2 0 18.20887527632496 -51.9230137892438 -44.3277865360576 0 0 0
41 2 2 0 30.189701188966794 -52.29246393694601 -33.15458481794702 0 0 0
47 2 1 0 46.59768490178518 -57.10238120298639 -49.583699144960754 0 0 0
46 2 2 0 42.959416334705054 -61.894279059793064 -49.12993930750613 0 0 0
45 2 1 0 37.58857012957475 -64.12483301639993 -47.51004371509225 0 0 0
156 10 1 0 74.92395567420284 -56.247730644374705 -45.56533952819697 -1 -1 1
155 10 3 0 71.60850616959375 -58.75671728667243 -49.526878619007256 -1 -1 1
15 2 3 0 18.55596129296074 -40.71347447183044 -35.82242063520866 0 0 0
16 2 4 0 18.184168998067793 -35.210530636277625 -35.34457485502426 0 0 0
53 2 1 0 22.670743107764448 -42.98225908806012 -49.62131653814953 0 0 0
54 2 1 0 18.245007212026128 -46.55969881050577 -47.56823060841177 0 0 0
14 2 4 0 18.943701345011178 -46.613617810737956 -33.937745923699126 0 0 0
401 35 3 0 82.73364535713421 -48.786813789632895 -47.61157322618087 3 -2 1
400 35 4 0 82.99700638574772 -46.16838017045566 -42.28166753443426 3 -2 1
399 35 3 0 85.59722713826034 -42.16279279342609 -39.39275784017344 3 -2 1
275 22 3 0 6.925367074447488 -27.2138090654478 -37.58033682620585 1 0 0
276 22 1 0 9.49780176367651 -28.67141265083752 -42.59934729860721 1 0 0
274 22 1 0 1.7613138099788022 -26.806040654798522 -34.37750016584532 1 0 0
484 43 1 0 45.322156030090916 -1.0735250721949847 -46.96966287766941 0 1 -2
485 43 3 0 47.39486289497519 -6.624237774693424 -47.55016877613741 0 1 -2
486 43 1 0 48.66824799529249 -10.307177810349568 -51.66787441820381 0 1 -2
445 39 3 0 18.613685646114533 -70.24088612044041 -16.464241511066355 2 4 0
446 39 1 0 20.166685458524594 -72.06209723155806 -22.243188623889846 2 4 0
181 13 3 0 3.096722537878134 -52.32701614153605 -23.35410056099017 0 3 2
13 2 3 0 15.559358699496544 -50.494379634623265 -30.84101677978404 0 0 0
11 2 2 0 11.420746616453547 -60.0568144993502 -27.93108749484411 0 0 0
12 2 3 0 12.446742453203715 -54.98444388598083 -30.051051708693453 0 0 0
37 2 2 0 14.721033454608184 -51.314998441266155 -20.748317749806557 0 0 0
36 2 2 0 11.162867221963463 -52.24414585465387 -16.498034385019768 0 0 0
58 2 4 0 24.07368203131086 -63.07569573295998 -32.52987050090765 0 0 0
59 2 3 0 26.844555890742615 -62.17144533220282 -27.389959787134444 0 0 0
60 2 1 0 28.774066858964982 -60.6198245484934 -21.938191352265694 0 0 0
61 2 4 0 28.23190930535197 -57.93348237524705 -17.080066173757224 0 0 0
40 2 3 0 28.413094548968218 -51.25576610847172 -27.403471364133132 0 0 0
180 13 4 0 4.986896780358995 -47.055589016301525 -25.395356192027943 0 3 2
179 13 3 0 9.149111127997578 -42.64384559733741 -26.278393259331402 0 3 2
178 13 3 0 10.566199422615126 -37.96695633511128 -22.682637810392553 0 3 2
177 13 2 0 8.524019422187687 -34.62250295549239 -17.969564614823813 0 3 2
38 2 3 0 19.551297406327357 -48.40884099812609 -21.541227806638936 0 0 0
39 2 4 0 25.19933093881082 -48.601767157459925 -23.526328400595222 0 0 0
398 35 3 0 90.48180652290276 -41.14824166483489 -35.7650953477401 3 -2 1
397 35 2 0 92.02906102987434 -37.61926513881455 -31.122388104323445 3 -2 1
20 2 4 0 10.25604047065276 -17.889636428763044 -26.48926295712738 0 0 0
19 2 3 0 14.89421861917388 -21.60118127104662 -27.16357646470465 0 0 0
18 2 1 0 18.214875693342517 -25.636655917522024 -29.515670007515716 0 0 0
17 2 1 0 17.12378497354048 -31.066194380724067 -31.326892693205075 0 0 0
327 28 2 0 33.90158627294746 -27.368889001035928 -21.311027055283457 0 -1 5
328 28 3 0 31.86591932501088 -31.190893406361575 -17.20250372433752 0 -1 5
22 2 2 0 2.370208523808417 -15.43227167251549 -18.57675012123633 0 0 0
21 2 3 0 6.713123339719979 -17.206836360808985 -21.820304666459215 0 0 0
264 21 1 0 87.53944102953933 -43.74092361479089 -10.521721667610796 -2 -2 -2
500 45 4 0 47.149154885962815 -0.6013602020543521 -20.195801171595466 1 -2 -4
116 6 1 0 93.89114740144207 -90.49832439299394 -16.33437493602425 1 0 4
115 6 3 0 99.220958886107 -88.32148897751024 -17.42715025028012 1 0 4
444 39 1 0 17.309849736682864 -69.33990788573414 -10.805080223836447 2 4 0
443 39 1 0 20.272308541556413 -66.26268436523368 -6.846667579203702 2 4 0
34 2 2 0 1.0496963925425957 -50.052553979133776 -10.054515391929366 0 0 0
35 2 1 0 6.257035003103159 -52.29501510224887 -12.66171188677113 0 0 0
442 39 4 0 24.062117123147875 -65.12393813592536 -2.9138468555281274 2 4 0
62 2 3 0 25.995169001396558 -53.95159439344338 -13.592562414839493 0 0 0
63 2 4 0 21.13600127359286 -51.74709368337361 -10.955099609899001 0 0 0
263 21 1 0 88.89405886262452 -49.21431007126232 -9.016105887267967 -2 -2 -2
262 21 4 0 91.3185759089066 -51.820920987308575 -4.436875968275996 -2 -2 -2
67 2 1 0 5.339860763363663 -41.627752184901595 -1.8756065705212581 0 0 0
66 2 4 0 11.03931644320272 -42.876572829697 -3.6017716945971765 0 0 0
65 2 3 0 16.130458936646114 -42.47301068138138 -6.190812162843131 0 0 0
68 2 4 0 1.5549915119773468 -36.81249674352195 -1.2339610108587618 0 0 0
329 28 3 0 33.01882340612437 -34.07927653690195 -12.315559254978211 0 -1 5
64 2 2 0 18.6012153575186 -46.55590342910182 -9.699791332524637 0 0 0
331 28 3 0 26.067596156186877 -36.871220103847286 -3.256466197791931 0 -1 5
330 28 4 0 30.341437033506395 -36.42847205744166 -7.243630548951412 0 -1 5
367 32 2 0 50.69003876813728 -94.92268020557066 -99.69197525700207 -1 0 1
266 21 1 0 89.90795308585965 -32.869324446396384 -6.610142128517158 -2 -2 -2
371 32 3 0 49.58493371138317 -72.8461193861951 -99.86419443154959 -1 0 1
369 32 3 0 51.369536027668836 -83.70980848910334 -99.68187472596307 -1 0 1
440 39 4 0 23.575934660261716 -71.09861740929944 5.019227352373344 2 4 0
437 39 2 0 9.45524509895356 -64.39749069494316 11.125320057914116 2 4 0
438 39 3 0 14.568058377974912 -64.4959831326785 8.5466053023236 2 4 0
336 28 1 0 9.763162440350355 -52.6417810327833 10.256672490603775 0 -1 5
335 28 3 0 15.349433126965016 -51.81042466587176 8.580546060311596 0 -1 5
439 39 3 0 19.2694682087636 -67.72506504116728 7.295936910824213 2 4 0
441 39 3 0 26.44132429512525 -69.46655121876921 0.4165694407161128 2 4 0
261 21 3 0 94.8948536926514 -50.62348017800941 0.28268250815873747 -2 -2 -2
334 28 1 0 18.606734726550812 -50.123648239146554 4.177305357922893 0 -1 5
333 28 1 0 22.118182433998374 -46.10453625394255 1.4353000346075364 0 -1 5
260 21 4 0 95.77047841516287 -50.574910196068636 6.032660114737839 -2 -2 -2
259 21 3 0 94.72453444851304 -47.58253924873632 10.938733749878118 -2 -2 -2
304 25 1 0 2.8248837258361035 -97.97559555320733 22.188251027813074 0 1 -1
305 25 3 0 0.22043322114863093 -93.12544396192084 23.619111336601105 0 1 -1
391 34 3 0 42.38848755259593 -51.97762927843569 28.8141142304631 0 -1 -1
394 34 1 0 41.55156282945252 -37.43858897093875 29.551231742141105 0 -1 -1
393 34 1 0 41.25396530040457 -41.68970190551812 25.43437976698411 0 -1 -1
392 34 4 0 41.06168962371444 -47.666679181386314 24.980018907468445 0 -1 -1
258 21 3 0 94.12264089883779 -42.13171108769574 13.426126364048605 -2 -2 -2
257 21 2 0 96.89410433988434 -38.650429934194506 17.503892619358545 -2 -2 -2
395 34 3 0 37.71256005794021 -33.57664826115033 31.41997191915665 0 -1 -1
88 4 3 0 92.98871031939834 -95.84048078182656 47.83014093817035 -2 1 2
390 34 4 0 45.356174271129746 -53.929715663530004 33.369689666571546 0 -1 -1
387 34 2 0 42.18089020805674 -55.908798275200425 50.44229887331524 0 -1 -1
389 34 3 0 46.58066296476263 -54.484833203716796 39.27415604684286 0 -1 -1
388 34 3 0 45.75671463408625 -55.04663241788384 45.31825503852001 0 -1 -1
168 12 3 0 91.38016442990404 -33.50928880843821 51.17153648552829 -1 -1 1
396 34 1 0 37.33040205857128 -29.445469187291845 35.652229248983325 0 -1 -1
174 12 1 0 63.34155305210815 -24.334879509586383 43.834377726245314 -1 -1 1
175 12 3 0 59.352113017743754 -24.067537827621404 48.20694988943909 -1 -1 1
173 12 1 0 67.94144937347 -25.876980023093896 40.77917276305646 -1 -1 1
170 12 4 0 81.9572834239185 -31.180416650384526 46.00003232615092 -1 -1 1
172 12 4 0 73.89437084771568 -25.037104286143222 40.73309637577626 -1 -1 1
171 12 3 0 78.9606488424019 -27.238101097945638 42.996251971441936 -1 -1 1
169 12 3 0 87.15577630028905 -30.562272385358668 48.374132185879915 -1 -1 1
211 16 3 0 16.52921598888683 -46.72133846940046 84.71503382705345 1 2 -1
89 4 3 0 91.4436111526634 -92.14431928047148 52.183344813815616 -2 1 2
90 4 4 0 92.8792675665003 -86.81247615094591 54.33263182597796 -2 1 2
91 4 3 0 97.08359244835671 -83.34832784397743 55.939824196665114 -2 1 2
176 12 1 0 55.77885439982506 -21.350561904088714 52.544597888316765 -1 -1 1
167 12 2 0 95.7203284044241 -36.59632169746888 49.136294978109994 -1 -1 1
94 4 1 0 97.39483993871814 -78.9847020811194 71.3651445459188 -2 1 2
96 4 1 0 86.23829088691927 -81.31792970569158 73.84034419504286 -2 1 2
95 4 3 0 91.98169877443463 -81.18411718837038 72.61596803046874 -2 1 2
209 16 3 0 13.147602101857585 -39.02463224173274 77.14422376632128 1 2 -1
208 16 3 0 14.747590190475403 -35.87304930972516 72.78364530843557 1 2 -1
210 16 4 0 13.614361211856549 -43.87146458624679 80.02095135123432 1 2 -1
207 16 2 0 14.22529484005295 -34.48824279668209 67.05318739699507 1 2 -1