LAMMPS data file via write_data, version 29 Aug 2024, timestep = 105000000, units = real

266 atoms
4 atom types
245 bonds
1 bond types
224 angles
1 angle types

-100 100 xlo xhi
-100 100 ylo yhi
-100 100 zlo zhi

Masses

1 329.2
2 305.2
3 345.2
4 306.2

Bond Coeffs # harmonic

1 7.5 5.9

Angle Coeffs # harmonic

1 5 150

Atoms # full

191 14 3 0 72.710869287702 -14.38906778527869 -11.570548237866902 1 0 -2
149 10 3 0 -13.755730495194037 -59.16099812330801 -97.00184605178117 4 1 0
148 10 3 0 -10.475752810976383 -59.013314534778495 -92.2980705940228 4 1 0
147 10 2 0 -9.271044315168648 -58.25896934311785 -86.68326226066773 4 1 0
180 13 4 0 -72.16503857033044 -21.156745049452866 -85.93596518357829 1 1 -1
181 13 3 0 -77.65541005607564 -18.515437475252142 -86.67605153452587 1 1 -1
178 13 3 0 -60.04559365842761 -21.874275244393214 -84.73223896819701 1 1 -1
179 13 3 0 -66.11400907572714 -21.221039209509424 -85.85094759107685 1 1 -1
185 13 3 0 -81.78752836099162 -0.11714027073835606 -94.73829653788748 1 1 -1
184 13 1 0 -83.81182832283875 -4.764078382763914 -92.21998854819097 1 1 -1
183 13 1 0 -82.97887165430983 -9.770609361652824 -88.43431014237851 1 1 -1
182 13 4 0 -80.47388812151144 -13.54560072286511 -84.87726670831404 1 1 -1
177 13 2 0 -54.11237751360803 -21.225457128010742 -85.9397140523868 1 1 -1
201 15 3 0 -38.77108214233062 -52.02345190865239 -64.81375424862281 0 2 4
202 15 4 0 -37.42578097404787 -49.24914450161547 -70.03456330952936 0 2 4
203 15 1 0 -37.38232707595691 -43.50712770468205 -72.02951301301853 0 2 4
205 15 3 0 -44.917842399738475 -37.04521063482659 -77.82097349641421 0 2 4
204 15 1 0 -39.952893801848674 -40.07789546743554 -76.17193567187518 0 2 4
206 15 1 0 -48.091111532066655 -32.20733694194943 -78.09143291065686 0 2 4
197 15 2 0 -33.684634309036156 -69.762811834446 -65.63137437941639 0 2 4
94 4 1 0 50.15454237301053 -65.1081365225784 -51.40580305580556 -1 2 -2
198 15 3 0 -33.54734179476592 -66.10418393030183 -61.27888942023686 0 2 4
200 15 4 0 -36.30655990476247 -55.60437510279037 -60.81050129654651 0 2 4
199 15 3 0 -33.63357601085075 -60.59926341321728 -59.53468210351178 0 2 4
95 4 3 0 54.060886679755995 -61.72249729777706 -54.852233740150666 -1 2 -2
96 4 1 0 55.12699909142399 -56.43918870181606 -56.75479527696068 -1 2 -2
88 4 3 0 28.61140967159789 -70.79276141935622 -32.2884772134162 -1 2 -2
93 4 1 0 44.635621512967425 -65.55206486250391 -49.693702861521395 -1 2 -2
97 5 2 0 -56.32209565567375 -68.92802219193213 -36.93497969172822 3 -1 -1
98 5 3 0 -51.486416882071026 -67.73799498979739 -34.11552977758307 3 -1 -1
89 4 3 0 30.560164915599874 -65.62319650774262 -34.02386344714128 -1 2 -2
91 4 3 0 37.93988028089051 -63.0589591681051 -41.44784217568669 -1 2 -2
92 4 4 0 41.10360011513996 -66.46378954867657 -44.902734622518324 -1 2 -2
90 4 4 0 34.769813720620014 -62.50707090675326 -36.627346310894836 -1 2 -2
105 5 3 0 -47.5654336741391 -38.66733866397342 -37.376979917183405 3 -1 -1
106 5 1 0 -44.44252889477207 -33.448188532679055 -37.666569691560504 3 -1 -1
104 5 1 0 -47.368437682376054 -44.0168853019801 -34.753814291645604 3 -1 -1
87 4 2 0 23.701597117453723 -74.79219466794301 -32.53713929237285 -1 2 -2
99 5 3 0 -48.51262760534326 -63.574975258444326 -31.33977537518569 3 -1 -1
102 5 4 0 -41.32380375308361 -51.32551262108666 -28.639042834906427 3 -1 -1
100 5 4 0 -43.29237976352772 -61.52083039492767 -29.221145214872752 3 -1 -1
101 5 3 0 -40.12123653594702 -56.974843625735566 -27.330601579683776 3 -1 -1
103 5 1 0 -42.85267109097004 -46.870034789423556 -32.45908365694726 3 -1 -1
196 14 1 0 86.11106648804733 -33.63269645382117 -21.84265877150134 1 0 -2
195 14 3 0 84.15313464997652 -28.521391524114915 -23.75515007249763 1 0 -2
194 14 1 0 79.69101070705511 -24.507875649594926 -23.92491221946528 1 0 -2
193 14 1 0 75.98879371014065 -21.496127127306924 -20.0632288690152 1 0 -2
192 14 4 0 76.03582050211523 -16.949453008473572 -16.137920363718322 1 0 -2
189 14 3 0 66.38562728242735 -4.738252314621722 -12.09753342202515 1 0 -2
190 14 4 0 69.30093358305044 -9.500253534366987 -10.210179933541298 1 0 -2
166 11 1 0 60.904623271658714 -16.056399655069022 9.211291600625021 2 -2 -2
165 11 3 0 66.44270389928695 -16.988020923206744 8.178286704406192 2 -2 -2
162 11 4 0 76.78188700921712 -4.425423383558379 8.369352312029664 2 -2 -2
163 11 1 0 74.29690531713838 -10.076410401879075 9.542647498618726 2 -2 -2
164 11 1 0 71.51738071634806 -14.748617489765623 7.197193219747961 2 -2 -2
161 11 3 0 82.94323420602707 -3.3165317887417998 8.131041414785319 2 -2 -2
160 11 4 0 88.65253439684322 -4.931088000223414 7.157978987480638 2 -2 -2
159 11 3 0 92.37116501826002 -8.104634282566128 9.793005409820575 2 -2 -2
158 11 3 0 92.35009835973827 -13.513900847718213 12.480523607646408 2 -2 -2
260 21 4 0 -46.53860393641281 -86.72497939348926 21.343770124360752 -1 -1 -6
259 21 3 0 -41.585867762600806 -88.65112702480407 24.596228484223378 -1 -1 -6
258 21 3 0 -39.119400733515604 -93.63303966871969 26.7996052124676 -1 -1 -6
261 21 3 0 -48.67057792118216 -81.54550660716896 19.16134873887714 -1 -1 -6
263 21 1 0 -52.61284933386839 -72.08965463035403 24.561500890340866 -1 -1 -6
262 21 4 0 -50.35313519780818 -75.92778028518299 20.496975551028065 -1 -1 -6
264 21 1 0 -53.52208930821328 -72.64440395297373 29.97263603491154 -1 -1 -6
207 16 2 0 77.11035908358895 -75.99392882562759 27.887744686985933 -1 4 -3
208 16 3 0 81.08687071424738 -76.61707205548707 32.04246207871428 -1 4 -3
157 11 2 0 90.29397391427447 -16.64713621035544 17.020053627734494 2 -2 -2
233 18 1 0 -84.32666392516784 -1.6967721306398635 20.061093114890834 0 -2 3
234 18 1 0 -86.3141111182596 -7.100738659103162 19.93847924920868 0 -2 3
235 18 3 0 -84.96679929885332 -12.740910280817454 18.234430823302635 0 -2 3
236 18 1 0 -80.51784167786828 -16.624566065100478 18.060814613648454 0 -2 3
266 21 1 0 -48.226289097931456 -75.6199513226597 38.85208891035373 -1 -1 -6
265 21 3 0 -49.68341697787568 -75.32523319511327 33.125436615209296 -1 -1 -6
214 16 1 0 65.4830608851119 -75.2552798379052 43.27679625311957 -1 4 -3
216 16 1 0 54.63643709521354 -77.19849189490925 38.80561836106324 -1 4 -3
215 16 3 0 59.80443171686884 -76.51689036197456 41.95557530514546 -1 4 -3
213 16 1 0 69.94644347632725 -75.63380527445624 47.048415515603324 -1 4 -3
212 16 4 0 75.91094777022366 -74.21952582568485 48.18458493594285 -1 4 -3
211 16 3 0 81.2996236320208 -72.02453367419494 46.8380405022683 -1 4 -3
210 16 4 0 81.52604133296734 -70.96604200527887 41.15709767539963 -1 4 -3
209 16 3 0 83.77465733022923 -73.58578549914346 36.46717845835593 -1 4 -3
43 2 3 0 -8.367257332645536 -5.5580405436503 49.04040108773502 1 0 0
44 2 2 0 -2.2818903810789677 -5.544541965353304 49.6376867853503 1 0 0
45 2 1 0 2.813637084326907 -2.7011935512618366 48.010772218715985 1 0 0
114 6 1 0 -34.10658454838763 -97.8843764290999 56.95489946328586 -1 3 2
115 6 3 0 -35.782698332138764 -93.71463823078074 60.57090385801082 -1 3 2
116 6 1 0 -38.14448365141507 -92.01854084372836 65.26585777767036 -1 3 2
9 1 3 0 42.91149533452803 -80.59365472866553 58.27234437799007 3 3 -2
2 1 3 0 62.207281022823985 -97.03069231361164 58.247006285440044 3 3 -2
5 1 3 0 60.66733255936998 -82.43914314670569 54.69264946131012 3 3 -2
4 1 4 0 63.78624308099519 -86.2009673528617 57.581853557063326 3 3 -2
3 1 3 0 63.84057710315873 -91.57492731927582 59.43668224727758 3 3 -2
137 9 2 0 -5.667987835035975 -78.65623361898545 67.07648745302859 4 -4 -3
10 1 1 0 42.47498413355332 -82.4940159937564 63.847922227133246 3 3 -2
7 1 1 0 51.19207352245239 -80.89995580446858 50.213524597792386 3 3 -2
8 1 1 0 47.35944429120443 -79.06260012102948 54.31018216038476 3 3 -2
6 1 4 0 57.035632968481025 -81.19322314969669 50.90745495955838 3 3 -2
15 2 3 0 -70.66067399645438 -56.128400479570594 54.410833189038414 1 0 0
14 2 4 0 -66.47941700445467 -58.71490549033322 57.80009305157173 1 0 0
16 2 4 0 -74.90109931035478 -52.61282880682878 53.32803957360904 1 0 0
13 2 3 0 -65.93204127150564 -62.90307622021059 62.29689993691446 1 0 0
18 2 1 0 -79.35245254372286 -43.11625846999243 57.70037651149326 1 0 0
19 2 3 0 -80.98273616218864 -38.657601887445594 61.08515213865059 1 0 0
17 2 1 0 -78.62266718950639 -48.26953497943454 55.02541724694351 1 0 0
20 2 4 0 -82.24750389247734 -36.63564394260852 66.57363775810165 1 0 0
32 2 4 0 -51.58036075408008 -5.515980369275923 65.37581563225942 1 0 0
31 2 4 0 -56.014804900379396 -10.08649682738161 65.08628416808583 1 0 0
72 2 3 0 -37.87990003577753 -8.303180228762255 60.57916226856949 1 0 0
71 2 1 0 -37.401223386890294 -3.355368779490133 57.70348909181971 1 0 0
73 2 3 0 -39.43804905123853 -9.970251213044541 66.14386900067558 1 0 0
70 2 2 0 -33.232012807911836 -0.46681271153386855 54.80649374218406 1 0 0
41 2 2 0 -18.08392249438579 -5.944699921717155 55.20705498564487 1 0 0
40 2 3 0 -23.065878757682302 -3.4610826539590316 57.47889799463455 1 0 0
39 2 4 0 -26.26213805338849 -3.7032757433645846 62.99585209126486 1 0 0
63 2 4 0 -2.7639688321169253 -1.12939351986527 61.106543189955886 1 0 0
42 2 3 0 -12.929662850820362 -7.083810180446392 52.54142518478716 1 0 0
60 2 1 0 13.324563211584932 -4.742423504750147 57.203107749587275 1 0 0
61 2 4 0 8.740822401606437 -4.08051571695024 60.67162134421701 1 0 0
62 2 3 0 3.3574382430851695 -2.1592563003931495 61.9113680920848 1 0 0
251 20 3 0 -97.37369736921322 -70.3099624604627 87.38256425885646 -1 -4 -1
138 9 3 0 -2.411527650257985 -82.01702813931138 70.81430377628489 4 -4 -3
139 9 3 0 1.7948876736083788 -79.86714493475372 74.46319862815636 4 -4 -3
140 9 4 0 3.229274624934899 -74.49836780167985 73.26668240039596 4 -4 -3
141 9 3 0 1.5274365354189312 -69.95759886675513 76.73201129181551 4 -4 -3
252 20 4 0 -97.55432954797661 -68.40078071543988 81.06586720837812 -1 -4 -1
12 2 3 0 -66.18698787040623 -65.49629108217518 67.44299679319349 1 0 0
11 2 2 0 -62.90445873682434 -67.36573139466466 72.31468350038304 1 0 0
143 9 1 0 0.1270433722621418 -58.29047204996953 76.89012686766002 4 -4 -3
142 9 4 0 -0.4407871712442925 -64.23547159658582 77.61434553534622 4 -4 -3
144 9 1 0 2.837377231044766 -53.06363692056884 78.04346731856978 4 -4 -3
253 20 1 0 -99.25144790173621 -63.8112543477749 77.36739765322686 -1 -4 -1
254 20 1 0 96.84227544230802 -59.16731485084344 78.46238428322519 -2 -4 -1
255 20 3 0 93.02871297965059 -56.913694625620884 74.50118471582354 -2 -4 -1
256 20 1 0 89.95870499547473 -52.031040451900445 73.10616907931909 -2 -4 -1
123 7 1 0 -69.22860552833339 -35.67542749698919 71.95153215720127 2 -4 4
126 7 1 0 -80.49847608869902 -42.03786137478943 77.47860971593174 2 -4 4
124 7 1 0 -70.91100893390909 -41.239970301678625 73.15889344208811 2 -4 4
125 7 3 0 -74.83632216083646 -43.971882671834244 76.43459194900026 2 -4 4
145 9 3 0 2.4613617580880827 -47.32550470584868 80.03563971313555 4 -4 -3
146 9 1 0 2.521566790670584 -45.27260573384879 85.20283753407035 4 -4 -3
21 2 3 0 -79.9063482016225 -33.7005327784185 70.93156276843683 1 0 0
22 2 2 0 -78.26849177582598 -29.965856536261253 75.12181933060174 1 0 0
23 2 1 0 -76.47662363411975 -27.609189967779248 80.77785939557367 1 0 0
24 2 3 0 -72.99606360404445 -24.099809044259022 83.9010372446307 1 0 0
122 7 4 0 -66.22219941726944 -30.654715829035432 71.14538578349564 2 -4 4
121 7 3 0 -65.84670245697247 -25.05627968506607 72.31113617477229 2 -4 4
120 7 4 0 -65.4842170640649 -19.269894683179608 72.61114076267776 2 -4 4
27 2 2 0 -58.280845787172694 -18.88834742208936 83.07178409861099 1 0 0
28 2 3 0 -56.269580031072636 -18.954845320275933 77.42717152332173 1 0 0
29 2 4 0 -53.87030251938881 -17.439520423968705 72.15950550154592 1 0 0
119 7 3 0 -65.65778693193779 -14.528582784427496 76.36862102646145 2 -4 4
118 7 3 0 -64.03741136540603 -8.920726685256543 75.43643308783115 2 -4 4
30 2 2 0 -55.364250138842564 -15.347633091891657 66.78776185845018 1 0 0
117 7 2 0 -60.77331366718672 -4.382990735794639 78.07347440859695 2 -4 4
76 2 4 0 -51.54606697666077 -9.157498425819476 78.52903728375571 1 0 0
74 2 3 0 -43.40864498902301 -9.380863189639896 70.42820104372584 1 0 0
75 2 2 0 -47.00431525067988 -8.587605127909843 75.02545337076812 1 0 0
38 2 3 0 -30.494800658907998 -2.768519733282739 67.60628443854276 1 0 0
156 10 1 0 -33.26840111567662 -86.07352251681264 85.29119302229523 4 1 -1
250 20 4 0 -91.05985984088655 -72.1645729907355 87.98971019415781 -1 -4 -1
249 20 3 0 -85.44946538589947 -73.1523642751413 87.65636713539814 -1 -4 -1
247 20 2 0 -78.38618044613291 -64.40217388881305 86.73973375028457 -1 -4 -1
248 20 3 0 -81.0457875481319 -69.33907008430141 86.66113811349508 -1 -4 -1
155 10 3 0 -30.121362854225517 -82.22436869193443 89.17765670717563 4 1 -1
154 10 1 0 -26.99238416825499 -77.27595526983693 90.30291270962678 4 1 -1
153 10 1 0 -26.116827601360974 -71.73316689207795 90.2194808424262 4 1 -1
152 10 4 0 -24.099705325486248 -66.67651163519878 92.33689213913073 4 1 -1
151 10 3 0 -19.419368805864107 -65.4656685519531 95.25707800187092 4 1 -1
25 2 2 0 -68.06214161538378 -20.622958426018407 85.31886602752913 1 0 0
26 2 2 0 -62.832894492023556 -18.027114777735367 86.31570639660939 1 0 0
257 21 2 0 -35.95309180260748 -98.45820741338723 26.889463002926405 -1 -1 -6
150 10 4 0 -16.632759237257893 -61.068007553131984 97.89176188547383 4 1 -1
59 2 3 0 17.314802336301938 -0.6283661353492881 56.041085781835235 1 0 0
37 2 2 0 -32.892156538999444 -0.1907322734249316 71.91625186899749 1 0 0
188 14 3 0 64.64136833831952 0.5508387815377656 -13.140040131381204 1 0 -2
226 17 1 0 -74.05983144461324 55.58158970703366 -55.82731013041077 1 1 1
225 17 3 0 -69.79892462711148 52.31971028655056 -53.75985306276116 1 1 1
224 17 1 0 -65.47133635764169 52.07175927236468 -50.32622758533214 1 1 1
223 17 1 0 -64.09225634494821 55.48403943437962 -45.551226816080835 1 1 1
222 17 4 0 -64.5971552131375 60.9103845220552 -42.79322647044659 1 1 1
77 3 2 0 -40.88710088152176 66.33114562862114 -34.048022603922995 0 -2 0
219 17 3 0 -65.75880263374539 76.24418473607219 -40.044476041613684 1 1 1
218 17 3 0 -69.679569312877 78.85351199425216 -36.473301305896555 1 1 1
220 17 4 0 -62.72665616599585 70.90505170124577 -38.95104272506941 1 1 1
221 17 3 0 -63.1596658596545 64.94122324884104 -38.837557727725844 1 1 1
85 3 3 0 -44.6922877710871 79.88541378770682 -42.479321446117105 0 -2 0
86 3 1 0 -44.361119107211834 73.82819221302408 -43.34904648839175 0 -2 0
84 3 1 0 -48.03311360469344 84.60478320330107 -42.126282834722524 0 -2 0
83 3 1 0 -50.92988697023782 88.18374430209957 -38.127286998454935 0 -2 0
82 3 4 0 -52.54048155705405 87.63551635585833 -32.60050352787329 0 -2 0
217 17 2 0 -71.84526498970331 77.58452059530417 -31.25945401861246 1 1 1
78 3 3 0 -40.84857786844107 71.88121322954609 -31.860119566257072 0 -2 0
80 3 4 0 -45.21460698205861 81.25464055393448 -28.214029359371068 0 -2 0
79 3 3 0 -41.36171272042128 77.19311341571989 -28.791031987250683 0 -2 0
81 3 3 0 -50.67711738346562 82.6205755984803 -29.10695211846966 0 -2 0
187 14 2 0 60.796308226915095 4.737285657508868 -12.488498016559072 1 0 -2
229 18 3 0 -78.50905806070567 17.69926239623271 14.632732592847239 0 -2 3
243 19 1 0 12.681808746408299 12.553352742037085 9.777807814233599 1 0 -1
244 19 1 0 16.9559216363472 8.557741940742881 9.417497405231046 1 0 -1
245 19 3 0 21.74887113354548 8.21986373334595 5.919915238194807 1 0 -1
227 18 2 0 -81.60432034315781 21.87785302487965 4.717082211391584 0 -2 3
228 18 3 0 -80.07051272762018 21.886786547121428 10.575170667541588 0 -2 3
242 19 4 0 10.584027018787348 18.03542776117056 8.70830715792863 1 0 -1
241 19 3 0 9.609171436814199 23.616644447398862 10.803537879259013 1 0 -1
232 18 4 0 -85.40421249399587 4.054394316337071 20.594923316988197 0 -2 3
230 18 4 0 -82.46121351770519 14.855322080560967 18.12303275127257 0 -2 3
231 18 3 0 -85.15460132071676 10.004192856130594 20.40101412034035 0 -2 3
239 19 3 0 11.894119091529413 31.528208548775016 18.14625011015271 1 0 -1
240 19 4 0 9.955708252142358 26.591340536130453 15.766305522036854 1 0 -1
238 19 3 0 11.46977400380116 37.25808019631227 19.311763231295817 1 0 -1
237 19 2 0 12.265431298729833 41.38927941266184 23.44871938793365 1 0 -1
173 12 1 0 96.06750793298316 17.6535198496034 73.62947009068864 -1 4 -3
46 2 2 0 6.2830288527261855 2.0999001757023104 48.66056823148783 1 0 0
56 2 3 0 25.451031462827498 8.543943556614288 44.8093670441723 1 0 0
57 2 2 0 24.25677151544284 4.4668197245741785 48.73001506650617 1 0 0
55 2 2 0 24.487526142790074 12.42637417850093 40.73968479922904 1 0 0
58 2 4 0 22.144948255090817 2.023439696148269 53.561275470210795 1 0 0
54 2 1 0 22.483290025204095 17.670748914353712 39.86383358084475 1 0 0
53 2 1 0 23.54028333770972 22.458428022915157 42.95438421991059 1 0 0
52 2 1 0 22.942605028509977 23.580147384789914 48.76728323370808 1 0 0
108 6 3 0 -37.54664041922088 93.7076182618322 34.23664499419085 -1 2 2
109 6 3 0 -32.01634050798859 94.43701637387026 36.98633640408451 -1 2 2
107 6 2 0 -42.5687846686115 90.86805996538243 35.60825679158334 -1 2 2
110 6 4 0 -28.016504740296096 92.2067912680975 40.402189110371374 -1 2 2
111 6 3 0 -27.94603638059553 92.82677038859636 46.25082097432089 -1 2 2
112 6 4 0 -28.132948932137914 95.55987191780794 51.14823865780724 -1 2 2
33 2 1 0 -50.008540129585526 0.45738706826262104 65.28476968337267 1 0 0
34 2 2 0 -46.61650755678676 4.917874211969682 66.6364751884836 1 0 0
68 2 4 0 -24.62532366735592 4.449284454445266 49.90758938991548 1 0 0
67 2 1 0 -19.05905383473637 3.5419794757185143 51.38661942200561 1 0 0
136 8 1 0 -21.343384055082428 7.147578048016759 63.92175373737065 4 -2 2
135 8 3 0 -20.867125626146752 12.90936679993908 64.05505302294083 4 -2 2
69 2 1 0 -29.751992858861634 1.8043813228758148 50.72060682823251 1 0 0
66 2 4 0 -13.618993365066785 5.749608859868736 52.21149672831 1 0 0
65 2 3 0 -8.401213864158905 3.3598303122567286 52.88807028128419 1 0 0
64 2 2 0 -4.15147459666687 2.770610132300007 56.80023368082647 1 0 0
47 2 1 0 10.31701888176765 5.965355307745071 50.97851072566338 1 0 0
48 2 3 0 12.551921357837282 10.326768689274642 53.85770737950135 1 0 0
246 19 1 0 25.163682877511125 4.757483900011682 2.731286010855254 1 0 -1
49 2 2 0 17.90263936863879 11.227801252452904 56.01958618009077 1 0 0
50 2 3 0 22.404353053897722 14.288708164971656 54.83123627369631 1 0 0
134 8 1 0 -17.14587011953525 17.469792418978102 63.890825308214346 4 -2 2
133 8 1 0 -11.814475582734048 20.36955934304099 65.53702894304874 4 -2 2
132 8 4 0 -12.316447103452862 25.48816231892291 67.46755328882686 4 -2 2
131 8 3 0 -10.284061519369827 31.19647961137775 68.02903084901725 4 -2 2
51 2 3 0 24.724198996702672 18.57928751412631 51.664321251586266 1 0 0
167 12 2 0 -98.50004563568046 47.78277345399692 60.43691647203627 0 4 -3
169 12 3 0 95.69368596436935 39.00254876637576 65.07621999359544 -1 4 -3
127 8 2 0 -4.422789871094766 46.91134460816 56.988091213080814 4 -2 2
128 8 3 0 -7.411430270634481 41.65217360808119 57.169564329738584 4 -2 2
129 8 3 0 -6.119751865629496 36.571927781569094 59.321346308689684 4 -2 2
130 8 4 0 -6.30245106495745 34.0010845379456 64.88664853765196 4 -2 2
168 12 3 0 97.60396526839052 43.582491501191924 62.07843652384634 -1 4 -3
113 6 1 0 -30.63450427005893 97.15209762622366 56.133869418882 -1 2 2
172 12 4 0 94.7682778633039 22.796340437847974 70.51336860142291 -1 4 -3
35 2 1 0 -42.57364619989512 6.1862061106046395 70.1937231264995 1 0 0
36 2 2 0 -37.68969003880733 3.2479413752459605 72.26168018200087 1 0 0
171 12 3 0 95.28701508145782 27.997340585895696 68.0803471641302 -1 4 -3
175 12 3 0 93.70820192113828 10.761216555286074 82.40060745866597 -1 4 -3
174 12 1 0 97.3807595827049 13.936849271409622 78.22240528734731 -1 4 -3
176 12 1 0 91.25205969022582 5.5962831639983825 80.92709233017506 -1 4 -3
170 12 4 0 96.82468440345295 33.77787634056108 67.64733523542736 -1 4 -3
1 1 2 0 58.98065835546147 97.71256262947041 58.17502001604115 3 2 -2
186 13 1 0 -82.19436757279392 1.536798469107331 99.6778866252998 1 1 -2

Velocities

191 0.00028532415404567514 -0.00023918207198180664 -0.0004364541817964359
149 8.740914927457414e-05 -0.00088131908853368 0.0013927960363213049
148 -0.0003968154109013146 -0.00013084261264170532 0.001217515107662253
147 0.0016037847474845834 0.000768679664611122 -0.0009518667630612005
180 -0.0007649888807304078 0.0014964656263082258 0.0012445130596202643
181 0.00010605278177160373 -0.001932611395911761 0.0008519239077724713
178 -0.0008427040577691781 -0.0017436349806783907 -0.0003154385550809426
179 -0.0016894099278183174 0.0017030544524874866 -0.0017439680275949253
185 0.00085625681125736 -0.00025808857487721046 0.0022101792832111044
184 0.0008644909747847648 -0.001127558644706576 0.0008997511844028454
183 -0.00020129997195452796 0.0008921626854134796 -4.515421924704606e-06
182 0.0006420656116509951 0.0007886469495815249 0.00037022521135386156
177 0.0011167345986488083 -0.0012465281059177336 -0.0001989198926644745
201 -2.722398455183356e-05 -0.0013408490990049766 0.0006266692903232799
202 -0.00048053481634431893 0.0002289248018028304 0.00042031976631246503
203 0.0002984755644861203 -0.0005696671612688231 -0.0009354982899442793
205 -0.00012902224878211184 -0.0008263153595437019 0.0006099266293289096
204 -0.00022742137502457658 0.00013359596887802742 -0.0018117997252013757
206 7.079074470091285e-05 -0.0025176294482698565 0.0007414147304846508
197 0.00030813556723654063 0.0006770794484113451 7.930102505164296e-06
94 -0.0001505175162753027 0.0008187064202137661 -0.001431683908535494
198 3.5985166856919695e-05 -0.0012262771219269891 0.00018261495255214295
200 0.0007731350690045063 0.0011009035020674682 0.00023598907827397224
199 0.001181291323090308 9.035619782927804e-05 0.000555780099553297
95 0.001357923486107313 0.0001247103093066666 0.00014481592891030524
96 0.0008606522107662385 -0.0007479964847550938 0.0001524193408456913
88 -0.0003664159482610329 -0.0011474369632140057 0.00019777918411241241
93 -5.059203670981058e-05 0.0006799645952257427 -0.00012416724854631784
97 0.001457198214081488 0.0005914524107614561 0.00021055308708714038
98 0.0014798338856334987 0.00026997669182799334 -0.00036056828873463757
89 -0.00011018848996080936 0.0007805508643604252 0.0003577987250251394
91 0.0006818946863395096 0.00013251955827582094 0.0011684409177686117
92 -0.0012949578311867206 0.0003735797407220373 -0.0004575523925268088
90 -0.0006141879973418547 0.00011040325500728839 -0.0001140078462553653
105 0.0005478731153303992 8.101794496094082e-05 0.00036545484863234715
106 0.00046502908355533696 -0.00047422299882486066 -0.0003521900434976746
104 0.001143107207039131 0.0004402738096001021 7.534355315764057e-05
87 -0.001164562999082698 0.0010189989536924333 0.000503831538695666
99 0.0009159645789875736 0.0003987157555217088 0.00043191744477943467
102 -8.403578683111813e-05 0.0006016108759620872 -0.0011229145304054867
100 -0.00011612066170342512 -0.00047690576410088046 -0.0004692176867900801
101 -0.0003852528288006249 0.0014813529212452563 -0.0011546789952502651
103 0.0007362975335375231 -0.0013649756005451848 -0.00012237045491419787
196 -0.0017019881263487455 0.0007919829360483289 0.0004998391974661775
195 0.00011050075914323713 9.435737355261361e-05 -6.0995198208108334e-05
194 0.0014199457423909672 0.0008786507620920415 0.0008390880448248101
193 0.0005839625962127528 -0.0004392906984209136 0.0005179835363401912
192 -2.4661526853960435e-05 -0.0008041295101051417 -0.001328377261027695
189 0.0011098904692096775 0.0003381345636600919 0.00016782096641485526
190 0.0014232920471532562 -0.00046990606688691286 -0.0018774067038621314
166 -0.0024600866742426146 -0.0009766603064160374 -0.0008003635805100562
165 -0.0003386402264040213 -0.0010766818366093505 -0.0013180260024434772
162 0.0011956353726741763 0.0008104189113301099 -0.0011625855119663765
163 0.0006415437065296534 -0.0005210338840860462 8.583730928120842e-05
164 -0.000766049129388827 0.0007129790617226583 0.0003386275809404873
161 -0.0011937916418567954 0.0010216671861097162 6.904066982266377e-05
160 -0.00033566302582488676 0.0019661270504251257 1.5591722182457695e-05
159 3.8436132735422266e-05 0.0005658082367345224 -0.0007045887084086301
158 9.855125574923199e-05 0.0013747130170901909 -6.905029926555765e-05
260 -0.000893217258290503 -5.605371994411589e-05 -0.00019869811207844491
259 -0.0005821876253652926 -0.0005585341774829945 0.00035959169126294156
258 0.0006641597353818835 0.0005494946986109778 -0.0008442084229056272
261 -9.770214068060293e-05 0.00010006016791674431 0.000675094227465908
263 -0.00022736750374351342 -1.196322478267864e-05 0.000981990926863107
262 0.0016780066036303286 0.000295230619400905 0.0012422159371302
264 -0.0013895352872698049 0.0006197052163865555 -0.000790880192053646
207 0.0030725904334533687 5.3198427638307064e-05 0.0020579966857468936
208 -0.0007712540110698706 0.0011464871550735099 0.0016946968901880917
157 -0.0008667469481328112 0.0006127043832790363 -0.0015567062788069514
233 -0.0005723812469345642 -0.00031260084757456344 -0.0015780628740862644
234 0.00020624996652224785 -0.00038347571900213765 -0.0006824762486797436
235 0.0004244821918247953 0.0011304074873102735 -0.0008586155425109971
236 0.0004772585082420335 -0.0002623104620359355 0.0004866135508635764
266 0.00017529243038858855 0.000367887820748956 -0.0008552662304486731
265 -0.0015182588136046094 0.0008599186322890201 0.0001851473712662179
214 -0.0011124573211082434 -0.0002853547252971273 0.0005317683115689082
216 -0.0015901214428237186 -0.0005134875519238902 -0.00010036160882007572
215 -0.0006199233853462573 -0.001110457306726602 -0.0008781704868266228
213 2.1371447016987827e-05 0.00036939938246262333 -2.2695619118272253e-05
212 -0.000965363261750051 0.0006457372885639237 -0.00042499220898215137
211 -0.0005200907601292877 -0.0005524810511025532 -0.0006222275369888171
210 -0.0008945260668171294 -0.001064923194199041 -0.0008344754138030687
209 -0.0002678850156955339 -0.00012122854634872115 0.0010175724005167606
43 0.00047340175551728375 -0.0012630195061335329 -0.0002336259266753294
44 0.0008306510088233256 2.903768919719093e-05 0.0003860310400510284
45 -0.0018135723757638409 0.00038376100990395595 -0.00028069155633897783
114 0.0001487553076439897 -0.0007213949909841361 0.001549853700472526
115 -0.0006579523645747224 0.00048388096740662373 -0.0008073265300278974
116 -0.0008234171956861083 0.0005805151797686655 0.0009407529175428017
9 -8.28178166829391e-05 0.00036604742488520513 0.0005688521710924485
2 8.999882913911464e-05 -0.00040721177441838997 -0.0012320104220163838
5 0.0008410560487963156 8.396981363539823e-05 0.0002892343975146513
4 -0.0007540299075374653 0.0002177214810415373 -0.0022668273467485837
3 -0.0010347485763503661 0.00029889249857954677 0.0011686289319647108
137 0.001138590372314996 0.0007469607532593486 0.0001493175370032683
10 -0.0006905033407416728 0.0003536774227551625 -0.001467928245393966
7 2.122376169898188e-05 -0.0012589013193795972 0.0010566852336728375
8 0.000619982327313528 -0.0004721023261767635 -0.000653387092503212
6 -0.0001919091544768842 -0.0015545623243012792 0.00023355090575630368
15 0.0005202622280078858 0.0008632622285193811 0.0013084401238743918
14 -0.0003584863007682049 -0.0009226702036682215 -0.0009624795268915921
16 -0.0011357832118866595 -0.0012402544109128908 -4.8326194739116825e-05
13 0.0014127392090166736 0.0005019098941609545 -0.00025480855801077477
18 -0.0003932089346916461 0.0001359189902084022 0.0012507002108525429
19 -0.0018297261217538542 0.0010545164685882137 -0.0003677006918535408
17 -0.00018164445372949065 0.0009373097338009182 0.001746645192061196
20 -6.415205345488024e-05 0.001505230116337914 0.00016090942065269853
32 -0.0016691363298924381 -0.0007545242482954515 0.0027088509409045163
31 -9.428301004068355e-05 -0.0013406912385198894 -0.00028529548724556705
72 -0.0006976763292907684 0.0011428050901717691 4.6298118903530586e-05
71 3.8158522556444306e-05 -0.0018685564624296215 -0.0007665507620004531
73 0.0018435961422895181 0.0009266956279742331 -0.0010942361066669912
70 0.001384542971408577 -0.00025270922336787866 0.0010694976474169198
41 0.00016119992697528792 0.0007917418957203716 0.0005304510247031896
40 -0.0008347964718598719 0.00046873781345200844 -0.000381103987304014
39 0.00010671768476128881 0.0012738521324539634 0.0018849720364353694
63 -0.0001966942477184318 -0.0005129498027364023 0.0008472600997036534
42 0.00020052741341958596 -0.0005596186690995567 -0.0019263432709441073
60 0.0018588602558106272 0.0008794956896017862 -6.960783765475665e-06
61 -0.0008441054105019678 -0.0017273202370787452 0.00080899062820278
62 -0.00011409252399231494 0.00019335214035397133 -0.00021291709546637392
251 0.000408338119821437 -0.0019112160822374101 0.0007346921821571865
138 -0.0011958067964339932 3.217558174010672e-05 -0.0008148239044017424
139 0.00042560800562510683 -1.6358960903055704e-05 0.0012250320283215944
140 0.0005354205066998529 0.0011487079056404818 0.00037889130447171137
141 0.0015140320003445772 -0.0003224793532683136 -0.0007493600253664291
252 -0.0019104048213854192 0.001892944091861354 -0.0002210105349487537
12 0.0007021255173495461 -0.0003397759156069707 -0.0006638983139321913
11 0.0009004464701032056 -0.0006025586984171996 0.002265734783073651
143 -0.0010294939323997581 -0.0011591917454646502 -0.0005194216612386827
142 -8.291720965916788e-05 -0.0011760061441908522 0.0006519731194694229
144 0.0010942718304660624 0.0005827826930861371 -0.0005821425582549913
253 -0.00012844897811983808 -0.00012010114222159201 -0.0006708738360655851
254 -8.31144418300326e-05 9.915040592112425e-05 0.0003205856860261043
255 -0.0004769308341669249 0.00022510903972620773 -1.9357905491710697e-05
256 0.0012842691198576782 0.0001905474509338505 -0.0004137093855014073
123 0.0003526427822467475 -0.00019950213512910263 0.00021010350913800135
126 0.0004956656319781964 -0.00016550971591497603 -0.0007551093377476001
124 0.0005620082984500296 9.151803233728691e-05 -0.0002155543943555317
125 -0.0011094162555934156 -0.000678299451415977 0.0012266986391354137
145 0.00012268127630530549 0.00027078816312147075 0.0009437626872866201
146 -0.0005657483283619898 0.000175272691393922 0.0008725186613377135