LAMMPS data file via write_data, version 29 Aug 2024, timestep = 105000000, units = real

2066 atoms
4 atom types
1865 bonds
1 bond types
1664 angles
1 angle types

-470 470 xlo xhi
-470 470 ylo yhi
-470 470 zlo zhi

Masses

1 329.2
2 305.2
3 345.2
4 306.2

Bond Coeffs # harmonic

1 7.5 5.9

Angle Coeffs # harmonic

1 5 150

Atoms # full

2021 197 3 0 -191.21797889881745 -454.96801646503644 -461.24786947905255 0 0 1
2022 197 4 0 -187.21714916208592 -459.00970380973257 -462.4290896449723 0 0 1
2023 197 1 0 -186.2814009393702 -463.3837731549501 -466.21659170556126 0 0 1
2024 197 1 0 -182.35910479270783 -466.4883021055261 -469.68568088430123 0 0 1
2020 197 4 0 -193.21487769006032 -449.508193838031 -461.7173990264655 0 0 1
2019 197 3 0 -194.6791729674039 -445.6808709920099 -457.5352119109238 0 0 1
2018 197 3 0 -194.42916699841894 -440.6292420362887 -454.5784680210976 0 0 1
2017 197 2 0 -192.3271773370211 -435.2498207173094 -453.55099130130975 0 0 1
253 20 1 0 -40.36539866610184 -384.12247830930556 -417.8451415499059 0 0 1
252 20 4 0 -34.9278037178274 -383.2834544443779 -420.63930633161584 0 0 1
251 20 3 0 -30.94877205597283 -379.8842074152278 -422.81150527957504 0 0 1
250 20 4 0 -28.97840505423329 -375.06019542912816 -425.50794784938535 0 0 1
249 20 3 0 -24.32992582619603 -371.72434439681683 -426.97926017306463 0 0 1
248 20 3 0 -24.098628389057723 -366.8240589752893 -429.6013058642111 0 0 1
247 20 2 0 -23.99718279904711 -360.94224174559906 -430.72480574740814 0 0 1
1003 95 1 0 -154.5605458968795 -426.190851361676 -406.56518616802043 0 1 0
1002 95 4 0 -155.83729850432826 -430.3467272359639 -402.55976134785766 0 1 0
1004 95 1 0 -154.55943422578991 -421.5853674444283 -409.8771479691218 0 1 0
1006 95 1 0 -158.78451918971254 -412.8819589623006 -415.527333361149 0 1 0
1005 95 3 0 -156.08047231441972 -416.32393220690653 -411.27898171264883 0 1 0
254 20 1 0 -45.20724501118341 -381.82715701381346 -416.02577980234065 0 0 1
256 20 1 0 -46.03510982738876 -373.32928913330556 -409.68482279288764 0 0 1
255 20 3 0 -47.83124917830489 -378.43043808637515 -412.4267250448128 0 0 1
999 95 3 0 -141.87700412849853 -436.37772180845803 -401.28594265434646 0 1 0
1001 95 3 0 -152.34949622295753 -432.18228528676076 -398.248292971599 0 1 0
998 95 3 0 -136.3449750507349 -437.7914979714825 -400.83358868211633 0 1 0
1000 95 4 0 -146.77086322094476 -434.71850495323287 -398.81402556637903 0 1 0
997 95 2 0 -131.51329353022643 -437.8120519236266 -404.16637055779745 0 1 0
167 12 2 0 -140.74928781980927 -260.20133851557426 -334.7988175610195 0 1 1
168 12 3 0 -141.82503467631346 -254.48666246107723 -334.8176598582919 0 1 1
728 68 3 0 -424.4658375094242 -275.88625495956495 -325.26686347298204 0 0 0
727 68 2 0 -428.011460844359 -273.5566933221234 -328.71129847574105 0 0 0
170 12 4 0 -151.57844808991516 -249.048554974472 -333.7252522097606 0 1 1
169 12 3 0 -146.9592407379655 -251.7585429806241 -335.76109649662584 0 1 1
173 12 1 0 -154.05955130303707 -236.58828914321853 -325.0352158670466 0 1 1
172 12 4 0 -153.71148124571974 -242.46177977278325 -325.1564430567971 0 1 1
171 12 3 0 -152.9825537142689 -247.34325353834643 -328.58256067669794 0 1 1
729 68 3 0 -422.66429429281027 -278.19226639308357 -319.8219136847343 0 0 0
731 68 3 0 -421.4659165490534 -274.5784984148026 -308.99472346236195 0 0 0
730 68 4 0 -420.64371700575964 -276.6177422231068 -314.39523379711574 0 0 0
733 68 1 0 -421.8152005842179 -274.55055402693483 -296.93629500622325 0 0 0
734 68 1 0 -420.0901100528514 -272.2359723873803 -291.71857827405773 0 0 0
732 68 4 0 -421.2580331292763 -274.2685044363904 -302.8288962491331 0 0 0
735 68 3 0 -418.6021331793576 -268.3985608786536 -287.68175581189087 0 0 0
736 68 1 0 -413.7341157040717 -268.6873163413584 -284.5180258870908 0 0 0
1832 178 4 0 -460.739387515137 -256.9310600599235 -155.96680195368285 1 1 0
1833 178 1 0 -465.1600045352168 -255.66602154782368 -159.27724717849432 1 1 0
1831 178 3 0 -459.8262329399799 -259.68243729411665 -150.75097726597838 1 1 0
1830 178 4 0 -461.37659818928546 -259.83927922189577 -145.01771119321796 1 1 0
1829 178 3 0 -459.4760745571333 -264.7152072923154 -141.76756650178777 1 1 0
1828 178 3 0 -458.9800462310606 -266.562740315881 -136.0428088430128 1 1 0
1827 178 2 0 -459.91114804684145 -271.0349320528496 -132.45324168675432 1 1 0
1927 188 2 0 -405.1553323734881 -463.69791139726715 -115.6339393650844 0 0 1
1928 188 3 0 -401.73045653706146 -458.8991533922632 -114.97502789869033 0 0 1
1929 188 3 0 -396.0245946731458 -456.9303424254626 -114.42369362851593 0 0 1
1931 188 3 0 -386.06688642860905 -455.69947815289197 -107.9419216924105 0 0 1
1932 188 4 0 -385.65263473512226 -457.6920122130804 -102.2138495782522 0 0 1
1930 188 4 0 -390.8531262021427 -455.21901800787776 -111.62777085188395 0 0 1
1933 188 1 0 -386.68997050980255 -461.9488776911415 -98.28025081985079 0 0 1
1934 188 1 0 -389.91647867167876 -466.5816931448336 -96.45837805264517 0 0 1
277 23 2 0 -403.07497736140886 -405.50349140134944 -31.454960179331366 1 0 0
278 23 3 0 -404.7772215592189 -401.0959558978837 -34.57587218382623 1 0 0
279 23 3 0 -404.58816425871055 -396.122740142569 -37.33440007897264 1 0 0
454 40 1 0 -78.65166668115016 -346.7753201361077 -32.91692553455599 0 1 0
456 40 1 0 -76.42921161333045 -337.4982046827815 -37.664274274405635 0 1 0
455 40 3 0 -78.16801539465635 -343.0100523304702 -37.38644580455511 0 1 0
280 23 4 0 -403.448936408324 -390.40824271797936 -37.115693592931855 1 0 0
281 23 3 0 -400.38109027440163 -386.5183328571287 -34.18022340430937 1 0 0
282 23 4 0 -397.32014537917024 -383.4299389951766 -29.706154881003794 1 0 0
283 23 1 0 -396.50360958805993 -380.442255594746 -24.792824616237965 1 0 0
284 23 1 0 -394.2009577122311 -376.03005111243993 -21.844308246731945 1 0 0
449 40 3 0 -97.75158526164796 -345.4560778719436 -22.347002610183782 0 1 0
448 40 3 0 -103.06953548073758 -345.1604827987861 -19.621033873662633 0 1 0
452 40 4 0 -86.70967035814137 -354.22387041370325 -29.75900155412072 0 1 0
451 40 3 0 -91.21195937770295 -352.7757392408898 -26.21206089508975 0 1 0
450 40 4 0 -94.71660102589247 -348.02064866621924 -26.37007681890781 0 1 0
453 40 1 0 -81.90999949758441 -351.72396394418075 -31.7179048727242 0 1 0
542 49 4 0 -82.17647900170039 -320.7279476022795 -20.688842674609358 0 0 1
541 49 3 0 -82.16665190906211 -314.9038408500694 -21.65078233650064 0 0 1
540 49 4 0 -80.32908093275391 -309.71861165607856 -19.546531806258212 0 0 1
539 49 3 0 -80.2602433984253 -303.78199789835105 -20.70908327927263 0 0 1
537 49 2 0 -77.00415989048264 -293.92886672946145 -23.138708590390785 0 0 1
538 49 3 0 -78.57596486503994 -299.58620418951267 -24.647246847785464 0 0 1
544 49 1 0 -74.86943870621718 -328.0216378950377 -15.15974635380299 0 0 1
285 23 3 0 -393.77604512341935 -371.0976929648794 -18.122565301820664 1 0 0
286 23 1 0 -391.76618277864696 -368.33366347506546 -13.417478333148962 1 0 0
199 15 3 0 -120.90217686812774 -378.32457468081674 -1.8785056062857843 0 1 -1
198 15 3 0 -115.62991936865201 -376.7772848468195 -3.216365551274858 0 1 -1
197 15 2 0 -113.81658261706563 -374.5460429463813 -8.517351874316006 0 1 -1
447 40 2 0 -107.72535383024548 -342.2134102212506 -17.116097151183915 0 1 0
545 49 3 0 -72.9963917644449 -330.05564622138826 -9.887978816248632 0 0 1
543 49 1 0 -79.78673113584851 -325.26329066859165 -17.45762432009974 0 0 1
546 49 1 0 -73.43184144698975 -329.95024092566587 -4.077666568299061 0 0 1
205 15 3 0 -120.65073752415293 -405.8362292840995 4.937929767879589 0 1 -1
206 15 1 0 -117.98375890193226 -410.79669401641974 3.3497070601469425 0 1 -1
204 15 1 0 -122.86162489731697 -400.51108135714367 3.0731986919312444 0 1 -1
202 15 4 0 -130.81294160833522 -392.32095281318817 0.8253843084479665 0 1 -1
203 15 1 0 -127.72732689523882 -397.1161073703734 2.8448287653497766 0 1 -1
486 43 1 0 -220.83648987250567 -278.08090543204065 194.29364066778388 0 0 0
306 25 1 0 -239.76445057172964 -332.8901925904758 54.92174026639894 0 0 0
305 25 3 0 -238.91807179432288 -329.67698831775374 59.75502092588455 0 0 0
304 25 1 0 -235.24600856280745 -328.39570119460933 64.03081838484756 0 0 0
302 25 4 0 -224.58721796982618 -326.3737676834696 66.23603152212598 0 0 0
301 25 3 0 -222.4921121929789 -321.96186824488956 63.154123917426354 0 0 0
297 25 2 0 -204.0794734393724 -311.2217088491443 55.12105508906105 0 0 0
300 25 4 0 -218.7270620871629 -319.11906943331417 59.81599777216303 0 0 0
298 25 3 0 -209.42969102864765 -313.2272860318349 57.71566589129485 0 0 0
299 25 3 0 -213.33757133996062 -317.2545848497713 58.52660474612483 0 0 0
303 25 1 0 -229.6362307777467 -328.54782870350505 65.87664191121266 0 0 0
1276 122 1 0 -95.28057609421167 -414.06120107041085 148.41444102625516 0 0 0
1275 122 3 0 -89.96123467331262 -416.6016408979931 149.14201118121184 0 0 0
1274 122 1 0 -85.50450143202468 -415.0325514454287 153.05949043558618 0 0 0
1496 144 1 0 -191.76711907373945 -408.95908616240433 153.50515839863363 0 1 0
1495 144 3 0 -191.1880929141499 -402.999178345425 153.11947362157267 0 1 0
1273 122 1 0 -80.67234479244865 -411.5376887790507 154.211854237096 0 0 0
1272 122 4 0 -76.90392867564054 -406.99641229518596 153.99754029310446 0 0 0
1494 144 1 0 -193.1944632938085 -398.47728890070107 155.77891150665317 0 1 0
1493 144 1 0 -194.21176725876376 -395.66714415145617 160.74128295796427 0 1 0
1492 144 4 0 -191.26396505365835 -393.0462204534083 165.263645949143 0 1 0
1491 144 3 0 -187.1110436854887 -389.04931227527464 165.70278927507715 0 1 0
1271 122 3 0 -75.77465122579449 -402.1140982757507 156.87068024644526 0 0 0
1270 122 4 0 -70.91220591831231 -400.6294001677857 159.54952960172508 0 0 0
1269 122 3 0 -68.07246780079568 -396.62418356224146 162.76555993826545 0 0 0
1268 122 3 0 -67.93957575836285 -391.3711608396731 165.4406740161506 0 0 0
1267 122 2 0 -67.83708414628943 -387.51467331090527 169.6651381522283 0 0 0
478 43 3 0 -224.79019023403555 -298.7134136353115 164.39925382380818 0 0 0
477 43 2 0 -223.78778186832847 -294.82973226714716 159.83324572230418 0 0 0
1489 144 3 0 -185.16607340888913 -382.4809562598715 174.48796326169483 0 1 0
1490 144 4 0 -184.67359693576282 -385.87866747818947 169.70117932983186 0 1 0
1488 144 3 0 -184.1981181901371 -381.26633020562565 180.45214260310343 0 1 0
480 43 4 0 -223.90539805355473 -302.03290163935367 175.11177449966956 0 0 0
479 43 3 0 -226.17648681721542 -300.793046718927 169.9288547810996 0 0 0
483 43 1 0 -221.98445188665846 -292.5787293658186 185.46799319783844 0 0 0
481 43 3 0 -220.17667291857276 -299.6647863189455 178.76603445194854 0 0 0
482 43 4 0 -218.49692648248958 -296.38624879843564 183.29962368120812 0 0 0
1487 144 2 0 -182.90048802580452 -384.7737750427408 185.11716900468943 0 1 0
485 43 3 0 -221.091818266551 -283.3741617627401 191.49808437734364 0 0 0
484 43 1 0 -221.9639995619254 -288.8885269172395 190.07128264639448 0 0 0
201 15 3 0 -128.59561104623907 -386.32738256685633 1.3826115137877217 0 1 -1
200 15 4 0 -124.89485089952478 -382.16738575651647 0.42877308390817187 0 1 -1
2010 196 4 0 -355.6851468629992 -464.6785042552685 263.8060976610577 0 0 0
2011 196 3 0 -353.0406401418597 -460.3451163016446 260.6573325389664 0 0 0
2012 196 4 0 -349.07502317073 -457.34794940576666 257.668668872042 0 0 0
2013 196 1 0 -348.72177859189566 -452.1657715369062 254.52916472239966 0 0 0
2016 196 1 0 -353.3964841372654 -438.23019086530263 251.94784673755848 0 0 0
2014 196 1 0 -352.06074149356624 -448.7543549155214 250.55632183036582 0 0 0
2015 196 3 0 -352.5238680414917 -443.2813367945557 248.94501368484376 0 0 0
2008 196 3 0 -353.1448719776579 -467.90493732089544 273.6849480955178 0 0 0
2007 196 2 0 -351.4018036648735 -469.70965575315495 279.01565300354247 0 0 0
1393 134 1 0 -218.88856262934075 -332.8326618912019 313.8408672999292 0 0 0
1394 134 1 0 -219.56695739737202 -336.39732684210975 309.19726278585017 0 0 0
1396 134 1 0 -212.3514097854708 -341.74944446977986 302.0048133150806 0 0 0
1395 134 3 0 -215.3641822625453 -337.9859189326754 305.3057113003858 0 0 0
1392 134 4 0 -221.17486194999233 -329.87329531617564 318.50512442826545 0 0 0
1391 134 3 0 -220.77911052951495 -324.3373982957886 321.11948100838936 0 0 0
935 88 3 0 -56.96109752355859 -459.5639402147947 327.8795405859916 0 0 -1
934 88 1 0 -52.38137815594632 -463.3002541342 328.83089046470013 0 0 -1
936 88 1 0 -61.24375629307492 -457.05424985070175 325.3500506854222 0 0 -1
933 88 1 0 -46.506501775038224 -463.3112998071818 329.9729889742288 0 0 -1
932 88 4 0 -43.348729805743865 -462.3295908583578 334.86424563638457 0 0 -1
517 47 2 0 -283.3145051011569 -418.6716458838532 330.10552692305146 1 1 -1
1390 134 4 0 -216.71123517770278 -320.29181828589776 321.0839245594222 0 0 0
1388 134 3 0 -213.02166538987788 -319.0277542765115 331.74086588813276 0 0 0
1389 134 3 0 -213.14183880215805 -319.39683099819916 325.50666552700085 0 0 0
931 88 3 0 -39.73129750829514 -462.6038925582401 339.79079905760045 0 0 -1
930 88 4 0 -40.402633950489715 -461.8493921856224 345.39777149470564 0 0 -1
929 88 3 0 -38.9204644164898 -458.15295799752613 349.9139453634636 0 0 -1
521 47 3 0 -286.10678167411936 -428.45779158520156 350.4597985604555 1 1 -1
519 47 3 0 -282.3907517558168 -424.82669227958127 339.5575123355347 1 1 -1
520 47 4 0 -284.79194657780033 -426.602753523777 344.8104772938548 1 1 -1
518 47 3 0 -282.4356631486072 -419.8895914689124 335.86680414737907 1 1 -1
1387 134 2 0 -215.96613941414773 -321.27259956619037 336.45204318355275 0 0 0
928 88 3 0 -35.39096147880836 -457.9507664072548 354.8475570636142 0 0 -1
927 88 2 0 -32.335225900544835 -454.08699119520634 358.19368053969544 0 0 -1
524 47 1 0 -296.8005729165165 -418.0618719599435 359.0722165624861 1 1 -1
523 47 1 0 -292.96891628000253 -422.3382769594906 356.66227244726736 1 1 -1
522 47 4 0 -290.70096534660485 -427.4236605504959 353.993593708712 1 1 -1
526 47 1 0 -304.5379154572487 -412.04502806304515 355.0122911622304 1 1 -1
525 47 3 0 -301.78203988309565 -415.260313139319 358.83355158211367 1 1 -1
1805 175 3 0 -366.10532505691697 -257.53401345243066 360.3204668947789 0 0 -1
1806 175 1 0 -368.61113217005004 -263.13940809404113 360.0389160561886 0 0 -1
1804 175 1 0 -364.3829399447392 -251.70628714820018 358.89330362079534 0 0 -1
1801 175 3 0 -373.7982196986107 -237.93891696592962 354.61555540282893 0 0 -1
1803 175 1 0 -366.73878408121175 -246.60308816986094 359.3732977622615 0 0 -1
1802 175 4 0 -369.875465811481 -242.012938322046 356.8772198488196 0 0 -1
2006 195 1 0 -69.71264624953665 -259.07792323188414 404.800061562911 0 0 -1
2005 195 3 0 -66.4493446961525 -253.93303289002301 403.3493091692553 0 0 -1
2004 195 1 0 -62.67273056698324 -249.43892735542408 404.00228797738447 0 0 -1
2003 195 1 0 -56.99725901899914 -248.52958549734214 404.6784862628282 0 0 -1
2002 195 4 0 -54.255135765561384 -247.92467122905072 410.0200689022756 0 0 -1
2000 195 4 0 -48.201194269471415 -246.22068431843368 418.24954449412706 0 0 -1
2001 195 3 0 -48.99251700415297 -248.24661857318475 412.61608887506225 0 0 -1
1033 98 1 0 -208.80124889944352 -270.25805123499873 421.1765098727159 1 1 0
1032 98 4 0 -208.42745996439317 -275.51671972287795 423.629226120814 1 1 0
1031 98 3 0 -207.58241852290797 -277.48049080757346 429.1132921100125 1 1 0
1030 98 4 0 -207.69888747426035 -280.97068396684716 433.5424939499602 1 1 0
1035 98 3 0 -204.27237220033444 -261.28072533811957 425.1941024197849 1 1 0
1034 98 1 0 -205.77366575182006 -265.4394097787427 421.31416063149896 1 1 0
1036 98 1 0 -204.7853413183746 -256.80255914560075 429.10614587009985 1 1 0
1999 195 3 0 -47.624451896405034 -247.66757366039016 424.0336965192911 0 0 -1
1755 170 3 0 -164.4421617038294 -240.45554693828515 432.70574225100404 0 0 -1
1754 170 1 0 -167.17472859760244 -244.06326131680504 436.3905460245558 0 0 -1
1756 170 1 0 -164.1591852245993 -237.50147333857683 427.60606751171 0 0 -1
1997 195 2 0 -46.2992398105123 -253.86616168494143 433.8459424813639 0 0 -1
1998 195 3 0 -46.16158927817049 -251.1902306320146 428.4657618630152 0 0 -1
1028 98 3 0 -206.14405003872318 -286.340814125552 443.29938263874385 1 1 0
1027 98 2 0 -203.90976387847027 -284.91196414899434 448.8516578489649 1 1 0
1029 98 3 0 -205.4576716678644 -284.4218113437514 437.8136869111252 1 1 0
1752 170 4 0 -168.96539019145374 -243.26323759112162 445.7249650386644 0 0 -1
1751 170 3 0 -171.841569838017 -239.88636325329784 449.4872811204362 0 0 -1
1753 170 1 0 -170.11121011379097 -246.03531521156447 440.87696941844314 0 0 -1
2009 196 3 0 -353.36414330830075 -467.8679566613692 268.12483761682506 0 0 0
1500 145 4 0 -417.3477950530202 -45.47129406637557 -434.89142796351865 0 -1 1
1502 145 4 0 -410.4678070537681 -52.75240039267809 -430.8766081169316 0 -1 1
1503 145 1 0 -405.1849895474365 -50.85831269322182 -429.0090576136752 0 -1 1
1499 145 3 0 -417.2680452436862 -39.664009471179654 -436.2360633190468 0 -1 1
1501 145 3 0 -415.7853206173437 -50.72768696629491 -433.15599229088446 0 -1 1
1498 145 3 0 -414.85312281009226 -35.92980375015092 -432.7375707946305 0 -1 1
1497 145 2 0 -411.2170755854728 -35.71145404769507 -428.45042195911356 0 -1 1
1506 145 1 0 -390.48728078404235 -44.4433793660629 -427.03267597911395 0 -1 1
1505 145 3 0 -395.7564929755004 -45.184035407673356 -429.17962976053957 0 -1 1
1504 145 1 0 -400.65520010813043 -47.382635069600646 -427.1555162277024 0 -1 1
1344 129 1 0 -396.459797899147 -56.28721451905921 -403.52098860132656 0 0 0
1345 129 3 0 -393.05408477415904 -52.90498265023521 -407.19137452689904 0 0 0
1346 129 1 0 -391.737645783291 -50.26649745887504 -411.8477298887721 0 0 0
1086 103 1 0 -168.0651520125874 -199.28032963928698 -381.0521618522894 1 0 1
1079 103 3 0 -171.7501883909882 -164.1577697946924 -390.4513662689203 1 0 1
1077 103 2 0 -166.8208820754724 -164.91206839793188 -401.11398948854037 1 0 1
1078 103 3 0 -169.48893242630305 -162.99454868228116 -395.92814311039075 1 0 1
1341 129 3 0 -407.99841000528704 -54.87023214795264 -390.39719501179803 0 0 0
1342 129 4 0 -403.1534090240644 -56.23337574881146 -394.59744042989627 0 0 0
1343 129 1 0 -397.670640732622 -56.07355031323498 -397.3153997284379 0 0 0
1340 129 4 0 -410.09187661635895 -53.05377859073353 -385.2345098088151 0 0 0
1085 103 3 0 -166.75882567648685 -193.77267145152157 -380.86337816791104 1 0 1
1084 103 1 0 -168.86163656948364 -188.58592763291378 -380.27267692493575 1 0 1
1080 103 4 0 -174.05198462672374 -167.8631957785616 -386.5816627740089 1 0 1
1081 103 3 0 -175.21975974643516 -172.47971701404825 -383.0140628335047 1 0 1
1083 103 1 0 -171.09168662647002 -182.85386650075813 -378.59487754011604 1 0 1
1082 103 4 0 -172.86268566156147 -177.2531490312085 -380.3230017129735 1 0 1
1363 131 1 0 -342.7834336303522 -117.8632980843856 -371.5485102449022 0 0 -1
1364 131 1 0 -337.3466086461936 -119.4023816108362 -368.9065881608878 0 0 -1
1357 131 2 0 -372.0498065258953 -107.39378915866168 -370.64957156935276 0 0 -1
1358 131 3 0 -368.7129088947664 -110.99503899401596 -368.0466625319832 0 0 -1
1362 131 4 0 -347.3965727520641 -114.07463822878928 -371.98161791834536 0 0 -1
1339 129 3 0 -412.00128217632977 -49.74722965882214 -380.4266599110578 0 0 0
1337 129 2 0 -414.9706393866164 -45.732252727568074 -370.8386256136198 0 0 0
1338 129 3 0 -415.36128528103166 -47.639644398329864 -376.4749958270232 0 0 0
916 86 1 0 -3.523281323594543 -150.72903073461606 -354.7413009267649 0 -1 1
1365 131 3 0 -333.398202882337 -119.55393876581118 -364.7821323767924 0 0 -1
1359 131 3 0 -363.27607414686446 -113.12343853332659 -368.06066796715294 0 0 -1
1360 131 4 0 -357.7644538709818 -112.31288416355908 -367.89335553036886 0 0 -1
1361 131 3 0 -351.92575082528987 -111.16154642110537 -369.42729632042443 0 0 -1
1366 131 1 0 -329.5639364708785 -117.66163195851667 -360.551427470533 0 0 -1
469 42 3 0 -256.37942639280914 -65.87622877364356 -343.56093147659135 0 0 -1
470 42 4 0 -253.7754547258092 -70.67111850272472 -342.0833431365204 0 0 -1
471 42 3 0 -250.25330223793912 -73.44273676208984 -338.0779038713125 0 0 -1
467 42 2 0 -264.1161020617409 -58.28970246901402 -346.4654214070737 0 0 -1
468 42 3 0 -260.7166374924628 -63.0229186866583 -347.27521404252315 0 0 -1
174 12 1 0 -158.10367790736254 -231.97303113623855 -323.814391005544 0 1 1
175 12 3 0 -160.02118149570697 -227.45566643089566 -320.3280504751294 0 1 1
475 42 3 0 -240.290535953335 -80.1283118444024 -320.37335080785243 0 0 -1
474 42 1 0 -245.23102865260506 -79.44907425132344 -323.9279791304567 0 0 -1
473 42 1 0 -247.9321094740725 -79.48618605448257 -329.1945237736029 0 0 -1
472 42 4 0 -249.78146268142459 -75.74521933124062 -332.9430999026778 0 0 -1
476 42 1 0 -234.44923211317683 -80.72870025387714 -320.0569000088006 0 0 -1
176 12 1 0 -161.15804169374456 -227.30971084087716 -314.3284438979524 0 1 1
1689 164 3 0 -8.492128250646683 -163.96860781079707 -306.02960815756256 0 1 1
1690 164 4 0 -7.249602132251067 -166.22817280724732 -311.4402851812017 0 1 1
1691 164 3 0 -1.5378523209738646 -167.2822318552938 -312.9468203056509 0 1 1
1688 164 3 0 -10.864548224338561 -164.6191802342453 -300.31193082243345 0 1 1
1687 164 2 0 -8.55049109276993 -164.99821108910672 -295.04810705473835 0 1 1
576 52 1 0 -78.47934868184561 -158.82652228047394 -269.64688287510717 0 0 0
575 52 3 0 -79.51789033416371 -161.87478993861976 -265.38715887757957 0 0 0
574 52 1 0 -78.8084142022267 -161.87863507110552 -259.3369627483809 0 0 0
573 52 1 0 -78.67765932955085 -157.86563718218815 -254.93738528325352 0 0 0
572 52 4 0 -75.4579312133893 -155.33014284450482 -250.11188012749867 0 0 0
570 52 4 0 -72.24268711888989 -158.04348613913055 -239.96761226561955 0 0 0
571 52 3 0 -72.86364122859875 -158.0623852442263 -245.88955165833485 0 0 0
569 52 3 0 -68.99359183315235 -156.43354449781526 -235.413882602222 0 0 0
568 52 3 0 -68.84088529398261 -154.49789574745265 -229.93061309438605 0 0 0
1575 152 3 0 -296.18153617958455 -23.29692204701623 -16.88333751194293 0 0 0
567 52 2 0 -71.90117421662939 -151.97307464995325 -225.74657975278978 0 0 0
183 13 1 0 -467.52027407633483 -146.44322788074604 -201.98983030266749 1 0 0
185 13 3 0 -456.6097195067063 -145.05885382933917 -201.83795390893476 1 0 0
184 13 1 0 -461.8306691189432 -146.3191712015908 -204.20809999851542 1 0 0
186 13 1 0 -452.36493052451783 -141.78892203974837 -199.52362060027593 1 0 0
1156 110 1 0 -69.29626488492144 -81.27430994875112 -208.4699973615881 0 1 1
1155 110 3 0 -66.04225517874524 -77.80269265619403 -205.42816512891613 0 1 1
1153 110 1 0 -60.897721478359124 -72.88803154122411 -197.10210460110613 0 1 1
1154 110 1 0 -64.94462790483169 -73.84308758885743 -201.24602817305865 0 1 1
1152 110 4 0 -56.602370380842515 -68.60671686073621 -196.0415758734277 0 1 1
1151 110 3 0 -54.99768210392935 -66.67239712763326 -190.4310180105644 0 1 1
1150 110 4 0 -51.92354730120544 -66.14688924894489 -185.02727938484293 0 1 1
1147 110 2 0 -57.16906120242358 -70.58853480390091 -171.4753642257852 0 1 1
1148 110 3 0 -53.05033592604527 -72.1299698358485 -175.39708127723245 0 1 1
1149 110 3 0 -51.12230415845543 -69.85189100245358 -180.4875398910152 0 1 1
608 56 3 0 -148.87908887202525 -216.53638359440228 -147.86018772357178 1 0 1
607 56 2 0 -151.704560640936 -219.06267790440901 -152.4265751145753 1 0 1
613 56 1 0 -125.35829516075522 -223.2033332884659 -138.91390787453435 1 0 1
612 56 4 0 -130.12535675549245 -222.17890867438473 -141.1751221214762 1 0 1
614 56 1 0 -121.69187128135582 -225.11122047638338 -135.3821577741209 1 0 1
609 56 3 0 -144.33814366263044 -215.74504227884734 -143.9063378567201 1 0 1
610 56 4 0 -138.44037344351233 -215.19046027590522 -142.66844119057575 1 0 1
611 56 3 0 -133.30173821765865 -217.6751338501901 -142.9724470663374 1 0 1
615 56 3 0 -117.17032501205976 -222.34771249237917 -132.93444179642933 1 0 1
616 56 1 0 -119.071812439619 -218.19298925967323 -129.1853603476034 1 0 1
1308 126 3 0 -294.5081575926968 -25.507934279023747 -118.61093781239532 0 0 1
1307 126 2 0 -299.6398964017456 -22.645084674199087 -117.44924231556216 0 0 1
1418 137 3 0 -207.8003448649048 -124.90673379702899 -103.00239535033172 0 0 1
1419 137 3 0 -203.37384558147681 -124.79033230072356 -106.7401099832402 0 0 1
1420 137 4 0 -197.98911460648773 -122.49291032618478 -107.25046176216598 0 0 1
1421 137 3 0 -194.25807657365354 -118.14691254748772 -104.92811261160205 0 0 1
1422 137 4 0 -188.63123625269137 -115.85737336241797 -103.83185711062667 0 0 1
1423 137 1 0 -183.20916519119945 -115.2162753543775 -106.2028858048993 0 0 1
1425 137 3 0 -171.73489506771358 -116.75018331111512 -105.5771476105056 0 0 1
1424 137 1 0 -177.52606679676614 -115.99271769869821 -104.45762954576469 0 0 1
1426 137 1 0 -167.24071111976306 -118.99238638011006 -102.07037492084908 0 0 1
1310 126 4 0 -289.38092004666134 -28.772639583416428 -109.3543288914005 0 0 1
1309 126 3 0 -291.15395239660586 -26.659830045390702 -114.62373160858229 0 0 1
1311 126 3 0 -288.0351499237552 -27.038214940967404 -103.72218814034755 0 0 1
1312 126 4 0 -286.24524223896924 -28.901845144030702 -98.33937584528317 0 0 1
1417 137 2 0 -213.70041280471463 -124.05331281199655 -103.6889574828696 0 0 1
1316 126 1 0 -270.9594313236024 -31.776843435735593 -90.72987980568575 0 0 1
1315 126 3 0 -274.98311139086263 -28.170807068365903 -88.71461623547597 0 0 1
1314 126 1 0 -280.76709357396106 -27.962143735986675 -88.84798369734973 0 0 1
1313 126 1 0 -283.7840175589865 -25.9258825183041 -93.38572066924202 0 0 1
1812 176 4 0 -463.5566005688714 -38.327555437494944 -73.75031537896307 1 0 0
1813 176 1 0 -469.2812072412523 -40.59784852193513 -73.93207865469226 1 0 0
1811 176 3 0 -459.57223373067 -34.33831436352145 -74.28353549170396 1 0 0
1810 176 4 0 -457.0752515099351 -30.193607255156284 -78.08071979351678 1 0 0
1808 176 3 0 -450.6258866321917 -22.05894319412772 -82.80843206721424 1 0 0
1809 176 3 0 -453.10440770085245 -26.902108466638875 -81.26076715208238 1 0 0
1807 176 2 0 -447.37734944858926 -17.644746627474312 -80.69324574390521 1 0 0
1568 152 3 0 -306.76190024096815 -59.29229322023566 -18.317440659554798 0 0 0
1569 152 3 0 -305.7696066247793 -53.49555700858074 -19.540970188292057 0 0 0
1567 152 2 0 -304.5554353120245 -64.96205561155936 -18.853439116294606 0 0 0
1570 152 4 0 -303.22084767932574 -48.128561458924175 -17.538955187997388 0 0 0
1571 152 3 0 -304.3570045240032 -42.05152413294438 -17.79606629814199 0 0 0
1572 152 4 0 -304.0259372034024 -36.81205487742501 -14.769065233532297 0 0 0
1574 152 1 0 -301.08339218984753 -27.008304948788275 -16.971475054149987 0 0 0
1576 152 1 0 -293.2131242616256 -18.867115953712485 -14.960509653190114 0 0 0
1573 152 1 0 -304.71387284256207 -31.136487590415364 -15.78684925949384 0 0 0
1026 97 1 0 -224.23082638135818 -169.50408097093535 14.265704120407511 0 0 0
1024 97 1 0 -234.38226133232712 -166.3675927195927 13.152809016152474 0 0 0
1025 97 3 0 -229.17264429395482 -169.1425302581561 11.222712855434072 0 0 0
1994 194 1 0 -51.16243937991027 -33.982504238337086 17.61560275242374 1 0 0
1995 194 3 0 -48.34133437990886 -29.550952229315683 14.268100447214607 1 0 0
1737 169 2 0 -404.5352481655966 -38.45776785868902 16.538150779299244 0 0 0
1996 194 1 0 -46.28312812273324 -26.7083800945191 9.722010412737772 1 0 0
1977 193 2 0 -217.32893823891254 -214.19494876609485 27.175985253341757 1 1 0
1022 97 4 0 -237.89355274724153 -160.93647735214506 23.120821659637627 0 0 0
1021 97 3 0 -238.4914271457598 -158.73416403870695 28.471079500149557 0 0 0
1023 97 1 0 -238.05968169049333 -164.33355932925224 17.92673577159048 0 0 0
1020 97 4 0 -239.30525281018427 -153.6475926220472 31.32845680839162 0 0 0
1017 97 2 0 -247.55886186235634 -144.79424562378344 24.125102102847723 0 0 0
1019 97 3 0 -240.76484614259104 -147.95763668143695 31.320259112932582 0 0 0
1018 97 3 0 -244.83933061981594 -144.63955258858138 29.600133716882148 0 0 0
1990 194 4 0 -47.09645027186865 -52.78733735210479 28.21284088118497 1 0 0
1993 194 1 0 -49.81335688535532 -39.51905121753188 17.118574267887965 1 0 0
1992 194 4 0 -47.47542982382604 -43.57271391029466 20.727384588107846 1 0 0
1991 194 3 0 -47.40948547320324 -47.415371614416216 25.412661625188413 1 0 0
1738 169 3 0 -404.6550285403116 -32.92004980826654 18.501024094109923 0 0 0
1741 169 3 0 -407.50278663331017 -23.369376161960066 31.692185117997088 0 0 0
1740 169 4 0 -409.27752454120713 -26.412244235645122 26.890585478993792 0 0 0
1739 169 3 0 -407.6405981074851 -29.247045367374298 21.864354495201134 0 0 0
1986 193 1 0 -175.38489728059605 -216.03745334034807 51.59470749800477 1 1 0
1978 193 3 0 -214.38317937148054 -216.00184930830633 31.90345318951193 1 1 0
1979 193 3 0 -209.1134288391925 -215.95682484655353 36.018363982496616 1 1 0
1980 193 4 0 -205.3641289690079 -218.37134816137467 40.010437588777805 1 1 0
1981 193 3 0 -201.5398984475742 -215.84824313703652 43.774830543523386 1 1 0
1982 193 4 0 -196.440266779508 -212.96174949638225 44.8791837751775 1 1 0
1983 193 1 0 -190.4917997787759 -211.76731628450378 45.63105157861171 1 1 0
1984 193 1 0 -184.95693880021105 -213.80420707311197 45.60530020599165 1 1 0
1985 193 3 0 -179.71561118055968 -214.76114319270823 48.0068939582606 1 1 0
1987 194 2 0 -48.840419822759785 -56.006252608513215 43.858985708118006 1 0 0
1989 194 3 0 -48.034705266747885 -56.24179458545448 33.147125180211624 1 0 0
1988 194 3 0 -49.488679353369314 -58.42146767162338 38.39135941610203 1 0 0
1742 169 4 0 -410.56217059915883 -21.142080708939112 36.518153080941005 0 0 0
1743 169 1 0 -410.8016275990143 -21.546106352185376 42.71739114434828 0 0 0
1744 169 1 0 -407.4475969062914 -23.64379688424349 46.93811029697782 0 0 0
1745 169 3 0 -403.4625012142108 -24.991177656821105 51.08760621375872 0 0 0
1746 169 1 0 -401.39901433599243 -23.13672543780336 55.74912754681685 0 0 0
1537 149 2 0 -294.3924310606893 -14.415714570132623 97.31863383939802 0 0 0
1541 149 3 0 -276.0009949681875 -2.1616610185513743 95.19126423839073 0 0 0
1540 149 4 0 -279.60394721013586 -6.444781116538971 97.69369839542193 0 0 0
1538 149 3 0 -288.6748492897861 -13.51092071832482 97.30945392802606 0 0 0
1539 149 3 0 -285.08227109038836 -8.61133909369626 97.02653743318369 0 0 0
295 24 3 0 -374.74784113689265 -138.00647770325946 129.58362874419922 1 0 0