LAMMPS data file via write_data, version 29 Aug 2024, timestep = 105000000, units = real

76 atoms
4 atom types
74 bonds
1 bond types
72 angles
1 angle types

-80 80 xlo xhi
-80 80 ylo yhi
-80 80 zlo zhi

Masses

1 329.2
2 305.2
3 345.2
4 306.2

Bond Coeffs # harmonic

1 7.5 5.9

Angle Coeffs # harmonic

1 5 150

Atoms # full

8 1 1 0 57.18921538422361 -2.9108584181631185 -14.007668828752104 2 2 0
9 1 3 0 52.26329533168267 -0.4555485884413928 -13.140423399900659 2 2 0
5 1 3 0 59.84065856736894 -6.692547813494127 -0.5848759796281723 2 2 0
6 1 4 0 62.85618689308643 -5.548856996327455 -5.485101678449668 2 2 0
7 1 1 0 61.96437205765923 -3.511455111429476 -10.874236256665457 2 2 0
1 1 2 0 45.25475774449658 -19.166307832710093 7.34383340581736 2 2 0
2 1 3 0 49.61520628569665 -15.369137219679066 8.37566428239796 2 2 0
4 1 4 0 54.824425626082366 -8.411476162756136 2.0141804398409264 2 2 0
3 1 3 0 53.624483653642535 -11.18431280091861 7.239540404728402 2 2 0
10 1 1 0 48.82836189738241 3.881937859609708 -13.44271982879632 2 2 0
49 2 2 0 21.57225444118233 37.728366060256526 -4.288781030391465 -1 0 0
51 2 3 0 11.332015632313434 36.69416383605143 -0.22994099025270276 -1 0 0
50 2 3 0 16.35926832760223 35.33600600154935 -2.938686329949389 -1 0 0
60 2 1 0 39.15498877952026 32.08855018808598 -1.2638472458059558 -1 0 0
59 2 3 0 33.79560494433264 30.14534239967127 -3.1220978076980423 -1 0 0
58 2 4 0 28.091043360569206 30.286581009600454 -2.552503681958556 -1 0 0
47 2 1 0 32.34459216830542 41.401827413455344 -3.385837618860162 -1 0 0
48 2 3 0 26.711189805322963 40.83897237873619 -4.3847283555885035 -1 0 0
35 2 1 0 -79.30813662129403 30.617209538396036 19.55633835484397 0 0 0
55 2 2 0 18.63960451292182 34.188692831342614 10.871737001741295 -1 0 0
56 2 3 0 21.20392576879031 29.631199698487833 7.0722781217374155 -1 0 0
54 2 1 0 15.2664186694427 38.93636197814066 11.281859888453338 -1 0 0
57 2 2 0 23.548203506203695 29.16340130849339 1.4124240595426485 -1 0 0
21 2 3 0 42.68674306638364 31.311689986141108 18.011034417533384 -1 0 0
61 2 4 0 42.96766739702902 35.36667081983831 2.145172478518256 -1 0 0
22 2 2 0 46.31265134504712 31.451102794759716 13.263776658307929 -1 0 0
24 2 3 0 56.256407122135236 27.3690927503311 12.129264072998625 -1 0 0
23 2 1 0 51.05239301915492 30.02823067211978 10.463512524311547 -1 0 0
25 2 2 0 57.86701547912874 25.27146666094171 17.40793017949054 -1 0 0
40 2 3 0 57.430093998981796 39.31543186637814 17.026194138123365 -1 0 0
39 2 4 0 62.85287154372225 38.661089665896924 14.921119309519778 -1 0 0
38 2 3 0 67.71760097470123 35.63029501527839 15.24613455262655 -1 0 0
37 2 2 0 71.97816908753155 32.592726676959856 13.737647942704044 -1 0 0
36 2 2 0 77.73973364405967 31.221450778066867 14.590953499776914 -1 0 0
53 2 1 0 11.997631305182196 42.92896472718081 7.711460187314811 -1 0 0
52 2 1 0 8.779165777783371 40.91471650983482 3.1768736780336764 -1 0 0
46 2 2 0 36.260726198774776 43.28416187058345 0.386636500254261 -1 0 0
45 2 1 0 38.42000588821404 43.33973419031723 6.0828946703466595 -1 0 0
44 2 2 0 38.91822455232461 46.91476739094542 11.044142840338997 -1 0 0
43 2 3 0 42.841045755234134 47.74481363443812 15.247695280771136 -1 0 0
63 2 4 0 47.20598680507501 46.35075818823328 2.314328495879933 -1 0 0
41 2 2 0 51.89608343035734 41.76661015956608 18.03786039871105 -1 0 0
64 2 2 0 49.57648752254451 50.89889042657193 5.347059344727206 -1 0 0
65 2 3 0 50.95621987257768 53.37235357197556 10.772244891381462 -1 0 0
66 2 4 0 54.04538623444403 52.770127497389915 15.76407247309396 -1 0 0
42 2 3 0 47.36117056835426 45.083674539557954 17.495018111264535 -1 0 0
67 2 1 0 58.75586984313353 51.31475221491145 18.08796785434237 -1 0 0
62 2 3 0 46.674529071366656 40.38451204656281 1.7163165668129865 -1 0 0
76 2 4 0 71.62758638177993 11.414738801817323 30.740916478216256 -1 0 0
75 2 2 0 68.62147056687505 15.111186179143065 27.465750093782635 -1 0 0
34 2 2 0 -78.82836516372991 27.11206068572635 24.2690465501798 0 0 0
33 2 1 0 -77.53387937174261 26.025568737746084 29.43678732399188 0 0 0
32 2 4 0 -79.93943182358947 22.861789213804744 33.356097174089605 0 0 0
20 2 4 0 42.97887380599657 32.261695756587194 23.741355101634483 -1 0 0
19 2 3 0 43.74134244463527 36.37971884067097 27.957599442745575 -1 0 0
18 2 1 0 44.955390213095704 36.82296520614695 33.99842204585741 -1 0 0
26 2 2 0 56.46586916431439 24.301348386996004 22.642044996854843 -1 0 0
27 2 2 0 57.32755203194488 23.65079272200727 28.741958966063205 -1 0 0
28 2 3 0 60.712369629782714 26.607549371801632 32.6010770852274 -1 0 0
17 2 1 0 46.4264739641123 33.460191951231764 39.13641299528403 -1 0 0
16 2 4 0 49.32493123075976 28.514735971387054 40.472424365816664 -1 0 0
74 2 3 0 69.42534955218962 20.74073348739358 25.06107531772504 -1 0 0
29 2 4 0 64.22347012289964 26.222793132769603 37.294939626393145 -1 0 0
30 2 2 0 69.88245442782251 24.839988120605533 38.33830552257964 -1 0 0
72 2 3 0 68.00196185414228 31.505234775842304 24.45193529982033 -1 0 0
73 2 3 0 70.17352586323611 26.412127198750845 24.681755547148562 -1 0 0
71 2 1 0 66.34641166548087 37.18257862106399 25.03653930155758 -1 0 0
31 2 4 0 75.94172604539592 24.458594370142144 36.88133627614762 -1 0 0
68 2 4 0 62.3187840738292 51.24876999160008 22.58605620154399 -1 0 0
70 2 2 0 67.64407213450161 42.77948378426407 26.802880910780374 -1 0 0
69 2 1 0 66.97246340457127 48.285097582022374 24.783178618255462 -1 0 0
13 2 3 0 61.689387948858595 32.87512773315935 49.41841789871235 -1 0 0
14 2 4 0 57.38751478044808 29.067674362025027 48.185685211129076 -1 0 0
15 2 3 0 54.49028355657186 27.52677902499058 43.25755496789669 -1 0 0
11 2 2 0 71.21631067040427 36.184266622211624 54.59535102286114 -1 0 0
12 2 3 0 65.7667142452804 36.43318245207858 52.20925053446241 -1 0 0

Velocities

8 0.0009745124676968539 0.0011128652651282752 -0.000536176473540954
9 0.0013894145710210831 0.00025205897704783125 -0.0008492059345557519
5 -8.82395490674552e-05 0.0008192590223483443 0.0008830112785940279
6 -0.0012922725342232183 -0.0007273110711185697 -0.0006938611115628481
7 -0.0012647568125354791 -0.0005230264600586071 0.001768158684752995
1 -0.0007022931467682115 -0.000814471872873577 -0.0010849528650248939
2 -8.476531634242534e-07 0.0007304186665770287 5.649959105107587e-05
4 -0.00048119774773381204 0.000884434810138201 -0.0006938821310075189
3 0.001401832187049696 0.000812654681868424 0.00011622899595551339
10 -0.0005759938240638799 0.0006204350466703348 -0.00042671236686361435
49 0.0007409767223236262 -0.0015152839784357305 -3.5233816682337675e-05
51 0.0002733869087665292 0.0010106161700148204 0.0010434907012053644
50 -0.0013371794375803352 0.0012970102892503538 -0.0016086781958141827
60 -0.0010209909589219874 -0.0005502838795420135 0.0005124888952436784
59 8.899274123883129e-05 0.000233948430579222 -0.00031702071742998445
58 -0.00033360958622947367 0.000249233496433876 -3.787592344143814e-05
47 0.0008444391798974052 -0.0005933697948960282 0.00043166691257952273
48 -0.0002599957918588946 0.0013718525195818743 -0.0007727415508678901
35 -0.00021199716561579794 -0.0013603787994434478 0.001087865002987535
55 0.00042609417700533 0.0013246858075619385 -0.0005324186777237952
56 0.001173355256477884 0.0003945311717235669 -4.5938417176959305e-05
54 -0.001115187387472561 0.00012775096197939823 0.0012048777103626273
57 3.102276872162264e-05 0.0008043498318926795 -0.0009507940580067799
21 0.0010483730467453585 0.0012441831279533368 0.0007118055657418509
61 -0.0005648993468397078 -0.00145078050050817 -0.0004836310109967862
22 0.0001330720239129476 -0.0005510058764397553 0.0006932843768054654
24 -0.0004775011162695014 0.0005442406359264523 -0.0010877098795898103
23 -0.00011401779824657446 0.0011263286862681842 0.0003437977651354028
25 0.000977541125152851 -0.001313873930832908 0.0002665270305699086
40 0.0010649149342320376 -7.589609050671031e-05 -0.000763982407212291
39 -6.151422149661485e-05 -0.0016241268171774772 -0.0012362200916533894
38 -0.00039696614424628127 -0.0007871603621317897 0.0022168117548810374
37 -0.001034717146875465 0.00030337426743719595 -0.00028175269835409327
36 0.0008435545723966498 -0.0002445338549157007 -0.0012151569851858914
53 0.0015319652307477683 -0.0001491832674476003 0.0006440851098866084
52 0.000657780112952999 -0.0015521661983816891 -0.0016588190008817328
46 -0.0003215151270136807 -0.0010883427498721225 -0.0010073973872543466
45 -0.0004608712030714633 0.00133041830259097 -0.0006561653610484398
44 0.0014529361751256602 0.0005224456041700946 0.0017974754830212838
43 -0.0007360152727500208 0.000566234697316254 0.00021706614718900038
63 -0.00043077415387478816 0.0005265951607708818 -0.00025285946875465225
41 0.000648935572222157 0.0010993207838041362 -0.000635031934113979
64 -0.0004499091379664257 -0.0009503401155504856 0.00041958919908148247
65 -0.00017940740994912404 -0.0006161294245099773 0.0011187673160821263
66 -0.0004849203182677664 -0.001261591654202819 -0.0007888746734100067
42 0.0007514349270515895 0.0006142988506351712 0.000249006737163584
67 0.00022794744112351813 0.000263378521518045 -0.0005516736305129784
62 0.0020756704050230402 0.00034104817879593183 0.0018797735558184572
76 -0.0018948645466542481 0.0015144342644922983 -0.000845108289948757
75 -3.633419593742697e-05 0.0001535590655140363 -0.0004151909036756716
34 -0.0007349934234402391 0.0013659057007987924 3.938459423698972e-05
33 0.0007819454674707957 -0.0011091881748434452 0.0016082458392308058
32 0.0002538103655039388 -0.0016841398589625004 1.3487441895816978e-05
20 -0.0005197356998568907 -9.794641862525027e-05 0.00015721291039727346
19 -0.0015812189520901588 -0.0003024504274380219 -0.0001298081219140543
18 -0.0005087031093948502 -0.0008279980680833292 -0.000544542534018664
26 0.0007882421102246739 0.0004304653482088614 0.0002249065184018613
27 -0.0007783918721149841 0.0004320981281528854 -0.0005445485971420972
28 0.00029972998499339695 -6.882203401287951e-05 5.790141393321392e-05
17 0.0008086464712246047 0.0005456536535934967 0.0009983483067113122
16 0.0001846122488793567 -0.0015913015633332304 0.0015504525841938902
74 -0.0002875691299195504 -0.0021462882850198845 -0.0002139201597561711
29 -0.0006706510388244294 -0.0009056173201077627 -0.00011823408941863254
30 0.0004438107160173812 -0.00019835728372519115 -2.9916535985360102e-05
72 -0.00019104469745854515 0.0009156701524574215 0.00025069540984613164
73 -0.000247325769735958 -2.0624604772385014e-05 0.000656370320047625
71 0.00026571194083978294 0.0008099122480299268 -0.0004276870433565216
31 -0.0019699944749871543 0.0005276893454747409 0.000537677067074097
68 0.0012681968748085614 0.0005958292861166805 0.001244037802790499
70 -0.0006067761358550214 -0.0013579688981376313 0.0008462188058925199
69 -6.099269840940464e-05 0.0011894442732902984 -0.00032481512254693164
13 -0.00025390676373250945 0.00016942267633427094 -0.0012286292286993621
14 -0.0002704511113651642 -0.0008954570328397527 -0.0010994598443084258
15 -0.00010824388832423375 0.0002059779769188345 -0.0012503387190692201
11 0.0003089664437477954 -0.0007515793233477544 9.468355907234395e-05
12 0.000417847440115162 -0.0005990393559193503 1.3326500933128963e-05

Bonds

1 1 8 9
2 1 9 10
3 1 5 6
4 1 6 7
5 1 7 8
6 1 1 2
7 1 2 3
8 1 4 5
9 1 3 4
10 1 49 50
11 1 51 52
12 1 50 51
13 1 60 61
14 1 59 60
15 1 58 59
16 1 47 48
17 1 48 49
18 1 35 36
19 1 55 56
20 1 56 57
21 1 54 55
22 1 57 58
23 1 21 22
24 1 61 62
25 1 22 23
26 1 24 25
27 1 23 24
28 1 25 26
29 1 40 41
30 1 39 40
31 1 38 39
32 1 37 38
33 1 36 37
34 1 53 54
35 1 52 53
36 1 46 47
37 1 45 46
38 1 44 45
39 1 43 44
40 1 63 64
41 1 41 42
42 1 64 65
43 1 65 66
44 1 66 67
45 1 42 43
46 1 67 68
47 1 62 63
48 1 75 76
49 1 34 35
50 1 33 34
51 1 32 33
52 1 20 21
53 1 19 20
54 1 18 19
55 1 26 27
56 1 27 28
57 1 28 29
58 1 17 18
59 1 16 17
60 1 74 75
61 1 29 30
62 1 30 31
63 1 72 73
64 1 73 74
65 1 71 72
66 1 31 32
67 1 68 69
68 1 70 71
69 1 69 70
70 1 13 14
71 1 14 15
72 1 15 16
73 1 11 12
74 1 12 13

Angles

1 1 7 8 9
2 1 8 9 10
3 1 4 5 6
4 1 5 6 7
5 1 6 7 8
6 1 1 2 3
7 1 3 4 5
8 1 2 3 4
9 1 48 49 50
10 1 50 51 52
11 1 49 50 51
12 1 59 60 61
13 1 58 59 60
14 1 57 58 59
15 1 46 47 48
16 1 47 48 49
17 1 34 35 36
18 1 54 55 56
19 1 55 56 57
20 1 53 54 55
21 1 56 57 58
22 1 20 21 22
23 1 60 61 62
24 1 21 22 23
25 1 23 24 25
26 1 22 23 24
27 1 24 25 26
28 1 39 40 41
29 1 38 39 40
30 1 37 38 39
31 1 36 37 38
32 1 35 36 37
33 1 52 53 54
34 1 51 52 53
35 1 45 46 47
36 1 44 45 46
37 1 43 44 45
38 1 42 43 44
39 1 62 63 64
40 1 40 41 42
41 1 63 64 65
42 1 64 65 66
43 1 65 66 67
44 1 41 42 43
45 1 66 67 68
46 1 61 62 63
47 1 74 75 76
48 1 33 34 35
49 1 32 33 34
50 1 31 32 33
51 1 19 20 21
52 1 18 19 20
53 1 17 18 19
54 1 25 26 27
55 1 26 27 28
56 1 27 28 29
57 1 16 17 18
58 1 15 16 17
59 1 73 74 75
60 1 28 29 30
61 1 29 30 31
62 1 71 72 73
63 1 72 73 74
64 1 70 71 72
65 1 30 31 32
66 1 67 68 69
67 1 69 70 71
68 1 68 69 70
69 1 12 13 14
70 1 13 14 15
71 1 14 15 16
72 1 11 12 13
