LAMMPS data file via write_data, version 29 Aug 2024, timestep = 105000000, units = real

116 atoms
4 atom types
110 bonds
1 bond types
104 angles
1 angle types

-140 140 xlo xhi
-140 140 ylo yhi
-140 140 zlo zhi

Masses

1 329.2
2 305.2
3 345.2
4 306.2

Bond Coeffs # harmonic

1 7.5 5.9

Angle Coeffs # harmonic

1 5 150

Atoms # full

18 2 1 0 56.86828656631067 -9.933764782426515 -126.78690790325042 0 0 0
17 2 1 0 55.687003797017724 -9.053776438178685 -132.87282848151466 0 0 0
16 2 4 0 59.235726625383755 -10.201981767344586 -137.37969661831033 0 0 0
19 2 3 0 61.218789070154145 -10.904095633809174 -123.20974089189839 0 0 0
20 2 4 0 64.44718888998486 -15.171284361899627 -120.1363064929068 0 0 0
21 2 3 0 67.57305096670103 -14.654347526523894 -115.26674619288366 0 0 0
22 2 2 0 70.75926010363338 -9.683444181881427 -112.95809918326175 0 0 0
23 2 1 0 75.46893715392733 -7.65703237605231 -109.9620553395426 0 0 0
25 2 2 0 86.58397506164857 -5.774324624502831 -109.78956473813044 0 0 0
24 2 3 0 81.26286226919503 -8.164659486341975 -110.32954482972964 0 0 0
26 2 2 0 92.53864122463312 -6.353541994695305 -109.28539392988857 0 0 0
27 2 2 0 97.0173284858408 -4.273259356460187 -106.72748039590068 0 0 0
36 2 2 0 78.67303185849998 -4.047918425388436 -92.81022347279242 0 0 0
37 2 2 0 78.84890486630394 -9.659113958633036 -90.59247663436994 0 0 0
74 2 3 0 87.8105419116335 -1.5078909952423352 -96.82144979654456 0 0 0
73 2 3 0 88.62956725798493 -6.109991034739146 -93.32399645993222 0 0 0
15 2 3 0 64.0542848952483 -12.463556035926851 -139.59804604893327 0 0 0
72 2 3 0 90.80571758679507 -9.434962718964023 -88.82295573986325 0 0 0
48 2 3 0 69.66690567689474 -35.663923106043626 -66.54783732760993 0 0 0
60 2 1 0 70.22478250972144 -20.67835429476596 -73.438578063035 0 0 0
59 2 3 0 75.46203227594195 -23.729079271377742 -71.69442794022181 0 0 0
61 2 4 0 65.58835878898589 -17.459292112220247 -72.23229245134729 0 0 0
40 2 3 0 79.87452289793947 -13.999983331977482 -74.36976214031301 0 0 0
39 2 4 0 79.43618716235925 -14.265324685194932 -80.09528895667508 0 0 0
38 2 3 0 79.65517368784151 -12.754032482792608 -86.00617287660963 0 0 0
69 2 1 0 87.03234584810998 -4.008821620174737 -73.87950991025421 0 0 0
41 2 2 0 81.66022751622288 -12.729849621939037 -68.67631079954002 0 0 0
68 2 4 0 83.21780809733916 -1.1667984025773628 -70.06377315063948 0 0 0
116 6 1 0 106.73019878660651 -67.49242556739947 -19.08294017147243 3 0 0
71 2 1 0 91.08651734237476 -9.972840514427979 -82.90448820191924 0 0 0
70 2 2 0 89.48730808491395 -8.363441849640418 -77.46185047302464 0 0 0
50 2 3 0 78.43003232517873 -38.95016578523369 -62.05944304067283 0 0 0
51 2 3 0 79.76540412096921 -41.77216577220956 -57.26773017684138 0 0 0
52 2 1 0 77.6275777556374 -43.921781112053694 -52.42491721855566 0 0 0
47 2 1 0 66.50694296387495 -31.06143073048416 -66.18323162504488 0 0 0
46 2 2 0 64.79559766215188 -26.382540608151558 -63.46855506492575 0 0 0
45 2 1 0 66.57004802178812 -22.465123095122916 -59.78277565410704 0 0 0
58 2 4 0 79.58497700539911 -27.528564231749716 -69.23381433557641 0 0 0
49 2 2 0 74.97692918439975 -36.69379718897659 -66.3325076450778 0 0 0
44 2 2 0 71.87295740310225 -19.83786874446562 -58.574971766236985 0 0 0
56 2 3 0 81.09173660993494 -28.112670270537674 -57.59160826145904 0 0 0
57 2 2 0 80.99546570941698 -27.991457929548282 -63.402269208469754 0 0 0
55 2 2 0 77.61456241274936 -28.55223813125209 -52.859262599302696 0 0 0
43 2 3 0 77.27642370621668 -18.37184741148382 -60.11305853461225 0 0 0
62 2 3 0 63.363851026129204 -14.591354806137275 -67.89593278932286 0 0 0
63 2 4 0 64.92914511355154 -12.57315812806263 -62.68851429228077 0 0 0
64 2 2 0 69.34632091755957 -10.533846604879688 -59.21955665621681 0 0 0
42 2 3 0 81.32799899161893 -15.789468069952068 -63.47725458344512 0 0 0
67 2 1 0 79.36865243563456 -2.179794122421142 -65.60574160054654 0 0 0
66 2 4 0 78.64059424276567 -4.821002788343344 -60.341170457821484 0 0 0
65 2 3 0 74.5675548389464 -8.320150906014304 -57.815912360412526 0 0 0
53 2 1 0 76.67233484116133 -39.31746031236304 -48.54396538447353 0 0 0
54 2 1 0 76.51315791910358 -33.51982921310989 -49.36916611298745 0 0 0
112 6 4 0 120.48832049019042 -81.69209644527388 -23.66091286566387 3 0 0
114 6 1 0 111.10299696076365 -75.66034901389382 -26.456412040372637 3 0 0
113 6 1 0 114.844002249741 -80.11057938809455 -25.110355207297644 3 0 0
115 6 3 0 108.89195984775074 -70.96146477033477 -23.217810118816107 3 0 0
111 6 3 0 125.16166421659037 -80.43423898961781 -20.91138076041168 3 0 0
107 6 2 0 130.56947550648113 -81.76032409353644 -0.5980732527968907 3 0 0
108 6 3 0 132.69446081402745 -79.24655837911521 -5.698160668986933 3 0 0
110 6 4 0 126.873919555196 -80.34792096810288 -15.042087067964252 3 0 0
109 6 3 0 131.2600191789255 -80.01695572713606 -10.937059091167292 3 0 0
28 2 3 0 98.35707072532195 -1.436690115855495 -101.74717676524303 0 0 0
29 2 4 0 101.47734359883971 -1.9428754968930237 -97.1322836452842 0 0 0
13 2 3 0 73.52206574358249 -6.764824842309581 -139.84743449963497 0 0 0
96 4 1 0 81.65514260761141 -47.50376973899094 15.55710204981926 -3 -1 -1
95 4 3 0 85.75425439012439 -50.34180444432676 19.21369984874579 -3 -1 -1
94 4 1 0 90.89102436470418 -51.8349241384321 20.509401441957984 -3 -1 -1
93 4 1 0 94.70786221211878 -49.53549874798696 24.113519893220694 -3 -1 -1
91 4 3 0 96.44131335249476 -41.208088141366424 31.1132273008909 -3 -1 -1
92 4 4 0 97.20796458347405 -45.84240986172479 27.31601337867782 -3 -1 -1
90 4 4 0 91.47059145635674 -38.33708674384302 32.056012175503554 -3 -1 -1
88 4 3 0 87.35457363616939 -28.304077066807334 32.86182788629803 -3 -1 -1
89 4 3 0 87.9744891566413 -33.71716140102645 30.49866407015806 -3 -1 -1
87 4 2 0 85.64743354821239 -26.74532410315439 38.510255574397654 -3 -1 -1
7 1 1 0 -22.23585921230351 -6.548307379301476 45.29638055145375 0 -2 0
6 1 4 0 -25.517076170543692 -7.840963233334547 49.846537413549925 0 -2 0
8 1 1 0 -16.87686739062188 -6.885721678839424 42.66234898892297 0 -2 0
9 1 3 0 -11.17348515862499 -8.505762560159402 42.934303348401976 0 -2 0
10 1 1 0 -7.899655198774138 -12.69108555809235 45.522376700210614 0 -2 0
3 1 3 0 -20.979146885171662 -17.757452846712273 62.97558594824938 0 -2 0
2 1 3 0 -21.036198035320435 -20.025698638365366 68.45288203432357 0 -2 0
4 1 4 0 -22.425360317510215 -13.233705597237176 59.26475260958835 0 -2 0
5 1 3 0 -23.59469834884594 -8.763045654073878 55.038235674293084 0 -2 0
1 1 2 0 -23.01079380388119 -20.165002096831763 74.13367671558196 0 -2 0
14 2 4 0 69.55096785796026 -10.673096296945962 139.80750836755132 0 0 -1
12 2 3 0 75.34602952395107 -1.4075404885168536 138.79248488684422 0 0 -1
34 2 2 0 82.05252709479758 5.11512292086556 -87.75186519318572 0 0 0
76 2 4 0 82.78995373470339 3.376618800611721 -104.6004137810223 0 0 0
35 2 1 0 79.35023774160506 1.938294993071324 -91.72429636351745 0 0 0
75 2 2 0 87.30860745622401 0.7348656482790447 -102.17048686157163 0 0 0
105 5 3 0 -108.15103682277912 76.516878615542 -32.22572821508353 0 1 -1
106 5 1 0 -105.5220477212706 74.91212122169689 -27.437654195690918 0 1 -1
33 2 1 0 86.75353881539844 4.980094063218002 -84.19453665581302 0 0 0
32 2 4 0 92.29506674728749 3.647822914790061 -84.38067895053685 0 0 0
97 5 2 0 -107.1528342562341 50.82215065886187 -47.04289382807695 0 1 -1
98 5 3 0 -112.06160263535703 52.155344094950244 -50.27945949583132 0 1 -1
99 5 3 0 -113.23561719761315 55.60710732748121 -55.05397088724544 0 1 -1
100 5 4 0 -112.56861994007204 61.53679042842704 -54.495681297707755 0 1 -1
101 5 3 0 -115.68066985736901 65.41412661808764 -51.0426415012928 0 1 -1
102 5 4 0 -115.08056063632355 67.74841151746367 -45.75905836157534 0 1 -1
103 5 1 0 -112.7451348187716 70.92447892711947 -41.159467194977594 0 1 -1
104 5 1 0 -111.66338142312613 73.5196604267129 -36.064219825652 0 1 -1
31 2 4 0 97.36954664744036 1.7258942346263386 -86.79556583546578 0 0 0
30 2 2 0 100.61323547830675 0.27215815904413626 -91.28238957782115 0 0 0
77 3 2 0 -72.57587204191715 23.334087451154815 97.68061458636508 -1 -1 1
78 3 3 0 -67.72773636211114 25.06377341286639 100.2009829960273 -1 -1 1
79 3 3 0 -65.12812106151256 27.78946934517966 104.61618449307936 -1 -1 1
80 3 4 0 -60.14693761986563 31.047468808424107 106.3656919840412 -1 -1 1
81 3 3 0 -55.953017893376355 35.55032049114379 105.14368637008273 -1 -1 1
82 3 4 0 -50.99576089256406 38.292033697542955 103.39308262136451 -1 -1 1
84 3 1 0 -40.13628619683406 42.04820927313755 107.07178383777617 -1 -1 1
83 3 1 0 -45.761034483563 40.64262896723977 105.71842285269598 -1 -1 1
85 3 3 0 -34.81052174888412 43.767986636014314 108.86314948867759 -1 -1 1
86 3 1 0 -31.894055417356395 48.25665500748583 111.32844627745112 -1 -1 1
11 2 2 0 76.9335261708027 1.5713578708463398 134.07812251164484 0 0 -1

Velocities

18 -0.0004424112542454441 -0.00027695416635037005 0.0003872442569398156
17 -6.000678399242893e-05 0.0002276625300423125 -0.0013109449902191336
16 0.0006909575801512713 -0.00033819569767266336 -0.0005172314664070647
19 0.0002501379783083857 -0.0013233320102340863 0.001879596164847112
20 -0.00023210059028117873 -0.0009736631497725525 0.0011363694264398016
21 -0.0013414641741088273 -0.0012789205087122954 0.0001667712802054
22 0.0011097261003477701 0.0003323513090301998 -0.0005240991198834287
23 -7.160475268705088e-05 0.0004383437834257967 -0.00058661883572786
25 -0.0007510379455491405 0.001684352651773601 -0.0001346044261747806
24 -0.0015614157879747328 0.0009297704905918023 0.0012793698463981367
26 0.0007596285179372407 -0.0006491666989760377 0.00021369842699602395
27 -0.0004677775501057695 -0.0008808427741383373 0.0010252493509408022
36 0.0009394734914365857 0.0008610331413607047 0.0007481140082789655
37 0.0005561383404661405 0.00018179951024124955 3.6987789152330983e-06
74 -0.00051511545624838 0.000685989216898377 2.978018912910126e-05
73 -0.0003448859464394501 -0.00017777753883444148 -9.8478783983102e-06
15 0.0004238945734325525 0.0003569656200590557 0.0010461899292205509
72 -0.0008977697052047941 0.00020760037099859963 0.0005731029260767368
48 -0.0007632663381440362 -1.3942134307028467e-06 0.0007495062950970108
60 0.00100093869746967 -0.00105369428860321 -0.0005938347042557614
59 -0.00011736529963071775 -0.0008691464697308918 -0.000838232479981464
61 0.0005386434889003489 -5.9070776107105234e-05 0.0016829301569434218
40 -0.0008604034967625003 0.0008458629905291913 -0.0010614383476218279
39 0.0011214816554790674 0.000972164056074195 -0.00017434994689661891
38 -0.00037272895377127454 0.001308134739799639 0.00027928524998268765
69 0.00031235175763511273 -0.0006677645016203336 -0.001717059557437927
41 0.0012118091281821662 -0.0005122183888880882 -0.0013021277861940475
68 -0.0012274850621859785 0.000388576459668177 -1.1929513564436814e-06
116 -0.0013134180784707804 -0.00025120365658790674 -0.0007024671358962769
71 0.0009093081552812348 0.0005950950071249526 0.002105279118107745
70 0.0010957893944359839 -2.1325924919138766e-05 0.0007472902613536721
50 0.000177583033296486 0.0009028056156909942 0.0007626178792672988
51 -0.00022626409531112244 -0.00015238244127106229 -0.00021043426780094178
52 -0.0008642565081193418 0.0008536195280593708 -0.00039240690896843127
47 0.0010353172304754677 6.85260329165312e-06 -0.002085075550580086
46 -0.00019059311176071583 -0.0014784070476284053 -0.000473185297818421
45 -0.0006548109442177217 0.0006549445338911101 -0.0007881813045868776
58 0.0005478260111651764 -0.00030026980533288554 -0.0002774722299156444
49 0.00022875058791378908 -0.0005293243483899117 0.00023655771259992886
44 0.0015001793332386202 -0.00021965527284771417 0.0016917205093643754
56 8.359737460289205e-06 -0.00011448002894831743 0.0008084424100170648
57 -2.7307678895933887e-05 -0.0022165406670373246 -0.0006280525765104256
55 -0.000979580020981188 -0.0006441929864826626 -0.000950739347267019
43 -0.001091403710116893 -0.0010135404081547104 -0.0006561242624106811
62 -0.001064520920145447 -0.00032179209205247165 -0.000918157299944066
63 -0.0005191597428880349 0.0013460986045560103 0.0009529722227977501
64 -0.0009675247148316282 0.0004897911180952359 -0.0007140849806321887
42 -0.0003972625962395571 -7.360109671111507e-05 -0.0013267057789972407
67 0.0006020167737377805 -0.0006783982527710755 0.00015391126212828561
66 -0.0013824126959820337 -0.000979840437137082 -0.00042786610939305657
65 0.0002286527920197047 -0.00020284740005088286 0.00025232951465575804
53 0.0007652332373870967 -0.0002788806125387476 -0.0023004031200725837
54 0.0003940904331582333 -3.9657421807560475e-05 -0.0007500767816843455
112 0.0005474567701717051 0.0004507012825029794 -0.0010170298522698448
114 -0.0006627159458023609 -0.0006778801848430461 -0.0006803401324412804
113 0.0004661299924276996 -0.0005429739902502036 9.490371384318112e-05
115 -0.0010668565352651516 0.00032955702455879577 0.00033070672648643736
111 -0.00017973490882267477 0.0005109640303594483 0.000861950353365811
107 -0.0013325577203822736 -0.0008119170809910952 0.001263093290559645
108 0.0008270083581962303 -0.000513116917238911 0.0002131215343358889
110 -7.67214513384746e-05 0.0016258288312145266 0.0005320162962893602
109 -0.0006181051563481712 -0.0011716168218664845 0.000999878591545404
28 0.0003423616222707151 0.0004139043804955549 0.0005309707511277753
29 -0.0005422320272095393 0.0003622032425168922 -0.0008648497132829526
13 -0.0012782444703471282 0.0005062235051249355 -0.0004243306686260808
96 0.0003307856894656356 -0.0006810055189532812 0.0011216585696026196
95 -0.001191964047689493 -0.0010469224900023408 0.0013781511482682935
94 0.0010271521598086857 -0.0009284804295064256 -0.0003538522790508821
93 -0.001209992623141216 0.0014314164989824136 3.436909201307614e-05
91 0.0006214087149700713 0.0002674437733047609 -0.00023139373121008474
92 0.0003176022716768654 0.00013795200814540622 -0.0006383995411427834
90 0.0016302399249154998 -0.0009176679489104889 0.0005182600299525793
88 -0.00033049297621898525 0.00018744472515338741 -0.0002780420760100567
89 0.001181834445845587 -0.0005525725300743005 -0.0006716992594134293
87 0.0003130985921995378 -0.00014738642372536694 -0.00027270454240362936
7 0.000632367104983506 -0.0010418226251700604 -1.4499199313860214e-05
6 -0.0013014579979388318 -0.0006230233681052885 -0.0004330600617871431
8 0.000989747294146368 -0.0006342319309007657 0.0002861121742759277
9 0.0018086221336162847 0.001317096350730167 -0.0008200537992645252
10 4.292869530057839e-06 -0.00028417898144848086 -0.00030653491655284807
3 0.0008551502821951204 0.0006834620966622592 -0.00043805498521499824
2 -0.0006198631554979832 -0.0001809534004733352 -0.000125235073178444
4 -0.00042099141205807886 0.00025771955419434103 0.001355642194366877
5 0.0017266442123379806 0.0006292458527693975 0.0003100769823773847
1 -0.0006902860446999231 0.0004606209712698262 -0.0006525725857650359
14 0.0014663890685175955 -0.0007378518590937549 8.615013304020005e-05
12 0.0006135282175244785 0.000560325979260718 0.00047207650248489954
34 0.00037451688589529145 0.0004291986190473857 0.00048394430315888687
76 4.8108578499406155e-05 0.00042578949045600153 -0.0005005508917578634
35 0.0004394620487947216 0.000626337228472999 0.0007983154199055219
75 -0.001192685648643792 0.0011179476896167131 0.0003163014693828544
105 0.0013468700487321726 -0.0017397747295363397 -0.0015124893943910492
106 0.0002600576204743871 -0.0006926118180473122 0.0010501434774975223
33 -0.0004931426582714726 -0.000853700704897328 -0.0002942366658901675
32 -4.591789781965308e-05 0.001846994356060979 0.0004997802297248226
97 -0.00015146795871328619 0.0010826256305076182 -0.0005076831574632445
98 0.00030349197603201695 0.00045171987238232084 -0.0009198874335580803
99 0.0014242916671130374 0.001107350247436857 0.0010415963169649325
100 0.0005109431258288397 0.0010333862517155096 0.0005928148837951045
101 -0.0013184965289273693 0.0010323997753138678 0.0012971507143624667
102 0.0012849288284126708 -0.00040834322496817617 0.0021250455360272203
103 -0.0010725086846740477 0.00020217125706321464 -0.0003005616736203468
104 -0.0007463947028738603 -1.3385744053289496e-05 -0.0012674509927198688
31 -0.0009861327808235172 7.464245304468962e-05 0.001328695817429026
30 0.00016091208328220105 0.0010366071491620969 0.0015656299884584796
77 0.0010077130341421714 0.0009607903967187512 0.0019021244398080448
78 -0.0002171583279735906 -0.0012676347943620394 -0.0004174653776955676
79 -0.0011242656449536627 0.0005304541782141224 3.422268625723811e-05
80 -0.00035183604991018407 0.0006623918868456997 -0.001650746218057372
81 0.00013477062250543477 -0.0016721311721861329 0.0007630491974296702
82 0.001607975754496273 0.00030694589476724867 -0.0013779971994969543
84 -0.0003952342295339789 -0.00025032024861502294 -0.001381362167045067
83 -9.767599472050988e-05 0.0006519733993817591 -0.0009165220981590072
85 -0.00040934261028756174 -3.0516608180202533e-06 -0.0013910469998718194
86 -0.0010902259434628803 -0.0012999932109206843 9.306428352925424e-05
11 0.0006341126551955692 0.0006942204916408624 0.00016669281342920935

Bonds

1 1 18 19
2 1 17 18
3 1 16 17
4 1 19 20
5 1 20 21
6 1 21 22
7 1 22 23
8 1 23 24
9 1 25 26
10 1 24 25
11 1 26 27
12 1 27 28
13 1 36 37
14 1 37 38
15 1 74 75
16 1 73 74
17 1 15 16
18 1 72 73
19 1 48 49
20 1 60 61
21 1 59 60
22 1 61 62
23 1 40 41
24 1 39 40
25 1 38 39
26 1 69 70
27 1 41 42
28 1 68 69
29 1 71 72
30 1 70 71
31 1 50 51
32 1 51 52
33 1 52 53
34 1 47 48
35 1 46 47
36 1 45 46
37 1 58 59
38 1 49 50
39 1 44 45
40 1 56 57
41 1 57 58
42 1 55 56
43 1 43 44
44 1 62 63
45 1 63 64
46 1 64 65
47 1 42 43
48 1 67 68
49 1 66 67
50 1 65 66
51 1 53 54
52 1 54 55
53 1 112 113
54 1 114 115
55 1 113 114
56 1 115 116
57 1 111 112
58 1 107 108
59 1 108 109
60 1 110 111
61 1 109 110
62 1 28 29
63 1 29 30
64 1 13 14
65 1 95 96
66 1 94 95
67 1 93 94
68 1 91 92
69 1 92 93
70 1 90 91
71 1 88 89
72 1 89 90
73 1 87 88
74 1 7 8
75 1 6 7
76 1 8 9
77 1 9 10
78 1 3 4
79 1 2 3
80 1 4 5
81 1 5 6
82 1 1 2
83 1 14 15
84 1 12 13
85 1 34 35
86 1 35 36
87 1 75 76
88 1 105 106
89 1 33 34
90 1 32 33
91 1 97 98
92 1 98 99
93 1 99 100
94 1 100 101
95 1 101 102
96 1 102 103
97 1 103 104
98 1 104 105
99 1 31 32
100 1 30 31
101 1 77 78
102 1 78 79
103 1 79 80
104 1 80 81
105 1 81 82
106 1 82 83
107 1 84 85
108 1 83 84
109 1 85 86
110 1 11 12

Angles

1 1 17 18 19
2 1 16 17 18
3 1 15 16 17
4 1 18 19 20
5 1 19 20 21
6 1 20 21 22
7 1 21 22 23
8 1 22 23 24
9 1 24 25 26
10 1 23 24 25
11 1 25 26 27
12 1 26 27 28
13 1 35 36 37
14 1 36 37 38
15 1 73 74 75
16 1 72 73 74
17 1 14 15 16
18 1 71 72 73
19 1 47 48 49
20 1 59 60 61
21 1 58 59 60
22 1 60 61 62
23 1 39 40 41
24 1 38 39 40
25 1 37 38 39
26 1 68 69 70
27 1 40 41 42
28 1 67 68 69
29 1 70 71 72
30 1 69 70 71
31 1 49 50 51
32 1 50 51 52
33 1 51 52 53
34 1 46 47 48
35 1 45 46 47
36 1 44 45 46
37 1 57 58 59
38 1 48 49 50
39 1 43 44 45
40 1 55 56 57
41 1 56 57 58
42 1 54 55 56
43 1 42 43 44
44 1 61 62 63
45 1 62 63 64
46 1 63 64 65
47 1 41 42 43
48 1 66 67 68
49 1 65 66 67
50 1 64 65 66
51 1 52 53 54
52 1 53 54 55
53 1 111 112 113
54 1 113 114 115
55 1 112 113 114
56 1 114 115 116
57 1 110 111 112
58 1 107 108 109
59 1 109 110 111
60 1 108 109 110
61 1 27 28 29
62 1 28 29 30
63 1 12 13 14
64 1 94 95 96
65 1 93 94 95
66 1 92 93 94
67 1 90 91 92
68 1 91 92 93
69 1 89 90 91
70 1 87 88 89
71 1 88 89 90
72 1 6 7 8
73 1 5 6 7
74 1 7 8 9
75 1 8 9 10
76 1 2 3 4
77 1 1 2 3
78 1 3 4 5
79 1 4 5 6
80 1 13 14 15
81 1 11 12 13
82 1 33 34 35
83 1 34 35 36
84 1 74 75 76
85 1 104 105 106
86 1 32 33 34
87 1 31 32 33
88 1 97 98 99
89 1 98 99 100
90 1 99 100 101
91 1 100 101 102
92 1 101 102 103
93 1 102 103 104
94 1 103 104 105
95 1 30 31 32
96 1 29 30 31
97 1 77 78 79
98 1 78 79 80
99 1 79 80 81
100 1 80 81 82
101 1 81 82 83
102 1 83 84 85
103 1 82 83 84
104 1 84 85 86
