LAMMPS data file via write_data, version 29 Aug 2024, timestep = 105000000, units = real

566 atoms
4 atom types
515 bonds
1 bond types
464 angles
1 angle types

-300 300 xlo xhi
-300 300 ylo yhi
-300 300 zlo zhi

Masses

1 329.2
2 305.2
3 345.2
4 306.2

Bond Coeffs # harmonic

1 7.5 5.9

Angle Coeffs # harmonic

1 5 150

Atoms # full

147 10 2 0 -69.45096006039549 -152.8976496183704 -95.97537377081406 0 0 0
150 10 4 0 -58.32447074543687 -163.26776202413475 -87.17668005567455 0 0 0
149 10 3 0 -63.666928419391965 -160.59370011997552 -88.94814369864578 0 0 0
148 10 3 0 -66.07374254340077 -156.77784121593862 -92.85826137311462 0 0 0
151 10 3 0 -53.58333934222495 -165.4178487616428 -84.40703103365826 0 0 0
153 10 1 0 -52.92189047353109 -169.59411840436007 -74.5685538701026 0 0 0
154 10 1 0 -54.66589019093731 -170.0167850496005 -68.66944960958176 0 0 0
152 10 4 0 -54.43319476659975 -168.102785455568 -79.32748333497766 0 0 0
156 10 1 0 -56.09313269932806 -181.0714754829195 -67.08210289123834 0 0 0
564 51 1 0 -28.682423833859737 -93.22145229909415 -69.95172655918076 1 -1 0
563 51 1 0 -26.78557661572647 -90.74945384295621 -75.14981537955876 1 -1 0
562 51 4 0 -22.000828199427033 -87.95334910348393 -76.23593354297869 1 -1 0
561 51 3 0 -21.03605142784153 -82.20276735454136 -76.38341708289376 1 -1 0
560 51 4 0 -21.15035349526818 -76.91405069741727 -78.38144013656884 1 -1 0
559 51 3 0 -20.609579562861676 -71.39798786096193 -76.34363342641178 1 -1 0
558 51 3 0 -24.48684654666089 -67.29664191067256 -74.27377402333576 1 -1 0
557 51 2 0 -29.923554934914826 -65.77849758365895 -75.10969408250754 1 -1 0
155 10 3 0 -55.15562516709236 -175.28045992928998 -66.08888746987019 0 0 0
566 51 1 0 -33.933522111576124 -93.00816675078988 -59.713103393969824 1 -1 0
565 51 3 0 -31.159747709366044 -91.30198870366961 -64.80873186353067 1 -1 0
290 24 4 0 -165.89166059271108 -297.15063000202736 7.243043371360768 1 0 0
291 24 3 0 -165.511837039674 -291.1705442897906 5.5436100528896075 1 0 0
292 24 4 0 -164.15479318383015 -286.24923808048175 8.266194942079828 1 0 0
293 24 1 0 -165.0749811954083 -281.57706536643866 12.077555755918864 1 0 0
294 24 1 0 -165.06669613755508 -278.1793424184565 16.976970136565313 1 0 0
295 24 3 0 -165.820489155564 -272.7154814078162 18.399492431021585 1 0 0
296 24 1 0 -163.23500785132975 -267.7866066319581 20.118617617947837 1 0 0
387 34 2 0 -209.41549575749232 -298.5445179382783 58.72145840583347 0 1 0
388 34 3 0 -208.6496359680943 -293.5442517734181 61.53863117486476 0 1 0
389 34 3 0 -206.71285751640676 -289.66361668978476 65.68435177978212 0 1 0
390 34 4 0 -206.51297712503808 -287.80499666759073 71.06857423333086 0 1 0
391 34 3 0 -203.96156918951138 -284.0725094719467 74.16043136061191 0 1 0
392 34 4 0 -199.19276069473236 -281.11988272212994 74.28939269218077 0 1 0
393 34 1 0 -195.51561529221655 -276.5375733996818 74.40840110603772 0 1 0
394 34 1 0 -191.39561875387923 -272.2545632195894 72.44190440322106 0 1 0
395 34 3 0 -186.2054517556727 -270.29901471810354 70.56188562495655 0 1 0
396 34 1 0 -180.6944472488135 -271.25959789731644 69.2688848812819 0 1 0
331 28 3 0 -220.01491775897054 -244.04254477776308 113.24851613488224 0 1 0
332 28 4 0 -218.44429376032357 -238.49856972586818 112.28133371673223 0 1 0
330 28 4 0 -218.00496714410502 -249.14080559940604 115.69132833509317 0 1 0
336 28 1 0 -224.39092121117648 -221.30682552719475 100.61886726322943 0 1 0
333 28 1 0 -218.65562359355945 -233.1263698397924 110.23294953779957 0 1 0
334 28 1 0 -219.25438860050602 -230.55546203968515 104.59188431020198 0 1 0
335 28 3 0 -220.38280953871742 -225.19065199014227 102.50032241497334 0 1 0
456 40 1 0 -185.01209937225778 -31.600226341945262 111.96155422036969 -1 -1 -1
455 40 3 0 -179.40129226963035 -31.485679536229675 113.21218481273274 -1 -1 -1
328 28 3 0 -222.29298794578062 -258.47724349381986 117.04912613297212 0 1 0
327 28 2 0 -224.33512689463433 -263.3785557432144 119.36391481753289 0 1 0
329 28 3 0 -220.35456577844116 -253.48605847810194 119.35930041470745 0 1 0
454 40 1 0 -176.05782865498247 -32.79230087579086 117.98066720925559 -1 -1 -1
453 40 1 0 -170.7434434259825 -32.55200136761593 121.14684673143286 -1 -1 -1
452 40 4 0 -168.6630891206157 -30.104280619231062 126.2858782464728 -1 -1 -1
451 40 3 0 -170.1363285628555 -26.544017221684715 130.71977789261302 -1 -1 -1
477 43 2 0 -286.95682744388876 -279.46892805613794 147.23159916967052 0 -1 -1
478 43 3 0 -281.95718796000483 -277.2710491588912 149.9271991646244 0 -1 -1
450 40 4 0 -171.4446437212484 -22.491980162275357 134.77755400503847 -1 -1 -1
449 40 3 0 -170.55499944702078 -19.98175857114663 140.15065191832713 -1 -1 -1
448 40 3 0 -168.25318869881193 -19.559354132982534 145.85222084117774 -1 -1 -1
480 43 4 0 -287.56667032162113 -274.50205610930595 158.10026889033446 0 -1 -1
481 43 3 0 -293.1298001015913 -273.3908745716403 157.38355404203193 0 -1 -1
482 43 4 0 -296.651812982168 -268.7133924106891 158.34562900534385 0 -1 -1
479 43 3 0 -282.61147014285797 -274.89204865850763 154.95591499129253 0 -1 -1
175 12 3 0 -268.8693311898403 -255.5164304441405 152.10082654609823 0 0 0
174 12 1 0 -266.9867819699528 -258.3943430789195 156.45302911864994 0 0 0
173 12 1 0 -263.30504422614445 -257.47557951153306 161.31364372396743 0 0 0
172 12 4 0 -261.665013181507 -252.9227060506266 164.27824404546263 0 0 0
176 12 1 0 -270.8675628783126 -249.91074854173553 150.8212875562628 0 0 0
447 40 2 0 -167.2953714617707 -22.801106779270448 151.10149538477867 -1 -1 -1
168 12 3 0 -267.4366042900463 -235.9168048935368 173.85154195049566 0 0 0
167 12 2 0 -271.4825011527239 -233.61263229821884 170.32033449184203 0 0 0
171 12 3 0 -262.2425711582984 -249.55514402018125 168.97982288418143 0 0 0
169 12 3 0 -266.1049102301185 -241.21519195471154 175.22259014868928 0 0 0
170 12 4 0 -265.03997401629186 -247.02968460458314 173.55243020196374 0 0 0
76 2 4 0 -111.89983946515571 -24.76056866959074 179.31857075840264 0 0 -1
75 2 2 0 -111.85813610687343 -19.440740886167365 182.2313874359621 0 0 -1
30 2 2 0 -96.38881620323001 -16.966751019251944 176.11413973557237 0 0 -1
29 2 4 0 -97.81153299878618 -20.533919884526423 180.53702354610786 0 0 -1
74 2 3 0 -108.79187134102689 -14.780392653047056 183.0555754129043 0 0 -1
31 2 4 0 -93.67273438839734 -16.50397230855484 170.80323376811313 0 0 -1
32 2 4 0 -89.50153599892276 -13.691539682546123 167.78723538562096 0 0 -1
33 2 1 0 -84.27046503972151 -10.960696522702365 167.20994073472477 0 0 -1
34 2 2 0 -78.59511111989515 -11.455071775038302 167.0216721358446 0 0 -1
35 2 1 0 -75.51574731090915 -10.356764188954578 171.6639021004262 0 0 -1
36 2 2 0 -76.46597945818603 -7.237258092173785 176.4446278395037 0 0 -1
37 2 2 0 -75.67694353302653 -6.6527782862595455 181.97771953146076 0 0 -1
28 2 3 0 -100.29236815962571 -21.323028584625145 185.91875305299692 0 0 -1
26 2 2 0 -107.68316493956235 -22.953075143777866 193.8402317905238 0 0 -1
27 2 2 0 -103.90942955254705 -24.322811827482273 189.65943008083656 0 0 -1
25 2 2 0 -110.64851862291451 -18.415144868367396 195.9307364310013 0 0 -1
23 2 1 0 -112.59671340788086 -7.663941347438789 195.80725671494233 0 0 -1
22 2 2 0 -110.35430462170439 -2.226002244358622 196.05809490338697 0 0 -1
24 2 3 0 -112.06479532682715 -12.796390302243493 197.920896486378 0 0 -1
73 2 3 0 -104.96950096976785 -11.102700375315798 185.7943432905299 0 0 -1
72 2 3 0 -100.67365191135555 -10.715610491374173 190.11967172477688 0 0 -1
71 2 1 0 -96.03025475267788 -9.575079970176782 194.05880414999132 0 0 -1
70 2 2 0 -93.16329786630185 -7.459565736268101 198.50605547517074 0 0 -1
39 2 4 0 -85.20705405376015 -3.5319441923292425 188.04846171928227 0 0 -1
38 2 3 0 -80.03486319477447 -3.914230299929246 185.35509362819198 0 0 -1
409 36 3 0 -95.1139461913605 -252.7209810891285 216.24015044648942 1 -1 0
408 36 3 0 -95.37582706191478 -258.659105369281 216.24792175195617 1 -1 0
69 2 1 0 -87.99763784944376 -6.7184706216387955 200.83702083807447 0 0 -1
68 2 4 0 -83.71015310683161 -3.0221934226264486 202.731126822684 0 0 -1
117 7 2 0 -198.94422883977668 -266.32815736603163 233.26967915051762 1 1 0
407 36 2 0 -94.96219996197667 -264.27254299887545 217.95097396319997 1 -1 0
410 36 4 0 -90.55954252241726 -249.37341655359768 218.26986582829662 1 -1 0
411 36 3 0 -85.39700390034149 -246.64700807792252 218.02430695904138 1 -1 0
412 36 4 0 -80.48813682346193 -245.8192757928348 221.13308054011634 1 -1 0
413 36 1 0 -75.76409136880986 -247.213723373149 224.1714419579501 1 -1 0
414 36 1 0 -72.10649155489538 -245.51359284384688 228.12725408623388 1 -1 0
415 36 3 0 -72.20806560729109 -240.12938361556888 231.0584343918344 1 -1 0
416 36 1 0 -72.83607536591744 -234.260024278643 230.0529133985715 1 -1 0
118 7 3 0 -199.379419192345 -267.91007360412084 238.83358980181157 1 1 0
119 7 3 0 -197.7718120297184 -270.4677690292693 244.5736451255034 1 1 0
446 39 1 0 -93.72436151226758 -122.5761214426921 248.94282170114005 -1 0 1
126 7 1 0 -189.8145631935056 -295.1146898085803 257.42685072381795 1 1 0
125 7 3 0 -192.4177242442902 -290.01486046180037 257.1343494387939 1 1 0
124 7 1 0 -194.93813218965025 -285.23725973721616 259.8441948173773 1 1 0
120 7 4 0 -197.8401319435108 -270.14929683870554 250.5893042902168 1 1 0
121 7 3 0 -196.4152778434449 -269.1051772927121 256.2607877719075 1 1 0
122 7 4 0 -196.0582743951084 -273.9934290369997 259.45819539768775 1 1 0
123 7 1 0 -196.64544768857928 -279.7369456901797 260.20567031355216 1 1 0
359 31 3 0 -84.96141302054427 -201.67170966541028 265.72370660868336 0 1 0
358 31 3 0 -81.2016753774237 -201.44656287729327 260.64603781232086 0 1 0
357 31 2 0 -80.57906128393218 -202.3083247257189 255.00601453022014 0 1 0
364 31 1 0 -110.88267464214259 -196.74140557305074 266.63003479979716 0 1 0
437 39 2 0 -118.9427838181973 -157.40941769019014 263.7859504632338 -1 0 1
438 39 3 0 -115.80826996295137 -152.46871418261588 263.09693383139984 -1 0 1
439 39 3 0 -115.87055475301197 -146.6314281882575 261.8620951383416 -1 0 1
440 39 4 0 -115.1537200509133 -143.54398700328585 256.5486717048931 -1 0 1
441 39 3 0 -113.89144811615833 -139.77131487470865 252.12917594366294 -1 0 1
442 39 4 0 -111.338027377521 -134.4939225795667 252.42551800028787 -1 0 1
444 39 1 0 -105.05612247476847 -125.62251472076817 251.15553314808653 -1 0 1
443 39 1 0 -110.08359301454934 -128.91973841852402 251.12820584581243 -1 0 1
445 39 3 0 -99.2990916947799 -125.01992261057576 250.2954810727124 -1 0 1
273 22 1 0 -97.81781157671415 -35.66907035420651 265.52708569908816 1 0 -1
272 22 4 0 -93.13357956867854 -32.751332251995166 264.435346371584 1 0 -1
538 49 3 0 -204.82583435259045 -297.8097976924969 280.1141064914524 0 0 0
537 49 2 0 -201.4526023679626 -293.85877853882215 276.89029893138337 0 0 0
553 50 1 0 -222.00213225844928 -237.81358181945396 281.776152687482 1 0 0
556 50 1 0 -213.31796666217355 -249.51793864133998 280.0457917427656 1 0 0
554 50 1 0 -216.4450214841658 -239.92232380968866 279.79394190145064 1 0 0
555 50 3 0 -214.17757805358096 -244.32052141068883 277.4223128548329 1 0 0
366 31 1 0 -122.04518432953395 -199.5242889497935 269.74798888080994 0 1 0
365 31 3 0 -116.05799515716075 -198.2170573111539 268.5604481256955 0 1 0
363 31 1 0 -105.45950551100158 -194.22441223482392 267.60590498461875 0 1 0
360 31 4 0 -89.94456764613484 -199.654124561525 268.11004295653345 0 1 0
362 31 4 0 -99.84366195973607 -195.48207803374734 267.0102814719106 0 1 0
361 31 3 0 -95.43704969124313 -198.59489062056875 267.2780877897611 0 1 0
274 22 1 0 -101.12256247081899 -38.50451552357287 269.3194420996267 1 0 -1
275 22 3 0 -100.34161296676325 -42.916924282903196 273.25559712352833 1 0 -1
276 22 1 0 -95.39821305006842 -43.693570110724266 276.69926384524723 1 0 -1
271 22 3 0 -89.59163486052329 -30.681652516927297 269.09015747106406 1 0 -1
270 22 4 0 -91.28342608926116 -27.411954399831817 273.38740395075945 1 0 -1
269 22 3 0 -96.53513977695438 -24.434512113845063 274.44608644562925 1 0 -1
268 22 3 0 -99.14490674787382 -21.77778907905003 278.8510112054383 1 0 -1
551 50 3 0 -225.6685343778964 -236.6656461012855 291.8828240603979 1 0 0
552 50 4 0 -225.19160917099276 -239.8218323839052 286.87108427377274 1 0 0
549 50 3 0 -224.81747074758445 -226.79322506057198 294.18493231094374 1 0 0
548 50 3 0 -223.3084321159952 -221.86539704828257 291.4729434680129 1 0 0
550 50 4 0 -228.25472806969546 -231.7379800609851 293.9513625558812 1 0 0
547 50 2 0 -226.9336343288192 -217.2064773021045 292.74951627297236 1 0 0
267 22 2 0 -98.74614799578234 -22.60828757050788 284.227593633806 1 0 -1
517 47 2 0 -247.45130169994428 276.6590816981371 -290.64443952701936 1 -1 1
518 47 3 0 -246.1212512641962 275.71017692813314 -284.5283796486004 1 -1 1
546 49 1 0 -232.97959197827805 282.49702950632525 -297.09362434698687 0 -1 1
545 49 3 0 -229.00332814437144 286.4848356298165 -296.47832802513904 0 -1 1
544 49 1 0 -227.44416583966427 291.3617910691834 -299.84489922449467 0 -1 1
523 47 1 0 -242.08012619934624 261.97098603413053 -268.0665942045047 1 -1 1
524 47 1 0 -236.5043248643715 259.5311802854261 -268.0567581137338 1 -1 1
520 47 4 0 -250.14004581925718 272.0296559709198 -274.9209346978854 1 -1 1
522 47 4 0 -244.54443634831776 267.3732074903632 -266.9912873165051 1 -1 1
519 47 3 0 -247.02864274826044 272.5858005498379 -279.4328324400046 1 -1 1
521 47 3 0 -248.69510526419194 270.2490116359054 -269.6030556196815 1 -1 1
525 47 3 0 -233.60010402004886 255.6807224668387 -264.7391496263283 1 -1 1
526 47 1 0 -230.62641364473458 250.93588537961634 -263.93601049392214 1 -1 1
101 5 3 0 -175.3417135105362 246.20557827336881 -225.54656355657386 0 0 0
102 5 4 0 -173.91978995259103 240.6509998586682 -223.50416444256877 0 0 0
103 5 1 0 -169.88894913460842 238.48651100397674 -219.51137623193804 0 0 0
106 5 1 0 -156.62056075167405 247.3522017953206 -218.2481247390515 0 0 0
100 5 4 0 -170.85594398080156 250.273769660193 -225.6863799078392 0 0 0
99 5 3 0 -169.05568321016898 253.80697105708543 -220.87538921592014 0 0 0
104 5 1 0 -165.10921441313596 240.38989003506154 -216.32467633957 0 0 0
105 5 3 0 -160.58496908002257 243.9141348868643 -215.50139200284656 0 0 0
98 5 3 0 -169.27172219134275 255.26922034397506 -214.90336901412243 0 0 0
97 5 2 0 -172.1141454705694 259.00416206728374 -210.9690272535406 0 0 0
497 45 2 0 -175.36250333176596 232.81109265237512 -98.72776911079387 1 1 0
500 45 4 0 -176.4267587265488 233.3961470162788 -83.52180530026045 1 1 0
498 45 3 0 -174.99577847488058 236.93787591406732 -94.44277997230165 1 1 0
499 45 3 0 -174.5771142452513 235.49489600612594 -88.63401036265415 1 1 0
501 45 3 0 -173.5213592025996 229.3044219314748 -79.97827922504197 1 1 0
502 45 4 0 -168.22749498946231 228.07288220594714 -77.30752395543249 1 1 0
504 45 1 0 -161.90840613505333 229.69313405766977 -68.80521019649099 1 1 0
503 45 1 0 -163.25683959521533 228.53242237534894 -74.26354812985606 1 1 0
505 45 3 0 -159.20557791714072 228.87205408109406 -63.8088575946573 1 1 0
506 45 1 0 -159.29467137284462 226.92203504098157 -57.86502783709409 1 1 0
96 4 1 0 -163.64113001544143 254.8336101909948 -21.52051329827124 0 0 0
90 4 4 0 -141.24481614968622 266.4020909631804 -17.6406415794443 0 0 0
87 4 2 0 -124.21549510754107 266.00635459593656 -16.77069566786385 0 0 0
89 4 3 0 -135.67176653530439 267.801784422027 -19.15607021766435 0 0 0
91 4 3 0 -146.10388841502416 269.4093049497755 -16.849446009079873 0 0 0
88 4 3 0 -130.28358868328075 267.24200002375767 -16.78493100412712 0 0 0
95 4 3 0 -163.58164966133285 256.0183305905766 -15.769294068304214 0 0 0
94 4 1 0 -159.25418884513965 259.79324523419353 -13.735804191726597 0 0 0
93 4 1 0 -153.60652567811366 262.24690416987795 -13.555558606506992 0 0 0
92 4 4 0 -151.04647141344162 267.1132093339373 -14.525868167287266 0 0 0
289 24 3 0 -167.27939867319992 298.75922435944693 11.516422325639985 1 -1 0
4 1 4 0 -109.948581892079 246.98059879581663 32.6154211303372 -1 -1 0
5 1 3 0 -106.63915480291142 247.85113317414076 27.95434741878753 -1 -1 0
10 1 1 0 -88.36530716490105 242.79716668756353 23.377082729489626 -1 -1 0
9 1 3 0 -89.87186403993356 248.30135208807656 22.91574946562342 -1 -1 0
6 1 4 0 -105.01957862254143 251.9673564771626 23.94874322695497 -1 -1 0
7 1 1 0 -100.02534466459034 252.81931566039952 21.478597903229293 -1 -1 0
8 1 1 0 -94.0426643941743 252.4237437633391 21.702770687658468 -1 -1 0
288 24 3 0 -167.209004506363 296.5479418003231 17.307493641577278 1 -1 0
287 24 2 0 -168.64233779924876 290.91766702168064 18.78509902122707 1 -1 0
2 1 3 0 -116.85149101078305 252.8291624170278 40.330724067354986 -1 -1 0
3 1 3 0 -113.80619823208768 250.12735762060518 35.726551759078085 -1 -1 0
1 1 2 0 -116.36175686053988 251.36807313365298 46.30734654368594 -1 -1 0
157 11 2 0 -262.2358857106732 58.45230171246256 63.63775901612273 0 0 -1
158 11 3 0 -265.998294791656 62.70584897893828 65.42302759873614 0 0 -1
249 20 3 0 -135.26231565821112 9.238336370811163 82.08887478471804 -1 0 0
248 20 3 0 -139.63446753590907 12.863904827712862 81.7394696145987 -1 0 0
251 20 3 0 -126.06713961091187 7.060555389982501 76.26014952403894 -1 0 0
250 20 4 0 -130.14700426514534 7.277849415909536 80.57144622791745 -1 0 0
252 20 4 0 -122.01328316407738 10.671538337686714 74.43836986753647 -1 0 0
253 20 1 0 -116.31041733680499 13.255585740707538 74.82336753790062 -1 0 0
254 20 1 0 -110.35495224712156 12.01505581845738 75.18814072676477 -1 0 0
255 20 3 0 -104.24322877543395 13.562478835274693 75.29338470586846 -1 0 0
247 20 2 0 -142.62706316334405 17.3893082290884 79.78239411117609 -1 0 0
256 20 1 0 -101.26744817473165 16.972520219365418 78.81633331702884 -1 0 0
163 11 1 0 -291.1007736965074 58.52485755021599 72.6920217478399 0 0 -1
164 11 1 0 -294.8885024827324 62.07789465147925 71.02540673244887 0 0 -1
162 11 4 0 -285.54003437463905 58.06002500657026 73.05528895976245 0 0 -1
159 11 3 0 -270.73199890923735 62.02185436890249 69.17497593041064 0 0 -1
161 11 3 0 -280.78847898827223 61.24484556455878 72.77618443716536 0 0 -1
160 11 4 0 -276.2878437540098 60.9785635623277 68.97879018091479 0 0 -1
116 6 1 0 -18.14269894488002 213.4723157172552 93.63546702299439 0 0 0
114 6 1 0 -7.026375070003577 211.27930518810928 94.02265202993117 0 0 0
115 6 3 0 -12.708145245769384 210.78678598509367 94.1211325045797 0 0 0
113 6 1 0 -2.479388472308103 212.03841025836186 90.0454419553797 0 0 0
186 13 1 0 -150.33459182877817 18.809846580422846 164.0311775595776 1 1 0
61 2 4 0 -86.06032991722475 6.257632955671283 177.0909303486736 0 0 -1
60 2 1 0 -91.41762106951661 8.824348465765631 175.82684744513713 0 0 -1
59 2 3 0 -96.58808555178621 11.983515631316118 175.618034980019 0 0 -1
58 2 4 0 -98.99810153876408 15.511321221656418 179.79814747078655 0 0 -1
62 2 3 0 -80.90163922971443 5.760885569334578 179.23143442763052 0 0 -1
63 2 4 0 -76.06582605424865 5.800196505958944 183.04607480799808 0 0 -1
185 13 3 0 -148.5029261063765 18.570971381501575 169.29707748554983 1 1 0
184 13 1 0 -146.7528510906267 21.70270819631794 174.04262620273693 1 1 0
183 13 1 0 -146.195299200405 20.006402133458863 179.6989293121076 1 1 0
50 2 3 0 -100.66320687117539 29.564638930253057 178.71631877150045 0 0 -1
46 2 2 0 -84.43524854544575 18.523545710623345 176.31437865153964 0 0 -1
48 2 3 0 -92.81112136887342 25.014634527061627 172.36480230602885 0 0 -1
49 2 2 0 -98.15432937927254 26.202629312606994 174.1752419749141 0 0 -1
47 2 1 0 -88.56221385302136 20.938748298461874 173.05132789409734 0 0 -1
45 2 1 0 -80.94496199719768 18.459918752543224 180.7799931167543 0 0 -1
265 21 3 0 -152.4543676836723 49.757581884844896 177.01890192834028 0 0 0
266 21 1 0 -149.4591746293889 45.77047919736044 173.83474568819355 0 0 0
13 2 3 0 -114.42518646715098 37.565822038921574 182.4602151009257 0 0 -1
12 2 3 0 -112.70023634318709 40.77981438061098 178.3570109805338 0 0 -1
11 2 2 0 -108.58916755941786 43.71589127225975 174.7969351850145 0 0 -1
51 2 3 0 -100.27232606461727 34.54225379939514 181.97031157517483 0 0 -1
264 21 1 0 -156.33736726384384 50.28848471209263 182.06211153770445 0 0 0
263 21 1 0 -161.44943583222837 53.69839141030831 183.2168658145206 0 0 0
19 2 3 0 -117.57872216503887 10.94269848470552 189.8246934967973 0 0 -1
20 2 4 0 -115.52944146826697 5.9742972766190885 191.55921076746174 0 0 -1
21 2 3 0 -110.56709147686564 3.1348436646150213 193.40507649561323 0 0 -1
41 2 2 0 -88.52184720701982 5.062864301569721 193.96198587560772 0 0 -1
42 2 3 0 -86.01227772961819 10.342706249183463 194.2838435992365 0 0 -1
40 2 3 0 -88.6094139364921 0.15443128258151728 190.53945109402363 0 0 -1
43 2 3 0 -82.45322963516938 14.299048489953723 190.86235107192357 0 0 -1
64 2 2 0 -73.97300206149372 8.019596759842816 188.23680614576264 0 0 -1
65 2 3 0 -74.55063341461556 7.443760541919689 193.58179049616197 0 0 -1
66 2 4 0 -78.09768854098351 5.411844309946179 197.58711365339738 0 0 -1
179 13 3 0 -151.12927611481058 29.13589305171468 196.9249159570047 1 1 0
180 13 4 0 -146.37416821290978 28.984718454818967 193.18906339818983 1 1 0
182 13 4 0 -147.09542492014265 20.74028085057912 185.4044225809398 1 1 0
181 13 3 0 -145.006501602873 24.377554124719257 189.50926662058004 1 1 0
18 2 1 0 -118.30470056577988 17.03241153422631 190.262209214754 0 0 -1
17 2 1 0 -122.83183430690332 20.6162103488714 189.8467246146254 0 0 -1
15 2 3 0 -120.32575060711758 31.818559114386783 190.58068131701634 0 0 -1
16 2 4 0 -123.34015853360546 26.55769074684921 190.7920028132587 0 0 -1
57 2 2 0 -98.76472276314298 20.211986208968025 183.78938870632157 0 0 -1
56 2 3 0 -96.40639409330979 23.76481723119598 187.33840767612227 0 0 -1
55 2 2 0 -91.51708696011993 26.274117456646067 189.06431648854098 0 0 -1
54 2 1 0 -90.787593747939 31.793793327181294 191.28242569985414 0 0 -1
44 2 2 0 -80.88533458624443 17.489640726453977 186.36126165114734 0 0 -1
259 21 3 0 -175.64404931415334 43.775889942809236 197.6432869345382 0 0 0
260 21 4 0 -172.76746008050307 46.63069355587003 193.74927020529702 0 0 0
14 2 4 0 -118.13978080655124 34.81668386733107 185.6209590340708 0 0 -1
52 2 1 0 -96.4347596202393 37.36757798972786 185.5367212754359 0 0 -1
53 2 1 0 -94.01297762612585 36.628465040667145 190.60719088140505 0 0 -1
261 21 3 0 -169.23831683822448 50.3843019942518 191.10581133432436 0 0 0
262 21 4 0 -164.3745168513945 51.322632011273704 187.9158474324783 0 0 0
67 2 1 0 -79.8212912160078 0.26003994439265116 200.1468919795745 0 0 -1
178 13 3 0 -154.6368097807707 26.570183430366473 201.05868112617767 1 1 0
177 13 2 0 -158.79400989953152 26.211971107735963 205.0915458282185 1 1 0
257 21 2 0 -186.02469284377884 43.91512009520678 201.41459209460743 0 0 0
258 21 3 0 -180.19571986282477 43.817958008140344 201.46449056693518 0 0 0
488 44 3 0 -57.73360938218086 197.8764007804436 278.2715954793139 0 -1 0
489 44 3 0 -60.56387927189599 201.78464519559358 275.30453035909187 0 -1 0
490 44 4 0 -64.29883784987007 206.76706467953238 275.8984067928229 0 -1 0
491 44 3 0 -65.13086408204227 212.0737743847705 278.604243788628 0 -1 0
492 44 4 0 -63.744458634582834 217.36533922269942 280.6386339755824 0 -1 0
487 44 2 0 -56.987854918722824 196.34868999795768 283.64543992664335 0 -1 0
494 44 1 0 -55.133235262304645 215.024004186141 286.34277598851304 0 -1 0
495 44 3 0 -50.39858782572506 211.59726874284462 288.210866771154 0 -1 0
496 44 1 0 -44.50436154005218 210.76439301440806 286.332946130688 0 -1 0
493 44 1 0 -60.00792263513627 217.83282149856404 285.00107167335284 0 -1 0
542 49 4 0 -220.09931682961155 295.5073911818573 293.0368302179053 0 -1 0
543 49 1 0 -222.60792480720391 294.0650047616776 298.17269595584156 0 -1 0
540 49 4 0 -209.89999595796468 296.89204609879914 288.54064766232847 0 -1 0
541 49 3 0 -215.18079410943022 298.04305945934317 290.7552745722217 0 -1 0
539 49 3 0 -205.6441806394771 299.61030343558116 285.6391630664273 0 -1 0
136 8 1 0 233.57236903265598 -150.92481050275856 -292.93830228824794 -1 -1 1
135 8 3 0 238.1900033769285 -147.285366271273 -295.21545743525223 -1 -1 1
133 8 1 0 249.22336621370766 -146.02354369349078 -298.721019302978 -1 -1 1
134 8 1 0 243.2257296134768 -146.25038837702425 -298.3470692533609 -1 -1 1
132 8 4 0 254.64576887805762 -145.33021636509045 -296.52997035361335 -1 -1 1
131 8 3 0 259.77702068413305 -146.4758214221303 -294.6124867762124 -1 -1 1
130 8 4 0 264.7855999629977 -143.83205866685805 -293.6645918034107 -1 -1 1
129 8 3 0 269.24416712150264 -139.9244923755754 -294.08043875462323 -1 -1 1
128 8 3 0 272.46774302519117 -137.54868754656906 -298.3915518292124 -1 -1 1
127 8 2 0 272.91046489013837 -132.3386732741235 -299.6846227369128 -1 -1 1
284 23 1 0 200.85148010995908 -184.66541376362315 -238.5306788984452 0 1 -1
283 23 1 0 203.46969679859305 -187.52494491425156 -233.98372220315392 0 1 -1
285 23 3 0 197.3429595654576 -180.39246136751578 -241.1812205879074 0 1 -1
286 23 1 0 196.95130258583197 -175.29953455009843 -244.32200267919848 0 1 -1
202 15 4 0 196.3342378452729 -122.45539317491308 -238.48895825732276 -1 0 2
203 15 1 0 190.72301829650686 -122.61915021110939 -235.61758523702775 -1 0 2
201 15 3 0 201.60813843682948 -121.03677553121278 -236.3030583432336 -1 0 2
200 15 4 0 206.48108185225325 -117.20461457429616 -235.4968828823042 -1 0 2
199 15 3 0 211.0480360129382 -116.70873709545155 -239.6105690866399 -1 0 2
197 15 2 0 216.40743789668397 -117.43994701759561 -249.6095913959104 -1 0 2
198 15 3 0 212.17482601969468 -117.99383530230327 -245.2143499612947 -1 0 2
277 23 2 0 204.69394661261828 -216.84483776315375 -223.27469750192049 0 1 -1
278 23 3 0 202.2859000967976 -212.0207133854443 -223.27220624509755 0 1 -1
280 23 4 0 203.39998008734415 -200.95283106144382 -226.14296455289394 0 1 -1
279 23 3 0 202.01139115415035 -205.99589224823444 -223.1684271334768 0 1 -1
282 23 4 0 203.77555370666602 -193.38867085183588 -232.60119157407374 0 1 -1
281 23 3 0 200.569937286136 -197.9879206752714 -230.5957083622595 0 1 -1
204 15 1 0 187.04043261109572 -125.63375196515449 -232.10646189472106 -1 0 2
206 15 1 0 184.14112528918284 -132.18223358146668 -224.48315068672886 -1 0 2
205 15 3 0 183.6701318511371 -127.43337698530847 -227.6523330975169 -1 0 2
226 17 1 0 58.91641160988468 -170.18156296909982 -184.81476439557605 1 1 -1
217 17 2 0 24.363217419260106 -196.16205054854936 -175.03571857724904 1 1 -1
218 17 3 0 25.919610525239325 -190.50798576966585 -175.43819664567502 1 1 -1
219 17 3 0 30.452368207250437 -187.98216289388736 -172.7541559179031 1 1 -1
220 17 4 0 35.90070905119844 -187.58267149921176 -170.0509405490274 1 1 -1
221 17 3 0 41.635171035923655 -188.36297161920314 -169.90769363553719 1 1 -1
222 17 4 0 46.57211227460578 -186.08976470997803 -172.51491206018497 1 1 -1
223 17 1 0 50.43264104569273 -182.31023067694883 -175.20635114469596 1 1 -1
225 17 3 0 54.86686654699387 -172.27103310168317 -180.50441343733814 1 1 -1
224 17 1 0 51.64003278718343 -177.44498597380226 -178.81468110026418 1 1 -1
512 46 4 0 155.37396157468996 -26.34478578675689 -52.41796399986741 0 1 0
513 46 1 0 154.4805076779632 -23.262262550719946 -57.320061290070846 0 1 0
514 46 1 0 153.2748870059814 -19.086070166106815 -61.60444720708966 0 1 0
516 46 1 0 146.70197364112607 -9.87724480120734 -62.51461899772411 0 1 0
515 46 3 0 149.89194089494626 -14.633859838254482 -63.46282724833928 0 1 0
508 46 3 0 159.6595537751297 -33.07497727743123 -33.38888343935606 0 1 0
509 46 3 0 155.14775173210796 -32.68029476635466 -36.99572563534933 0 1 0
510 46 4 0 153.37900743973316 -32.586050307239304 -42.6291048815721 0 1 0
511 46 3 0 153.51575224050774 -30.06483454199794 -47.68154670004532 0 1 0
227 18 2 0 8.24153765315262 -184.97814445408738 -25.480334435151175 -1 1 -1
228 18 3 0 12.91210818197361 -187.00223858439207 -22.652583484788263 -1 1 -1
229 18 3 0 18.875941621003534 -186.48361478522452 -22.07948126035747 -1 1 -1
230 18 4 0 23.788645396128054 -189.45699054210402 -20.239753458990894 -1 1 -1
507 46 2 0 160.69899574731727 -32.31732827515313 -27.516380638366833 0 1 0
146 9 1 0 176.61427948681302 -2.509975206538724 -19.348094625435404 0 -1 1
235 18 3 0 13.452415268497786 -200.76911367250764 -1.515880518953029 -1 1 -1
234 18 1 0 12.557339669693011 -198.92483857144686 -6.944573974978953 -1 1 -1
233 18 1 0 16.41126886414821 -198.5265161646665 -11.73060395948873 -1 1 -1
231 18 3 0 24.78466434153836 -192.87440026068154 -15.82484075837223 -1 1 -1
232 18 4 0 21.377553507871074 -196.66141546923538 -12.96699524962861 -1 1 -1
145 9 3 0 175.04822207935922 -7.520477932204451 -16.545514460801353 0 -1 1
143 9 1 0 171.97072629688645 -12.350615363770297 -7.128783703389229 0 -1 1
144 9 1 0 171.49190710508267 -9.09822304860677 -12.128572975180777 0 -1 1
142 9 4 0 175.66184605682295 -12.611587079655244 -2.2243039734755126 0 -1 1
236 18 1 0 10.78301214394206 -205.39088759386573 0.9885220578870116 -1 1 -1
140 9 4 0 182.0147558598947 -4.925479626974352 1.560777321444827 0 -1 1
141 9 3 0 179.52261865416642 -10.456622720020441 2.264456216270481 0 -1 1
349 30 3 0 47.461678681355025 -240.77546989658669 30.90333719911478 0 1 1
351 30 3 0 37.47874755397945 -238.11177178051864 33.15956331736929 0 1 1
348 30 3 0 52.35233016046791 -243.44489399677923 29.512702166189538 0 1 1
347 30 2 0 54.83798228214675 -247.9402444366451 26.80280828149312 0 1 1
356 30 1 0 20.589464320783105 -219.6578180504967 32.74543579426977 0 1 1
352 30 4 0 33.12723078656428 -234.51525111484173 33.7470768907492 0 1 1
350 30 4 0 42.90196398663668 -239.491510112259 34.10837920459269 0 1 1
355 30 3 0 21.967965835500905 -224.1834834489295 36.53316502826774 0 1 1
353 30 1 0 31.50707331970815 -229.88118488275924 37.53458254947309 0 1 1
354 30 1 0 26.160034696967372 -227.66631370366363 38.014023480396716 0 1 1
368 32 3 0 76.54488450834502 -114.55854667606877 99.11929181294273 0 0 0
367 32 2 0 77.64969577800412 -110.66834620337598 94.78078667895856 0 0 0
370 32 4 0 73.58413485989409 -120.07940349594247 108.34695563533428 0 0 0
371 32 3 0 69.6877634586827 -121.07958912715127 113.30520450438364 0 0 0
369 32 3 0 74.35596871081539 -116.07784037023039 104.24755434696205 0 0 0
372 32 4 0 67.79058270363754 -119.79112865147228 119.08332185197817 0 0 0
373 32 1 0 66.91889508585533 -113.9730118811985 121.03065019634093 0 0 0