LAMMPS data file via write_data, version 29 Aug 2024, timestep = 105000000, units = real

4066 atoms
4 atom types
3665 bonds
1 bond types
3264 angles
1 angle types

-590 590 xlo xhi
-590 590 ylo yhi
-590 590 zlo zhi

Masses

1 329.2
2 305.2
3 345.2
4 306.2

Bond Coeffs # harmonic

1 7.5 5.9

Angle Coeffs # harmonic

1 5 150

Atoms # full

3125 307 3 0 -310.97614162773885 -554.9892292680855 -570.9436432284692 0 1 1
3126 307 1 0 -306.6979974398092 -550.8730319503134 -571.2350478054957 0 1 1
3297 325 2 0 -163.981483089205 -464.3482887966727 -587.6142076306609 0 1 0
3117 307 2 0 -346.29127110799925 -555.4971971586594 -567.5810728119477 0 1 1
3118 307 3 0 -343.4613946698488 -551.1903989671953 -563.9312582120539 0 1 1
3119 307 3 0 -342.5939192041655 -545.597968349097 -565.7112490229069 0 1 1
3122 307 4 0 -327.1351452911193 -548.9406365727916 -568.5304222294542 0 1 1
3120 307 4 0 -337.7093976935324 -543.2582429409554 -568.3505978808317 0 1 1
3121 307 3 0 -331.93592392886694 -545.4522086755362 -569.2863161705441 0 1 1
3124 307 1 0 -316.4381578010551 -553.501836005523 -571.8543221338266 0 1 1
3123 307 1 0 -322.1356715698387 -551.4488396373158 -570.7624945461733 0 1 1
2156 210 1 0 -106.63656153296492 -519.1256757953283 -538.4445783887983 0 0 0
2153 210 1 0 -106.02210594352094 -519.6132301227759 -523.5552400323857 0 0 0
2155 210 3 0 -103.22751933391052 -517.9744027976319 -533.9103520698022 0 0 0
2154 210 1 0 -102.8756452144434 -519.5867035317942 -528.2944670581501 0 0 0
5 1 3 0 -302.67440616170313 -320.325678303161 -527.1432640639562 0 0 0
4 1 4 0 -298.6736875076703 -316.22244297480944 -527.5090233790157 0 0 0
7 1 1 0 -305.0884026295808 -328.8914678668965 -520.2600172651692 0 0 0
3 1 3 0 -294.159895133768 -313.60821044916224 -530.1499691411253 0 0 0
1 1 2 0 -288.27590001146285 -305.8764550618879 -535.475109444335 0 0 0
2 1 3 0 -292.8244203158736 -308.6143158853994 -532.8288399984592 0 0 0
2152 210 4 0 -109.92800571964234 -520.1882049927391 -519.062043011499 0 0 0
2151 210 3 0 -111.72671547778423 -519.4374219643302 -513.655176675285 0 0 0
2150 210 4 0 -110.71193766216709 -516.4687721208923 -508.9196024717442 0 0 0
2149 210 3 0 -108.89187394592712 -511.49497886020356 -506.64968500911215 0 0 0
2148 210 3 0 -107.09808334507674 -508.2835854867875 -502.5823287271963 0 0 0
10 1 1 0 -315.9363629603269 -334.4105916995761 -509.35507620070507 0 0 0
9 1 3 0 -310.9046775365545 -334.94932613947884 -512.8905701869519 0 0 0
8 1 1 0 -307.14796517790296 -333.8795798817905 -517.8389028101657 0 0 0
6 1 4 0 -304.82641878808045 -325.3519409524292 -524.8877766016951 0 0 0
2147 210 2 0 -101.67124397395747 -506.0065849837611 -500.4973670848081 0 0 0
1954 190 1 0 -405.3083673983302 -401.85508276801795 -485.0028528738032 0 0 0
1955 190 3 0 -401.3913082932638 -405.9653196129701 -485.11311594014194 0 0 0
1956 190 1 0 -396.48431875667865 -408.4373672807997 -487.4549737036804 0 0 0
1953 190 1 0 -407.4930149966369 -396.3439630899627 -485.2058888434104 0 0 0
1952 190 4 0 -406.49882524986015 -391.7662678974273 -480.99606073865914 0 0 0
1951 190 3 0 -406.8375036566047 -391.3328577644321 -474.989527556604 0 0 0
1950 190 4 0 -407.21599910164844 -389.9686170531671 -469.2121468224047 0 0 0
2537 249 2 0 -392.0460661464704 -367.2631905443522 -465.33704154036405 0 0 0
2031 198 3 0 -414.5189642589426 -479.31102335509684 -456.1197441571819 0 0 0
2032 198 4 0 -412.85572100630935 -482.12517086547604 -460.86682084399433 0 0 0
2033 198 1 0 -408.91869728413354 -480.21544834374305 -465.3353113404539 0 0 0
2034 198 1 0 -404.7548800436089 -475.7649097885219 -465.5008857567155 0 0 0
2030 198 4 0 -417.0507443043157 -474.53778068790893 -454.0022951971605 0 0 0
2029 198 3 0 -414.9624758220834 -469.47948156030725 -451.9729348177903 0 0 0
2035 198 3 0 -402.78835756484494 -470.3660021891816 -464.99175759973923 0 0 0
2036 198 1 0 -402.51831112584597 -465.86777118046496 -460.9023592019622 0 0 0
2028 198 3 0 -414.27877098931174 -463.8863911047904 -450.0242811286613 0 0 0
1949 190 3 0 -408.5504654579022 -386.420679079798 -464.5665998438749 0 0 0
1948 190 3 0 -413.5226861281114 -383.12799399084173 -462.9670788372476 0 0 0
1947 190 2 0 -419.21732105121333 -381.9754204270253 -461.73111789347803 0 0 0
2538 249 3 0 -396.7074630935803 -363.31016686448396 -463.905687958268 0 0 0
2539 249 3 0 -396.95934011312903 -357.8830829406938 -461.80312460834693 0 0 0
2540 249 4 0 -393.16735355576645 -353.42530532911263 -460.71559801239414 0 0 0
2541 249 3 0 -388.60983289346046 -350.38516505124943 -460.1862981279048 0 0 0
2542 249 4 0 -383.29155977127743 -349.87987900029987 -457.49656949737874 0 0 0
2027 198 2 0 -415.6247194312336 -458.2342036041801 -449.50623381893746 0 0 0
1483 143 1 0 -409.68790206316123 -468.55417388919517 -439.67740245182796 0 0 0
1484 143 1 0 -404.21081559065414 -468.1265917950151 -437.9779090094917 0 0 0
2543 249 1 0 -381.5023359294405 -346.13608398032585 -452.7183794586737 0 0 0
2544 249 1 0 -381.3163934108434 -346.55501649133 -446.82479306427996 0 0 0
2546 249 1 0 -384.3199031217676 -344.564790608335 -436.4305194659008 0 0 0
2545 249 3 0 -380.61858737645787 -345.0597753505423 -441.3166636989873 0 0 0
1478 143 3 0 -424.9771769427031 -489.5228293688556 -430.7583629109481 0 0 0
1477 143 2 0 -424.52418440319974 -492.47302333062265 -425.68011496594147 0 0 0
1479 143 3 0 -423.31518846979395 -485.76330930456174 -434.777861956395 0 0 0
1482 143 4 0 -414.04566513569455 -472.41952873209493 -439.1174413485733 0 0 0
1481 143 3 0 -418.0057305252211 -476.3737231959995 -436.3093614506566 0 0 0
1480 143 4 0 -421.89312044013957 -480.1412755780454 -434.2608339612264 0 0 0
1486 143 1 0 -394.6071660277544 -471.7930684039869 -432.58960046642926 0 0 0
1485 143 3 0 -399.91864260498716 -468.58475039802676 -433.94406656506345 0 0 0
2652 260 4 0 -467.6276290689331 -299.630330120421 -401.78153336612354 0 0 0
2651 260 3 0 -465.32309604849354 -298.52371171917963 -406.8916289020118 0 0 0
2650 260 4 0 -461.2524204000091 -295.1899305067445 -409.445603204623 0 0 0
2653 260 1 0 -464.6072111908965 -300.83076384564833 -396.6799836883759 0 0 0
2654 260 1 0 -461.4292149784209 -303.14433754312455 -392.0403054893235 0 0 0
2655 260 3 0 -455.52192951175374 -303.3570793485277 -391.38402284485204 0 0 0
2656 260 1 0 -452.6498152080319 -303.59817529208186 -385.7626399864561 0 0 0
3235 318 3 0 -423.80609086451005 -372.9540081466728 -362.73870452009174 0 1 0
3236 318 1 0 -418.95114683422037 -375.1367536741972 -365.1403215212811 0 1 0
3234 318 1 0 -425.6522327070064 -367.36091710089505 -361.1130245636754 0 1 0
3233 318 1 0 -425.6587585247919 -362.6266488001379 -357.40776433884906 0 1 0
3232 318 4 0 -425.94175562732966 -356.8985343560016 -355.65412523474225 0 1 0
3231 318 3 0 -426.5073697801947 -351.0805747933584 -356.489781808644 0 1 0
3230 318 4 0 -422.0142549479069 -347.34747157676816 -354.8585044827402 0 1 0
3229 318 3 0 -417.25460850347037 -345.4266194333932 -351.75908925053125 0 1 0
3228 318 3 0 -413.8816000514145 -341.01715670711303 -350.3043947650522 0 1 0
3227 318 2 0 -412.0657990002489 -335.8918329642851 -348.9371840931506 0 1 0
3966 391 1 0 -83.63074912352778 -316.77195536401285 -332.8107792713509 0 0 0
3965 391 3 0 -79.40330863525458 -313.67039632520664 -335.5177818061874 0 0 0
3964 391 1 0 -78.18563497084757 -310.502809131331 -340.25979666528144 0 0 0
3963 391 1 0 -77.5599646497598 -304.95825395562537 -342.65717155530484 0 0 0
3962 391 4 0 -76.55206689067815 -300.3577680538384 -339.4471597649456 0 0 0
3961 391 3 0 -72.94891374924565 -297.2077335217319 -335.79207296520616 0 0 0
2801 275 3 0 -426.7427373606752 -490.63761164615926 -312.6835604679628 1 0 0
727 68 2 0 -529.3170442985522 -367.8837088302722 -315.8982436321427 1 0 0
729 68 3 0 -529.2724891859083 -356.7218145846188 -313.0619851717646 1 0 0
728 68 3 0 -529.0317987224706 -362.2531298314901 -316.24511546736 1 0 0
3957 391 2 0 -63.66295370911763 -306.64857893544604 -323.75262690667495 0 0 0
3959 391 3 0 -70.11845158522782 -297.7817844766184 -326.1055353130872 0 0 0
3958 391 3 0 -67.14897910325594 -302.97507085865504 -326.041086666155 0 0 0
2806 275 1 0 -416.46163130648205 -506.2697938388436 -300.08549598373173 1 0 0
2800 275 4 0 -432.0755811204146 -489.0652100125395 -311.52566781936565 1 0 0
2802 275 4 0 -420.95722380576433 -491.1719597472862 -312.55603428709776 1 0 0
2805 275 3 0 -414.0654949996713 -500.9526309909196 -302.1244852865893 1 0 0
2803 275 1 0 -416.83317040778087 -495.2758526323644 -311.96931276501107 1 0 0
2804 275 1 0 -414.19721068329136 -497.9085857448872 -307.41150060464497 1 0 0
2799 275 3 0 -434.9234012085552 -489.0371650569292 -306.3172480423526 1 0 0
2798 275 3 0 -431.85302049746883 -485.75919727625154 -302.1525897540527 1 0 0
2797 275 2 0 -428.3424636404131 -483.7062494909574 -297.4362074113585 1 0 0
1777 173 2 0 -117.61822182181241 -392.2733964901791 -303.11135519746 0 0 1
1778 173 3 0 -113.25692952680077 -395.0695332385596 -306.15743300596034 0 0 1
1779 173 3 0 -108.43381233614852 -393.9033069512514 -309.1154153975561 0 0 1
1780 173 4 0 -103.59840014257155 -390.7951825644981 -309.01003574004676 0 0 1
1781 173 3 0 -100.17036386989963 -387.386775358087 -305.86394532594727 0 0 1
1783 173 1 0 -91.95514023101931 -389.88345743409053 -297.808411024407 0 0 1
1784 173 1 0 -86.17267707547148 -391.5311947936 -297.2288779305419 0 0 1
1782 173 4 0 -95.843576576179 -386.8851064317415 -301.116033432473 0 0 1
1786 173 1 0 -80.04303280619321 -400.8770854339856 -301.2249030279703 0 0 1
1785 173 3 0 -82.35470693425147 -395.6385149413247 -299.99224736757833 0 0 1
730 68 4 0 -527.0127489010669 -353.1934415600087 -309.3793315773544 1 0 0
731 68 3 0 -528.6276724685362 -349.7289875010699 -304.8355813184009 1 0 0
732 68 4 0 -528.6110991158248 -349.00944311257757 -299.04011438076134 1 0 0
558 51 3 0 -252.32090036995876 -303.12888990098753 -300.3875561027748 0 0 0
557 51 2 0 -254.99595500658606 -307.928724442123 -302.25021734226897 0 0 0
559 51 3 0 -252.49649598181844 -297.6456681924433 -299.8531551717984 0 0 0
3298 325 3 0 -162.1984285971308 -469.4840358443616 -589.1745430468035 0 1 0
379 33 3 0 -560.1651933980501 -553.5222815885375 -288.2927050999958 0 0 1
380 33 4 0 -556.5118958863461 -556.5716182032946 -284.4281129224623 0 0 1
378 33 3 0 -564.8863055300643 -551.8376960699967 -291.3279957647765 0 0 1
377 33 2 0 -568.8460647396647 -554.3691618341128 -294.61201380186344 0 0 1
381 33 3 0 -554.5162063262059 -554.8807353880045 -278.8349334585402 0 0 1
733 68 1 0 -529.2568747839191 -345.7916860273692 -293.88189621803645 1 0 0
734 68 1 0 -529.5846840032393 -344.53671209345003 -288.1964251518015 1 0 0
736 68 1 0 -536.9065098136792 -339.4706174396128 -280.6870162771407 1 0 0
735 68 3 0 -532.119559870081 -342.26476614562796 -283.2208284150217 1 0 0
386 33 1 0 -572.9936631488448 -543.0557504817523 -266.6436119387417 0 0 1
385 33 3 0 -570.41961170122 -542.3426302559212 -272.1445773237952 0 0 1
384 33 1 0 -565.4736359790538 -544.7834234551007 -274.34485029438395 0 0 1
383 33 1 0 -561.7851809920054 -548.9408720655131 -273.92324535338946 0 0 1
382 33 4 0 -558.1187991925071 -553.3936423230859 -274.44484522614096 0 0 1
2773 272 1 0 -35.48783766143128 -515.2616618409359 -228.47735153668654 0 0 1
2772 272 4 0 -39.84241985895611 -511.72253883005664 -226.22552681134331 0 0 1
2776 272 1 0 -27.02408782593895 -520.4228996408533 -241.57941215383588 0 0 1
2774 272 1 0 -31.982514581938403 -517.3319848910194 -232.8783927486233 0 0 1
2775 272 3 0 -27.46025861476659 -516.5373503876309 -236.34396010032063 0 0 1
2768 272 3 0 -59.626121626102965 -505.56340392908595 -217.7343771621438 0 0 1
2769 272 3 0 -53.889964960353296 -505.680612508037 -218.39185693732423 0 0 1
2767 272 2 0 -64.8149581546251 -506.25749377720297 -220.408756634733 0 0 1
2771 272 3 0 -44.75492250964473 -509.3334919976748 -224.27954999346346 0 0 1
2770 272 4 0 -49.39669875398742 -508.6232460018417 -220.97664355291687 0 0 1
2956 290 1 0 -69.15733492298456 -589.0118853361547 -182.17840723318005 0 1 1
2738 269 3 0 -450.4853351626704 -467.8643861083596 -176.47662719582294 0 1 0
2737 269 2 0 -450.48851826273545 -464.62152262596004 -181.77085362687984 0 1 0
605 55 3 0 -462.83245644317685 -533.5628276281537 -161.73414816224724 0 1 0
606 55 1 0 -467.5478069281516 -531.1371792960799 -164.16028645813716 0 1 0
2739 269 3 0 -450.1875776933251 -469.14139660483244 -170.88416509277414 0 1 0
2740 269 4 0 -446.2397098603457 -472.8752112870458 -168.32461190526857 0 1 0
2741 269 3 0 -444.95050955922176 -475.8022486542955 -163.07355521166576 0 1 0
2742 269 4 0 -443.04246597064184 -475.06468109424094 -157.37488073193498 0 1 0
136 8 1 0 -167.8593183967694 -316.60698327659657 -170.46764024672845 0 0 0
135 8 3 0 -169.9735540318302 -311.8332455482689 -167.91374293794442 0 0 0
132 8 4 0 -162.0845735720565 -297.28050098968725 -169.4145939237143 0 0 0
134 8 1 0 -169.70361722076933 -306.03949298128043 -168.6664070431978 0 0 0
133 8 1 0 -164.65450267608105 -302.6041235016041 -168.83964942887775 0 0 0
604 55 1 0 -457.89626195848007 -532.1609781264322 -158.24062428010308 0 1 0
603 55 1 0 -453.43025130385524 -531.3738719607736 -154.63797432350836 0 1 0
602 55 4 0 -450.1440599173759 -530.0602866531103 -149.90601459550905 0 1 0
601 55 3 0 -444.4744972798777 -528.3870351332824 -149.47848457559408 0 1 0
600 55 4 0 -438.69755239110543 -529.3226702301298 -150.86350820573443 0 1 0
598 55 3 0 -428.5556666760535 -526.0841120141371 -152.18162784072618 0 1 0
597 55 2 0 -423.75054481819217 -522.8979480463853 -152.19015179906398 0 1 0
599 55 3 0 -433.82398023936065 -526.6291421264999 -149.48340445883522 0 1 0
2743 269 1 0 -442.5072720298358 -469.4508629259521 -155.47484721689835 0 1 0
2746 269 1 0 -439.6427029153595 -464.56634439712536 -141.09001975731 0 1 0
2745 269 3 0 -439.74641309732567 -463.05078687941614 -146.89677557331663 0 1 0
2744 269 1 0 -442.26209933078263 -465.04118426157186 -151.7492447046915 0 1 0
144 9 1 0 -187.63108841600518 -411.3914781074366 -137.88093683705733 1 0 0
145 9 3 0 -189.48090923549384 -413.01406859950845 -143.31602262775326 1 0 0
146 9 1 0 -187.5823190850511 -412.19940411483327 -148.65005484753078 1 0 0
1856 180 1 0 -317.48434168336235 -310.0269535691708 -152.9579245004371 0 0 0
1852 180 4 0 -331.7342109023872 -300.35833983125804 -139.21406979631456 0 0 0
1853 180 1 0 -327.9378357607831 -303.5259249076542 -141.27755571851839 0 0 0
1854 180 1 0 -325.49523113695034 -306.33413179246355 -146.09517831180696 0 0 0
1855 180 3 0 -322.2006950767755 -307.9873615168733 -150.2867573375544 0 0 0
141 9 3 0 -188.5887896718809 -422.66750080233305 -125.65802164656682 1 0 0
142 9 4 0 -185.95846040180191 -418.5161540013107 -128.65753247952378 1 0 0
140 9 4 0 -194.17614756165955 -423.8547879302619 -123.68739307495275 1 0 0
143 9 1 0 -186.2624854432995 -415.64665842287593 -134.007885953468 1 0 0
3249 320 3 0 -235.7979498317277 -560.8900296916828 -105.93929827462183 1 1 0
3248 320 3 0 -234.81025010532193 -559.9834996375588 -111.69119126314318 1 1 0
3247 320 2 0 -233.4056637866248 -561.4648765445835 -117.08289066535961 1 1 0
137 9 2 0 -210.1657364683498 -428.5979177846198 -118.62885360982018 1 0 0
138 9 3 0 -204.79913282353675 -428.92098078378524 -121.24392041333722 1 0 0
139 9 3 0 -199.45558583758145 -426.8056507114665 -123.57123316207667 1 0 0
3251 320 3 0 -237.85711869748286 -554.5652793801335 -96.411115153901 1 1 0
3250 320 4 0 -236.93411021057625 -559.1696966609725 -100.2285898703633 1 1 0
3252 320 4 0 -240.5364912570095 -554.1705533765986 -90.83764938719541 1 1 0
3253 320 1 0 -243.82889430044665 -552.119894280099 -85.93859568545687 1 1 0
3254 320 1 0 -246.10554794852953 -546.6964426764794 -83.8847596277619 1 1 0
3255 320 3 0 -248.95298605881825 -541.2603469127293 -83.35285543892542 1 1 0
3256 320 1 0 -250.32009249189767 -537.0053451304339 -79.51326108886136 1 1 0
2987 294 2 0 -386.2606777026664 -519.8355145386532 -72.4623614389781 0 1 0
2988 294 3 0 -385.6166471141985 -513.9773242153411 -71.54500241086389 0 1 0
2989 294 3 0 -382.2555170213827 -509.1187509608736 -72.48199708640854 0 1 0
2990 294 4 0 -380.6265804902066 -504.2161513532779 -75.00003739978919 0 1 0
2991 294 3 0 -380.0359386129839 -498.3685695270404 -73.70915361819344 0 1 0
2992 294 4 0 -374.56937046725676 -496.23241030827535 -73.9978262500178 0 1 0
2993 294 1 0 -370.46207055861964 -493.99225926284413 -69.780361160237 0 1 0
486 43 1 0 -202.3690092079748 -578.6487758233828 -66.12428899329136 0 1 0
485 43 3 0 -204.1229366154786 -573.3502693223313 -68.13271666021122 0 1 0
484 43 1 0 -206.85357320733297 -568.246319929105 -67.56040141378868 0 1 0
483 43 1 0 -207.137604454339 -564.6785045711401 -62.92098661604434 0 1 0
482 43 4 0 -208.11999020070348 -563.4330677958234 -57.06951128706252 0 1 0
481 43 3 0 -210.3654531541823 -559.2098318619069 -53.74322852338937 0 1 0
478 43 3 0 -220.91965569018376 -545.9032294735032 -51.69151222273099 0 1 0
477 43 2 0 -225.9099048744162 -543.2531339268214 -53.29901463480727 0 1 0
480 43 4 0 -215.04395458875499 -555.4634923934088 -53.180881289890955 0 1 0
2994 294 1 0 -367.81262793186215 -488.3569757928578 -69.22343441070826 0 1 0
2996 294 1 0 -369.8553587991055 -478.87706201893013 -63.107242189333505 0 1 0
2995 294 3 0 -367.85652858129396 -483.4521468604354 -65.89869371104214 0 1 0
479 43 3 0 -216.92172960907766 -550.0090416868302 -51.722317244865 0 1 0
3347 330 2 0 -234.0560108898586 -447.24848367599765 -50.100789610260556 1 0 0
3348 330 3 0 -231.97761174908484 -451.316463018083 -46.29781570238629 1 0 0
3349 330 3 0 -229.62833002637797 -451.46399676129784 -41.03943106820089 1 0 0
3350 330 4 0 -225.27347425093356 -449.49097676561905 -38.27576340250066 1 0 0
3351 330 3 0 -220.56080960822743 -451.80462169439005 -35.06828385714539 1 0 0
3656 360 1 0 -414.06630600099606 -365.63531587543486 -44.47601462590743 0 1 0
3654 360 1 0 -404.4629708813397 -367.3579006860619 -40.52420163233527 0 1 0
3655 360 3 0 -407.8868002700652 -365.3434065030272 -44.97259067800904 0 1 0
3352 330 4 0 -216.83362286558784 -451.1118367802618 -30.814776740730313 1 0 0
3355 330 3 0 -209.8672253855625 -439.87786752889633 -21.852931984945176 1 0 0
3353 330 1 0 -214.15336748029682 -448.628785992692 -26.316544433618457 1 0 0
3354 330 1 0 -214.20150682559253 -443.35852432568737 -23.96871481424094 1 0 0
3011 296 3 0 -5.69394149403064 -379.85525282813455 -24.53955897541228 0 0 0
3651 360 3 0 -398.1760716555117 -368.43532686009695 -24.632778249161746 0 1 0
3650 360 4 0 -393.55108122350305 -369.2374739815388 -21.725816961609315 0 1 0
3652 360 4 0 -401.48399542842196 -367.63168352821344 -29.417377059217785 0 1 0
3647 360 2 0 -377.0687622794872 -365.560813366241 -25.436446847380584 0 1 0
3648 360 3 0 -381.92987910162134 -367.4751270651112 -22.471363455760436 0 1 0
3649 360 3 0 -387.7586866486009 -368.7463127229061 -20.85005020575577 0 1 0
3015 296 3 0 -16.83218795150267 -372.0855136417917 -5.717360888760274 0 0 0
3012 296 4 0 -9.281387550350898 -377.63053021740905 -19.790254305464373 0 0 0
3653 360 1 0 -402.49848134650006 -365.92486519691073 -35.00080614534144 0 1 0
3356 330 1 0 -209.42986060546613 -435.84719556463375 -17.2923757635483 1 0 0
3016 296 1 0 -19.335448242042357 -366.5952021063887 -5.975604581462292 0 0 0
3014 296 1 0 -13.132753812169362 -374.43347329079586 -9.702878591603799 0 0 0
3013 296 1 0 -8.783893386301898 -376.17868642309725 -13.80038759391862 0 0 0
1851 180 3 0 -333.65882538154415 -296.29957197868964 -135.68758590351726 0 0 0
509 46 3 0 -0.645381605764153 -308.02269219579745 13.312317261132405 0 0 -1
3296 324 1 0 -502.57725982387075 -587.8442059915991 37.66338904704324 1 0 -1
511 46 3 0 -0.6465003407754837 -300.7020651755557 4.09579159207622 0 0 -1
1630 158 4 0 -416.14916470991784 -515.7365163269861 250.39929381449988 0 0 0
3292 324 4 0 -524.1657176358202 -584.4907939158796 32.02856815031135 1 0 -1
3293 324 1 0 -518.7904135748558 -585.865184535101 33.88907830233194 1 0 -1
1279 123 3 0 -305.93506723206036 -477.8366242920372 33.40907246016408 1 0 0
1278 123 3 0 -308.8011504241169 -478.11328531589015 27.901709905173465 1 0 0
1277 123 2 0 -312.55491803973183 -481.1643792210886 24.709664561059657 1 0 0
3291 324 3 0 -526.5471381678215 -579.225894701412 33.3968247432027 1 0 -1
3289 324 3 0 -534.3928004012008 -571.5246651320604 36.47181235567714 1 0 -1
3290 324 4 0 -530.0675933000227 -574.7337844238803 33.09356570965214 1 0 -1
3294 324 1 0 -512.6188687091707 -586.4257857525489 33.32485289850701 1 0 -1
3295 324 3 0 -508.2027110240744 -589.0659256547824 36.173331261757504 1 0 -1
3288 324 3 0 -536.760900599919 -571.1449994230047 42.21241042310262 1 0 -1
3287 324 2 0 -541.6021473710165 -568.5306195462189 44.55321791663414 1 0 -1
3537 349 2 0 -9.38162679582212 -502.38194291413674 52.672012465203096 0 0 0
3538 349 3 0 -8.722850375132106 -508.0564931379799 54.29735797870028 0 0 0
1280 123 4 0 -304.5538445861377 -481.07668433592704 37.833394406538204 1 0 0
1282 123 4 0 -309.94185284740786 -481.66015581047213 47.08794464556234 1 0 0
1281 123 3 0 -305.83517067118106 -483.49820517875077 43.07223312353551 1 0 0
1283 123 1 0 -312.2094627259844 -480.6533180127423 52.336159348801516 1 0 0
2589 254 3 0 -285.0718344289969 -383.5449863293561 46.779819550986375 0 1 0
2588 254 3 0 -278.784089547379 -383.53120563070564 46.631495546043425 0 1 0
3001 295 3 0 -525.231890368753 -326.47302649558947 47.453998055344165 0 1 0
3002 295 4 0 -522.3056411889257 -329.455997275007 43.43142624762435 0 1 0
2092 204 4 0 -535.0424794130289 -324.9651911634729 47.38859057121925 1 0 0
2090 204 4 0 -531.4794989899766 -316.57306827408746 40.273544725096826 1 0 0
2091 204 3 0 -534.5661484685353 -320.39244215827625 43.748620405938105 1 0 0
3003 295 1 0 -519.2720731850442 -327.04015329610195 38.73383989259791 0 1 0
3005 295 3 0 -511.4302254872449 -320.621579952006 41.0307395280267 0 1 0
3004 295 1 0 -515.7182552099887 -322.4037598626645 37.149107871456614 0 1 0
3006 295 1 0 -506.9796199031759 -323.74021260736004 43.873360139631046 0 1 0
2089 204 3 0 -529.4399763427668 -311.60018852271526 41.75862248005274 1 0 0
2088 204 3 0 -525.9639878821949 -308.52048162394817 45.61294145290263 1 0 0
3541 349 3 0 -4.784885365166923 -520.3970500529155 62.86325032536457 0 0 0
3542 349 4 0 -5.323914185051153 -519.5934156895979 68.4545868419058 0 0 0
3539 349 3 0 -10.051408562346886 -513.7263496665265 55.70333341492218 0 0 0
3540 349 4 0 -7.629260712611585 -518.6045924286359 58.51032279551652 0 0 0
1286 123 1 0 -322.27977380796784 -482.3870033218785 65.42410229937418 1 0 0
1285 123 3 0 -319.41863185643575 -480.1785857437932 60.82030928390476 1 0 0
1284 123 1 0 -317.4260444009579 -480.2097477605893 54.98581313929819 1 0 0
2596 254 1 0 -278.6195156798388 -414.5782776234064 67.09237244701254 0 1 0
2595 254 3 0 -275.9299788920045 -409.53149941951443 64.90878932091798 0 1 0
2594 254 1 0 -279.11678392739776 -404.8026729407582 63.54791998022782 0 1 0
2593 254 1 0 -281.20539379276084 -401.7998800849347 59.010166557338344 0 1 0
2590 254 4 0 -286.8461255188385 -388.0045583698906 50.117134306325035 0 1 0
2591 254 3 0 -285.243409770285 -393.66792122813865 51.60793597632199 0 1 0
2592 254 4 0 -282.9463534783631 -396.8409407038863 55.95026725064308 0 1 0
2587 254 2 0 -274.60927120790427 -379.45264896252615 47.04457298619304 0 1 0
2094 204 1 0 -541.5278769213501 -330.94573937698505 55.7660462297669 1 0 0
2095 204 3 0 -540.2531527851304 -334.80476765000293 59.67264520508905 1 0 0
2096 204 1 0 -538.8146440202563 -336.9207998903608 64.71158906723895 1 0 0
2093 204 1 0 -538.5699738525559 -327.13787310401943 51.66057582480091 1 0 0
3000 295 4 0 -525.4601823403448 -324.49903668509444 53.08217286904509 0 1 0
2999 295 3 0 -528.3214656737229 -322.48713651618425 57.723102317394 0 1 0
2998 295 3 0 -532.2345108564068 -319.90996796962395 60.942145982960916 0 1 0
2997 295 2 0 -531.0493434339321 -316.4233778535696 65.70800115562075 0 1 0
2087 204 2 0 -525.4713011473838 -304.16388087643253 49.45440149179221 1 0 0
3543 349 1 0 -2.960720722153851 -520.6301902350689 73.56790046407967 0 0 0
3544 349 1 0 -2.8855651825253035 -522.923233041734 79.15548786476573 0 0 0
1631 158 3 0 -419.1668846174676 -511.5443598311504 247.78032445481318 0 0 0
3627 358 2 0 -44.7410321583604 -498.7561213669267 67.66084839007976 0 0 0
3628 358 3 0 -43.80980102893737 -495.69168369784035 72.3367168018342 0 0 0
3629 358 3 0 -43.796274691629996 -497.3721211447442 77.84226740064452 0 0 0
3630 358 4 0 -44.28054847990068 -501.3471841700851 81.89064828116335 0 0 0
1629 158 3 0 -412.85203733036707 -518.11203369242 254.92659107519734 0 0 0
3634 358 1 0 -49.879437503292245 -492.5125733014831 102.13975806470124 0 0 0
3631 358 3 0 -44.90628892919391 -499.3663460097041 87.38422017279176 0 0 0
3632 358 4 0 -46.18480094664193 -498.34768780630554 93.00902909963092 0 0 0
3633 358 1 0 -48.80477849186269 -494.68084699606715 96.72453194962102 0 0 0
517 47 2 0 -112.11847926011049 -527.3100689893425 122.69576693838673 0 1 -1
526 47 1 0 -80.79088744529312 -520.2989602366542 125.2020887695212 0 1 -1
3635 358 3 0 -53.941151446361665 -491.65143916313457 106.15304738543442 0 0 0
3636 358 1 0 -58.1568361057572 -492.80415154170714 110.16705707245984 0 0 0
518 47 3 0 -110.36539831995424 -531.0845499334955 126.59528034436337 0 1 -1
519 47 3 0 -108.04027464439217 -532.952621075125 131.80024293424216 0 1 -1
520 47 4 0 -102.98056778386415 -534.9362923441714 134.43160757772904 0 1 -1
521 47 3 0 -97.24728151925898 -535.3096811307549 132.18550111501844 0 1 -1
522 47 4 0 -92.7116233622698 -532.4804801871596 130.0784095364831 0 1 -1
523 47 1 0 -91.33494949063642 -526.8180520564006 128.76083832879064 0 1 -1
524 47 1 0 -91.90394795810035 -521.603495624724 126.88532726032797 0 1 -1
525 47 3 0 -86.92918777864122 -519.7864035215014 124.52875712378848 0 1 -1
647 60 2 0 -237.0640031662164 -409.9368562606442 135.12962777795582 0 0 0
648 60 3 0 -231.1742939827408 -410.1955015203573 133.46123750837134 0 0 0
649 60 3 0 -225.96216734953262 -410.028171908639 130.75656409111266 0 0 0
650 60 4 0 -220.45345316012765 -410.96764165031396 131.63676710508406 0 0 0
651 60 3 0 -216.05113186080882 -408.18724830947724 134.40517759701086 0 0 0
654 60 1 0 -200.4119984115537 -408.01028639168106 139.61103965941217 0 0 0
652 60 4 0 -211.54241427773857 -409.944391477719 137.81510183775424 0 0 0
653 60 1 0 -205.92177220472442 -410.2753980563663 139.37948307131103 0 0 0
656 60 1 0 -189.05054949273887 -409.5711986402867 139.3257601488616 0 0 0
655 60 3 0 -194.62360919022953 -408.7918708787996 137.8784901955132 0 0 0
2615 256 3 0 -330.70191553490724 -554.4039963815638 168.04177282062165 0 1 0
2614 256 1 0 -327.2368161360311 -549.5777104379764 168.73142427556803 0 1 0
2611 256 3 0 -311.82718487817624 -543.2161446941099 171.92827521044572 0 1 0
2612 256 4 0 -316.93491045209277 -544.7355064694952 169.089887191648 0 1 0
2613 256 1 0 -322.16234754318987 -546.5375874704936 168.29260212247928 0 1 0
2610 256 4 0 -306.5173956169051 -540.9701385127672 172.0183603789109 0 1 0
2609 256 3 0 -304.0443596407904 -535.9625623405385 170.93366179409722 0 1 0
2607 256 2 0 -302.83853927996415 -526.1581981017055 165.2579792147488 0 1 0
2608 256 3 0 -302.6417480492059 -530.4610049579088 169.216023342172 0 1 0
3646 359 1 0 -6.694739512623475 -313.7555654446459 167.33129216730964 0 1 0
3643 359 1 0 -5.5636709849023855 -299.8264713245574 156.75355289202076 0 1 0
3644 359 1 0 -5.208054578617845 -305.3057659849213 159.16156398471745 0 1 0
3645 359 3 0 -6.3695794687805 -309.3094597014806 163.5016766343479 0 1 0
2616 256 1 0 -334.6382620802086 -557.8319799542953 170.91302254602374 0 1 0
3422 337 4 0 -204.81325937207717 -429.1890548129386 192.8642490680875 0 1 0
3421 337 3 0 -207.83255011751604 -424.8875073826625 195.98051449001758 0 1 0
2854 280 1 0 -235.0213013859058 -588.5655954544958 207.0963220392445 0 0 0
2855 280 3 0 -234.24622299128367 -582.4859163549274 207.07781175591379 0 0 0
2856 280 1 0 -229.023558305778 -579.4285803885059 206.21919047770226 0 0 0
3426 337 1 0 -204.46242795915046 -448.19018656230475 197.68543734671567 0 1 0
3425 337 3 0 -200.33957488266773 -444.41867211262087 195.43194764667402 0 1 0
3424 337 1 0 -200.99334682286323 -438.71298764253817 193.66037809953087 0 1 0
3423 337 1 0 -200.51777733411288 -432.83297903932936 193.67448292997568 0 1 0
3420 337 4 0 -206.02878781699897 -419.7476350938064 197.77650238757315 0 1 0
3419 337 3 0 -204.49285285750125 -414.4472174787725 196.08759407128645 0 1 0
3418 337 3 0 -207.62670369381254 -409.4359256544277 195.0786043579966 0 1 0
3417 337 2 0 -212.3529102239247 -407.86484880892596 198.09297527131272 0 1 0
3699 365 3 0 -307.07419463250193 -364.9270580805108 198.47381832974295 0 1 0
3698 365 3 0 -307.888618661104 -370.8051179134808 197.9122802734574 0 1 0
3697 365 2 0 -310.7160533566585 -375.91941737946206 198.15337178834855 0 1 0
3700 365 4 0 -306.09534105913366 -359.289503671592 197.0563806002605 0 1 0
3701 365 3 0 -310.00546770930384 -354.50250061945724 197.93932194843993 0 1 0
3702 365 4 0 -310.87138508409396 -348.58906353152753 197.78532304756968 0 1 0
3706 365 1 0 -321.0929891395371 -328.9931371924034 196.7654342979385 0 1 0
3703 365 1 0 -313.7374914150383 -344.12431603098247 195.37148127998958 0 1 0
3704 365 1 0 -316.30867905426146 -338.9353575250853 196.53526321957324 0 1 0
3705 365 3 0 -318.2725531462556 -333.97895039731725 198.49705195973715 0 1 0
2847 280 2 0 -227.81513506411142 -589.5982597321873 231.7880903016208 0 0 0
1636 158 1 0 -434.59105119928137 -508.0547275727978 229.37369627998694 0 0 0
1635 158 3 0 -430.08116709206814 -508.1790671388587 233.25244211067618 0 0 0
1634 158 1 0 -428.0026148056544 -505.7625400147197 238.07089179064013 0 0 0
3558 351 3 0 -84.8110591587592 -485.8477631957455 233.49076696317994 1 1 -1
3557 351 2 0 -81.25236120618581 -489.39953971392 230.51211092588 1 1 -1
3562 351 4 0 -102.5723988181596 -473.0421019481167 232.86509691902896 1 1 -1
3563 351 1 0 -108.10619680761017 -471.4673399792411 234.02799638152132 1 1 -1
3561 351 3 0 -97.33056749922078 -475.9022461147592 233.12790961309506 1 1 -1
3560 351 4 0 -92.88837107650346 -478.86135881201443 230.5658192291045 1 1 -1