
bond_style  harmonic
bond_coeff  1 7.5 5.9

angle_style harmonic
angle_coeff 1 5.0 150.0

pair_style  hybrid/overlay lj/cut 10.0 base/rna 18.0
pair_modify shift yes

pair_coeff * * lj/cut 2.0 8.9089871814

pair_coeff 1 1 base/rna 0.00000 3.0 13.8 1.5 0.5 1.8326 0.9425 1.8326 1.1345
pair_coeff 1 2 base/rna 0.00000 3.0 13.8 1.5 0.5 1.8326 0.9425 1.8326 1.1345
pair_coeff 1 3 base/rna 0.00000 3.0 13.8 1.5 0.5 1.8326 0.9425 1.8326 1.1345
pair_coeff 1 4 base/rna 3.33333 3.0 13.8 1.5 0.5 1.8326 0.9425 1.8326 1.1345
pair_coeff 2 2 base/rna 0.00000 3.0 13.8 1.5 0.5 1.8326 0.9425 1.8326 1.1345
pair_coeff 2 3 base/rna 5.00000 3.0 13.8 1.5 0.5 1.8326 0.9425 1.8326 1.1345
pair_coeff 2 4 base/rna 0.00000 3.0 13.8 1.5 0.5 1.8326 0.9425 1.8326 1.1345
pair_coeff 3 3 base/rna 0.00000 3.0 13.8 1.5 0.5 1.8326 0.9425 1.8326 1.1345
pair_coeff 3 4 base/rna 3.33333 3.0 13.8 1.5 0.5 1.8326 0.9425 1.8326 1.1345
pair_coeff 4 4 base/rna 0.00000 3.0 13.8 1.5 0.5 1.8326 0.9425 1.8326 1.1345

minimize 1.0e-4 1.0e-6 1000 10000

CITE-CITE-CITE-CITE-CITE-CITE-CITE-CITE-CITE-CITE-CITE-CITE-CITE

Your simulation uses code contributions which should be cited:

- Type Label Framework: https://doi.org/10.1021/acs.jpcb.3c08419

@Article{Gissinger24,
 author = {Jacob R. Gissinger, Ilia Nikiforov, Yaser Afshar, Brendon Waters, Moon-ki Choi, Daniel S. Karls, Alexander Stukowski, Wonpil Im, Hendrik Heinz, Axel Kohlmeyer, and Ellad B. Tadmor},
 title = {Type Label Framework for Bonded Force Fields in LAMMPS},
 journal = {J. Phys. Chem. B},
 year =    2024,
 volume =  128,
 number =  13,
 pages =   {3282–-3297}
}

CITE-CITE-CITE-CITE-CITE-CITE-CITE-CITE-CITE-CITE-CITE-CITE-CITE

Switching to 'neigh_modify every 1 delay 0 check yes' setting during minimization
Generated 0 of 6 mixed pair_coeff terms from geometric mixing rule
Neighbor list info ...
  update: every = 1 steps, delay = 0 steps, check = yes
  max neighbors/atom: 2000, page size: 100000
  master list distance cutoff = 33
  ghost atom cutoff = 33
  binsize = 16.5, bins = 13 13 13
  2 neighbor lists, perpetual/occasional/extra = 2 0 0
  (1) pair lj/cut, perpetual, trim from (2)
      attributes: half, newton on, cut 25
      pair build: trim
      stencil: none
      bin: none
  (2) pair base/rna, perpetual
      attributes: half, newton on
      pair build: half/bin/newton
      stencil: half/bin/3d
      bin: standard
Per MPI rank memory allocation (min/avg/max) = 8.407 | 8.407 | 8.407 Mbytes
   Step          Temp          E_pair         E_mol          TotEng         Press     
         0   0              2257.6989      106.76145      2364.4604      87.179845    
       168   0             -117.41072      53.065851     -64.344871      0.0075196205 
Loop time of 0.0177743 on 4 procs for 168 steps with 116 atoms

99.1% CPU use with 4 MPI tasks x 1 OpenMP threads

Minimization stats:
  Stopping criterion = energy tolerance
  Energy initial, next-to-last, final = 
      2364.46035343715   -64.339524419378  -64.3448707440609
  Force two-norm initial, final = 5885.7388 0.45741472
  Force max component initial, final = 2667.2637 0.10350721
  Final line search alpha, max atom move = 0.16189583 0.016757385
  Iterations, force evaluations = 168 276

MPI task timing breakdown:
Section |  min time  |  avg time  |  max time  |%varavg| %total
---------------------------------------------------------------
Pair    | 0.0062586  | 0.0088364  | 0.012082   |   2.4 | 49.71
Bond    | 0.00040466 | 0.00070168 | 0.00093144 |   0.0 |  3.95
Neigh   | 0          | 0          | 0          |   0.0 |  0.00
Comm    | 0.0031421  | 0.0065086  | 0.0089555  |   2.8 | 36.62
Output  | 0          | 0          | 0          |   0.0 |  0.00
Modify  | 0          | 0          | 0          |   0.0 |  0.00
Other   |            | 0.001728   |            |       |  9.72

Nlocal:             29 ave          37 max          16 min
Histogram: 1 0 0 0 0 1 0 0 0 2
Nghost:             85 ave         100 max          69 min
Histogram: 1 0 0 0 0 2 0 0 0 1
Neighs:            249 ave         354 max         170 min
Histogram: 1 0 1 0 1 0 0 0 0 1

Total # of neighbors = 996
Ave neighs/atom = 8.5862069
Ave special neighs/atom = 5.3793103
Neighbor list builds = 0
Dangerous builds = 0
reset_timestep 0

dump d1 all custom 50000 outputs/${tag}.lammpstrj id mol type q xu yu zu
dump d1 all custom 50000 outputs/7LYJ_aso_n5_smallbox.lammpstrj id mol type q xu yu zu
dump_modify d1 sort id

thermo_style custom step pe ke etotal temp press density
thermo       10000
thermo_modify flush yes

variable vpe equal pe
variable vke equal ke
variable vT  equal temp
variable vE  equal etotal
variable vRg equal gyration(all)

fix favg all ave/time 10000 10 100000 v_vpe v_vke v_vT v_vE v_vRg     file outputs/thermo_${tag}_averaged.dat
fix favg all ave/time 10000 10 100000 v_vpe v_vke v_vT v_vE v_vRg     file outputs/thermo_7LYJ_aso_n5_smallbox_averaged.dat

velocity all create ${T_target} 23021 rot yes dist gaussian
velocity all create 300 23021 rot yes dist gaussian

fix fxlang all langevin ${T_target} ${T_target} 1000.0 28821
fix fxlang all langevin 300 ${T_target} 1000.0 28821
fix fxlang all langevin 300 300 1000.0 28821
fix fxnve  all nve
fix recenter all momentum 1000 linear 1 1 1

run 5000000
Generated 0 of 6 mixed pair_coeff terms from geometric mixing rule
Per MPI rank memory allocation (min/avg/max) = 7.298 | 7.298 | 7.298 Mbytes
   Step         PotEng         KinEng         TotEng          Temp          Press         Density    
         0  -64.344871      102.83795      38.493076      300            0.5951392      0.0078382004 
     10000  -22.272804      100.08282      77.810014      291.96271      1.1630642      0.0078382004 
     20000  -30.024571      115.31789      85.293322      336.40664      0.61497714     0.0078382004 
     30000  -12.218713      104.15679      91.938077      303.84735      1.2462177      0.0078382004 
     40000  -12.811608      113.82569      101.01408      332.05356      0.30744229     0.0078382004 
     50000  -9.6882147      92.003341      82.315127      268.39317      0.48825635     0.0078382004 
     60000  -6.317549       93.738035      87.420486      273.45364     -0.56074494     0.0078382004 
     70000  -9.6133306      114.73655      105.12322      334.71073      0.99669966     0.0078382004 
     80000  -4.2736513      98.460801      94.187149      287.23094      0.3410663      0.0078382004 
     90000  -3.9032526      116.63182      112.72857      340.23964     -0.37237522     0.0078382004 
    100000   5.1964692      108.15376      113.35023      315.50736      1.4379485      0.0078382004 
    110000   19.110215      97.780452      116.89067      285.24622     -1.6856078      0.0078382004 
    120000  -0.37021424     86.248505      85.87829       251.6051      -0.22695227     0.0078382004 
    130000   13.269143      105.83364      119.10278      308.73906      0.8534083      0.0078382004 
    140000  -15.840672      99.204462      83.363789      289.40036     -0.076191202    0.0078382004 
    150000  -17.654099      102.44479      84.790694      298.85309     -0.48305302     0.0078382004 
    160000  -18.44132       93.384836      74.943517      272.42328      0.81275873     0.0078382004 
    170000  -2.01218        98.814165      96.801985      288.26178      0.96677449     0.0078382004 
    180000  -14.746277      101.19678      86.450506      295.21238     -0.7550219      0.0078382004 
    190000   3.2204803      103.88962      107.1101       303.06796     -0.090353871    0.0078382004 
    200000  -5.2067345      93.951859      88.745124      274.07741      0.23006076     0.0078382004 
    210000   14.971018      99.794194      114.76521      291.12073     -0.21753981     0.0078382004 
    220000   4.5422474      100.82853      105.37078      294.13811      0.20303253     0.0078382004 
    230000   10.981914      112.31539      123.29731      327.64771      1.9296709      0.0078382004 
    240000   1.1224055      106.1044       107.22681      309.52893      0.31383017     0.0078382004 
    250000   4.3704538      97.078273      101.44873      283.19782     -0.13063512     0.0078382004 
    260000   2.6346748      102.42537      105.06004      298.79641      0.52230422     0.0078382004 
    270000   19.129198      103.49721      122.6264       301.9232       0.64688786     0.0078382004 
    280000   4.9880243      101.88227      106.8703       297.2121      -0.77724152     0.0078382004 
    290000   9.9900854      100.68762      110.6777       293.72704     -0.37658479     0.0078382004 
    300000   0.82807962     89.024522      89.852601      259.70332      1.6444353      0.0078382004 
    310000  -9.7425527      102.61409      92.871542      299.34698     -0.24165809     0.0078382004 
    320000   8.036959       99.201171      107.23813      289.39076      0.25567341     0.0078382004 
    330000  -21.599475      85.292654      63.693179      248.81668     -0.45730778     0.0078382004 
    340000  -6.0634203      92.212918      86.149498      269.00455      0.7297229      0.0078382004 
    350000   4.8697487      84.369346      89.239095      246.12319     -0.1047966      0.0078382004 
    360000   8.4276722      113.65755      122.08523      331.56308     -1.3929194      0.0078382004 
    370000   2.2703533      110.43011      112.70046      322.14795      0.012988284    0.0078382004 
    380000  -4.343145       120.17769      115.83454      350.58368      1.0233877      0.0078382004 
    390000  -8.7199922      86.522438      77.802445      252.40422     -0.22794724     0.0078382004 
    400000  -18.501029      104.5551       86.054073      305.0093      -0.20459554     0.0078382004 
    410000  -7.9480092      123.55299      115.60498      360.43015      1.388933       0.0078382004 
    420000  -23.381194      95.169512      71.788318      277.62956     -1.6049056      0.0078382004 
    430000  -7.0954709      96.621274      89.525803      281.86465     -1.7974023      0.0078382004 
    440000   16.336419      122.05773      138.39414      356.06815     -0.16200138     0.0078382004 
    450000   1.020653       102.72706      103.74772      299.67653      1.7965597      0.0078382004 
    460000  -12.663682      86.705992      74.042309      252.93968     -0.74951102     0.0078382004 
    470000   5.2830099      101.3737       106.65671      295.7285      -0.85371436     0.0078382004 
    480000  -15.301825      105.09298      89.791158      306.57842     -1.5288201      0.0078382004 
    490000  -14.017465      101.96427      87.946806      297.4513       0.079746725    0.0078382004 
    500000   3.3903555      89.321235      92.711591      260.5689      -0.39734162     0.0078382004 
    510000  -0.59563209     104.31596      103.72032      304.31166     -1.0686007      0.0078382004 
    520000  -0.99271944     104.026        103.03328      303.4658      -1.1240966      0.0078382004 
    530000   8.5817463      101.05425      109.636        294.79658      0.5191982      0.0078382004 
    540000  -6.5360215      109.86142      103.3254       320.48895      0.92991431     0.0078382004 
    550000  -1.8378288      98.399278      96.56145       287.05147     -0.75972584     0.0078382004 
    560000  -6.0355747      92.80917       86.773595      270.74394      0.47487138     0.0078382004 
    570000  -1.5702597      96.376704      94.806444      281.15119     -0.71234756     0.0078382004 
    580000  -5.0481551      103.47704      98.428886      301.86437      1.3351489      0.0078382004 
    590000   5.39232        105.04401      110.43633      306.43556      1.5879895      0.0078382004 
    600000  -7.715521       115.61229      107.89677      337.26546      0.64479812     0.0078382004 
    610000   0.69242218     100.49944      101.19186      293.17807      0.64209772     0.0078382004 
    620000  -17.911736      93.810532      75.898796      273.66513      1.1337994      0.0078382004 
    630000  -3.5111777      94.261534      90.750356      274.98079     -0.68811075     0.0078382004 
    640000   10.435423      105.04171      115.47713      306.42884      0.15431684     0.0078382004 
    650000   7.9218921      100.65149      108.57338      293.62164      0.79656989     0.0078382004 
    660000   0.79651217     94.362756      95.159268      275.27608     -1.4041642      0.0078382004 
    670000   10.203057      106.7715       116.97456      311.47501      1.1649571      0.0078382004 
    680000   11.518624      102.99405      114.51268      300.4554       0.76318066     0.0078382004 
    690000   6.3370643      99.600044      105.93711      290.55435      0.54294887     0.0078382004 
    700000   9.115953       102.35999      111.47594      298.60569      1.2892761      0.0078382004 
    710000   0.67965504     95.587349      96.267004      278.84848      0.24443723     0.0078382004 
    720000   8.475098       104.072        112.5471       303.59999     -0.34417058     0.0078382004 
    730000   23.692135      108.29291      131.98504      315.91328      0.86167732     0.0078382004 
    740000   8.7004287      89.658188      98.358617      261.55186      1.3067877      0.0078382004 
    750000   6.0467967      99.945409      105.99221      291.56186     -1.2111126      0.0078382004 
    760000   9.0360258      93.754602      102.79063      273.50197      0.5889235      0.0078382004 
    770000   13.430706      94.262437      107.69314      274.98343     -0.40985118     0.0078382004 
    780000   32.975435      111.13405      144.10948      324.20148      0.37037027     0.0078382004 
    790000   30.570978      94.197515      124.76849      274.79404     -1.0221764      0.0078382004 
    800000   10.741499      106.70709      117.44859      311.28711     -0.79739256     0.0078382004 
    810000   4.6759899      111.4872       116.16319      325.2317       0.34180915     0.0078382004 
    820000   11.893581      100.08099      111.97457      291.95737      0.22007364     0.0078382004 
    830000   19.849126      97.271257      117.12038      283.76079     -0.44739978     0.0078382004 
    840000   3.4117247      105.37071      108.78243      307.3886       0.15514277     0.0078382004 
    850000   14.8303        106.7123       121.5426       311.30232     -1.0532471      0.0078382004 
    860000   10.570444      109.10821      119.67866      318.29168     -0.95032922     0.0078382004 
    870000   12.210983      102.70506      114.91604      299.61234      0.7023435      0.0078382004 
    880000   25.507404      99.110562      124.61797      289.12643      0.89638815     0.0078382004 
    890000   16.877847      91.086786      107.96463      265.71938      0.63975017     0.0078382004 
    900000   12.165395      97.91083       110.07622      285.62656     -0.24393369     0.0078382004 
    910000   11.290269      100.35466      111.64493      292.75574      1.3523225      0.0078382004 
    920000   19.882144      99.13671       119.01885      289.20271      0.084360918    0.0078382004 
    930000   5.6885867      98.662182      104.35077      287.81841     -0.94296585     0.0078382004 
    940000   11.569096      94.071036      105.64013      274.42507     -0.071273822    0.0078382004 
    950000   28.050691      111.85023      139.90092      326.29074     -0.77814842     0.0078382004 
    960000   25.785365      89.152839      114.9382       260.07765     -1.0475046      0.0078382004 
    970000   8.0534047      94.544194      102.5976       275.80537     -0.44689414     0.0078382004 
    980000   12.85483       97.573581      110.42841      284.64273      0.27919559     0.0078382004 
    990000   6.627588       115.39857      122.02616      336.64199      0.076179246    0.0078382004 
   1000000  -3.845566       98.635529      94.789963      287.74066     -0.92792016     0.0078382004 
   1010000  -12.463287      114.16596      101.70267      333.0462       1.1836249      0.0078382004 
   1020000  -1.865313       106.66385      104.79854      311.16097      1.2493135      0.0078382004 
   1030000   5.7156465      95.665653      101.3813       279.07691     -0.90686393     0.0078382004 
   1040000   0.84093873     94.307858      95.148796      275.11593     -0.0066654756   0.0078382004 
   1050000   11.426402      107.15312      118.57952      312.58826      1.198909       0.0078382004 
   1060000  -5.7715049      116.62276      110.85126      340.21321      1.2909889      0.0078382004 
   1070000  -14.687469      116.89584      102.20838      341.00986      0.78947471     0.0078382004 
   1080000  -3.2525501      99.555506      96.302956      290.42443      0.98656963     0.0078382004 
   1090000  -17.767504      98.527749      80.760245      287.42624     -0.10739429     0.0078382004 
   1100000  -9.7122255      108.34677      98.634545      316.0704       0.17605565     0.0078382004 
   1110000  -4.8680299      106.51277      101.64474      310.72023      0.44042162     0.0078382004 
   1120000  -14.061552      113.58329      99.521741      331.34644      1.3812912      0.0078382004 
   1130000   1.0284034      90.010094      91.038498      262.57845      1.046281       0.0078382004 
   1140000  -13.077624      104.59546      91.517836      305.12704     -0.0019792776   0.0078382004 
   1150000   2.8696791      106.35305      109.22273      310.2543      -0.896663       0.0078382004 
   1160000  -23.43118       112.93215      89.500972      329.44693      0.23580755     0.0078382004 
   1170000  -21.944751      111.95803      90.013275      326.6052      -0.0140935      0.0078382004 
   1180000  -23.634216      98.619604      74.985388      287.6942      -0.89238198     0.0078382004 
   1190000  -11.268299      87.05973       75.791432      253.97161     -0.070358541    0.0078382004 
   1200000  -3.3172204      91.002529      87.685308      265.47359     -0.39527824     0.0078382004 
   1210000  -9.4944603      99.797378      90.302918      291.13002     -0.70087021     0.0078382004 
   1220000   0.061720982    88.512418      88.574139      258.20941      1.5218614      0.0078382004 
   1230000  -8.3456534      108.24473      99.899072      315.77271      0.24726417     0.0078382004 
   1240000  -20.874859      108.13624      87.261378      315.45623      0.4830206      0.0078382004 
   1250000  -7.4671874      100.56141      93.094224      293.35887     -0.30421416     0.0078382004 
   1260000  -2.7772338      101.30357      98.526332      295.52389     -0.56780018     0.0078382004 
   1270000  -4.1543628      107.57004      103.41568      313.80451      0.48766687     0.0078382004 
   1280000  -4.4305967      102.92818      98.497587      300.26324      1.0742681      0.0078382004 
   1290000   4.7022873      106.2998       111.00209      310.09895     -1.5747701      0.0078382004 
   1300000   1.5285429      103.90661      105.43516      303.11753     -1.4986087      0.0078382004 
   1310000   16.362439      105.34952      121.71196      307.3268      -1.0625154      0.0078382004 
   1320000   17.5247        110.1004       127.6251       321.18612     -0.29605943     0.0078382004 
   1330000   0.22780827     101.18519      101.413        295.17857     -0.59916575     0.0078382004 
   1340000   4.3780711      99.788137      104.16621      291.10306      0.071745146    0.0078382004 
   1350000   6.4102766      96.099078      102.50935      280.3413       0.080929704    0.0078382004 
   1360000   2.8312871      104.02627      106.85756      303.4666       0.16708359     0.0078382004 
   1370000   3.3762985      115.29238      118.66868      336.33222     -0.029384188    0.0078382004 
   1380000  -6.9663187      108.86561      101.89929      317.58396     -0.33717236     0.0078382004 
   1390000  -0.5570241      112.01495      111.45792      326.77125      0.54972462     0.0078382004 
   1400000  -6.3381964      113.20076      106.86257      330.23052     -0.34627114     0.0078382004 
   1410000   4.1583266      88.61998       92.778307      258.52319      0.6499758      0.0078382004 
   1420000  -4.9594366      102.22209      97.262656      298.20342      1.1565146      0.0078382004 
   1430000  -4.6335236      119.86532      115.2318       349.67244      0.89166576     0.0078382004 
   1440000   10.971915      106.62182      117.59373      311.03835     -1.0317652      0.0078382004 
   1450000  -3.5148209      97.888735      94.373914      285.5621       0.91087323     0.0078382004 
   1460000  -17.606522      86.285888      68.679365      251.71415     -1.4008064      0.0078382004 
   1470000  -18.185608      99.802438      81.61683       291.14478     -0.21339961     0.0078382004 
   1480000  -1.179146       96.218551      95.039405      280.68983     -1.3749922      0.0078382004 
   1490000  -2.7555299      94.492668      91.737138      275.65506     -0.65079169     0.0078382004 
   1500000  -21.028158      114.13786      93.109698      332.96422     -1.0744317      0.0078382004 
   1510000   5.6994971      105.39336      111.09286      307.45469     -0.51713836     0.0078382004 
   1520000  -8.5219419      100.0994       91.577459      292.01108      1.0971607      0.0078382004 
   1530000  -3.7433902      95.111015      91.367625      277.45891     -1.1806887      0.0078382004 
   1540000   1.7680133      92.852554      94.620568      270.8705       2.0401091      0.0078382004 
   1550000  -3.2106215      105.15335      101.94273      306.75451      0.93961543     0.0078382004 
   1560000   3.0499595      95.957105      99.007065      279.92713     -1.1165952      0.0078382004 
   1570000  -7.5200641      96.644206      89.124142      281.93155     -0.86809932     0.0078382004 
   1580000   0.74593263     113.95895      114.70488      332.44231     -0.031556674    0.0078382004 
   1590000  -11.740505      102.09294      90.352437      297.82666     -0.96755419     0.0078382004 
   1600000  -14.896825      94.228797      79.331972      274.88529      1.4924877      0.0078382004 
   1610000  -3.9775805      107.2324       103.25482      312.81955     -0.10715835     0.0078382004 
   1620000  -18.702806      91.072864      72.370058      265.67877      0.16209822     0.0078382004 
   1630000  -2.2819121      95.902393      93.620481      279.76753     -0.18014343     0.0078382004 
   1640000   0.24048142     106.41959      106.66007      310.44841      0.68019879     0.0078382004 
   1650000   12.38572       102.6851       115.07082      299.5541       0.48537275     0.0078382004 
   1660000  -4.9690544      101.84077      96.871719      297.09104     -0.099986329    0.0078382004 
   1670000   2.8370495      115.44719      118.28424      336.78382      0.97467571     0.0078382004 
   1680000   10.803266      86.472594      97.27586       252.25881      0.44892504     0.0078382004 
   1690000   6.9722179      104.78538      111.7576       305.68109     -0.95350113     0.0078382004 
   1700000  -7.7522791      102.84388      95.091605      300.01732      1.1258926      0.0078382004 
   1710000   2.1546929      106.48556      108.64025      310.64084      1.306825       0.0078382004 
   1720000   13.051745      109.91611      122.96786      320.6485       0.25756246     0.0078382004 
   1730000  -8.8929277      103.9992       95.106273      303.38762     -0.027691752    0.0078382004 
   1740000   0.39871197     91.362709      91.761421      266.52431      0.23812508     0.0078382004 
   1750000   24.258577      102.08898      126.34756      297.81512     -1.8156856      0.0078382004 
   1760000  -3.974367       116.66535      112.69099      340.33746     -0.11473295     0.0078382004 
   1770000   8.0100866      88.443909      96.453995      258.00955     -0.22340695     0.0078382004 
   1780000   17.548964      114.96069      132.50965      335.3646      -0.79887551     0.0078382004 
   1790000   8.6850848      112.43786      121.12294      328.00497      1.1102013      0.0078382004 
   1800000  -9.7402002      93.540761      83.80056       272.87815      0.33135519     0.0078382004 
   1810000   1.8713891      104.59878      106.47017      305.13673      0.14962848     0.0078382004 
   1820000   3.269871       99.033354      102.30322      288.9012      -1.4479951      0.0078382004 
   1830000  -7.5302089      107.41161      99.881402      313.34235      0.88736193     0.0078382004 
   1840000   7.3789992      100.3348       107.7138       292.6978      -0.18241687     0.0078382004 
   1850000  -3.6109705      89.45643       85.845459      260.96329     -0.786067       0.0078382004 
   1860000  -22.016678      96.04978       74.033102      280.19748      0.77954002     0.0078382004 
   1870000  -13.831429      104.61794      90.786511      305.19262      1.4580893      0.0078382004 
   1880000  -10.721771      100.49003      89.768259      293.15063      1.4193499      0.0078382004 
   1890000  -17.01365       104.90216      87.888505      306.02173      0.6778662      0.0078382004 
   1900000   3.0399571      101.51578      104.55574      296.14297     -1.3194626      0.0078382004 
   1910000   12.232669      94.922998      107.15567      276.91042     -0.58035315     0.0078382004 
   1920000   5.0100835      128.33633      133.34641      374.38416      1.0141586      0.0078382004 
   1930000   23.466196      103.37617      126.84237      301.57011      0.16810718     0.0078382004 
   1940000  -0.9710515      111.86506      110.894        326.33398      0.49755949     0.0078382004 
   1950000   20.539976      122.16788      142.70786      356.3895      -0.54022607     0.0078382004 
   1960000   13.647773      104.66123      118.30901      305.31891     -0.35734999     0.0078382004 
   1970000   7.4309856      96.646605      104.07759      281.93855      0.65052914     0.0078382004 
   1980000   14.058816      111.74603      125.80485      325.98677     -0.010490605    0.0078382004 
   1990000  -3.0021927      98.173365      95.171173      286.39243      1.068945       0.0078382004 
   2000000   3.9376133      105.10468      109.04229      306.61253     -1.0393605      0.0078382004 
   2010000  -2.9653392      103.14398      100.17864      300.89276      0.95179699     0.0078382004 
   2020000   3.7772277      105.5721       109.34933      307.97611     -0.011801355    0.0078382004 
   2030000   7.3048146      91.524816      98.82963       266.99721      1.0866766      0.0078382004 
   2040000  -3.4567729      103.55304      100.09627      302.08609      0.069513767    0.0078382004 
   2050000  -3.4588482      99.588328      96.12948       290.52018     -0.39656764     0.0078382004 
   2060000   5.6491929      103.24036      108.88955      301.17392      0.66451421     0.0078382004 
   2070000   15.014966      101.42184      116.43681      295.86892      0.26766798     0.0078382004 
   2080000   14.862597      95.753103      110.6157       279.33201      0.179422       0.0078382004 
   2090000   8.4219052      108.26785      116.68975      315.84016     -0.6282999      0.0078382004 
   2100000   8.7671371      114.37601      123.14315      333.65898      0.3382958      0.0078382004 
   2110000   2.8945632      96.764204      99.658768      282.28161      0.80816153     0.0078382004 
   2120000   3.620938       101.74648      105.36741      296.81595     -0.42168002     0.0078382004 
   2130000  -4.720792       97.649131      92.928339      284.86313     -0.088527221    0.0078382004 
   2140000   2.2330711      95.116158      97.349229      277.47391      0.64249928     0.0078382004 
   2150000   6.0919417      109.37257      115.46451      319.06286      1.2410148      0.0078382004 
   2160000   11.828242      114.38275      126.211        333.67864      0.44717519     0.0078382004 
   2170000   2.5697166      86.338052      88.907768      251.86632     -0.26844407     0.0078382004 
   2180000  -2.1724089      93.799431      91.627022      273.63274      0.064660869    0.0078382004 
   2190000   7.9286031      96.047528      103.97613      280.19092      0.084988887    0.0078382004 
   2200000  -2.4201365      101.75315      99.333017      296.83543     -2.1787408      0.0078382004 
   2210000   9.0348107      107.84926      116.88407      314.61906      0.20291155     0.0078382004 
   2220000   5.9796227      100.5714       106.55102      293.38801      0.12839914     0.0078382004 
   2230000   1.6547682      104.42607      106.08084      304.63288     -0.72708507     0.0078382004 
   2240000   5.5470445      102.18649      107.73353      298.09955     -0.20974179     0.0078382004 
   2250000  -1.8791658      84.819161      82.939995      247.4354       0.01013063     0.0078382004 
   2260000   16.583417      106.71668      123.3001       311.31509      0.40161475     0.0078382004 
   2270000   13.572196      98.038793      111.61099      285.99986      1.5005096      0.0078382004 
   2280000   4.8930886      97.670307      102.5634       284.9249       1.0863702      0.0078382004 
   2290000  -6.2994016      99.452395      93.152993      290.12363     -0.44821538     0.0078382004 
   2300000  -6.6933986      89.591586      82.898187      261.35757      0.19186639     0.0078382004 
   2310000  -7.386232       93.341093      85.954861      272.29567     -0.47488359     0.0078382004 
   2320000  -8.2337109      104.72427      96.490563      305.50282     -0.3303677      0.0078382004 
   2330000   2.2647919      98.727332      100.99212      288.00847     -0.6026927      0.0078382004 
   2340000  -0.61941045     92.81076       92.191349      270.74858     -0.10267901     0.0078382004 
   2350000  -5.7084188      104.45874      98.75032       304.72819     -0.063491048    0.0078382004 
   2360000  -2.9862778      90.211141      87.224863      263.16494     -1.7642015      0.0078382004 
   2370000   4.7948825      108.19929      112.99417      315.64016     -0.59045616     0.0078382004 
   2380000   0.42923523     99.799756      100.22899      291.13696      1.1851249      0.0078382004 
   2390000  -3.2871671      110.44655      107.15938      322.19589     -0.54335643     0.0078382004 
   2400000   8.9365571      98.722025      107.65858      287.99299      0.11612982     0.0078382004 
   2410000  -2.0463083      107.19423      105.14792      312.7082      -0.091437505    0.0078382004 
   2420000  -0.75694127     110.12373      109.36678      321.25416     -0.17411137     0.0078382004 
   2430000   13.570812      102.4517       116.02251      298.87324     -0.15262996     0.0078382004 
   2440000   3.0285418      93.363284      96.391826      272.36041      1.242134       0.0078382004 
   2450000   2.6795485      106.8749       109.55445      311.77664     -0.17964836     0.0078382004 
   2460000   5.2480567      105.38254      110.6306       307.42312      0.30659414     0.0078382004 
   2470000   7.3707619      88.383816      95.754578      257.83425     -0.17453331     0.0078382004 
   2480000  -0.22850221     91.49211       91.263608      266.9018       0.55873865     0.0078382004 
   2490000  -12.441723      120.28615      107.84443      350.90009      0.0024625043   0.0078382004 
   2500000   6.2977592      95.565337      101.8631       278.78426     -0.15523998     0.0078382004 
   2510000  -17.12243       104.34026      87.217834      304.38258      1.1335674      0.0078382004 
   2520000   7.9578459      93.098685      101.05653      271.58852      0.64506114     0.0078382004 
   2530000  -4.8151767      103.70514      98.889966      302.52979     -0.68347682     0.0078382004 
   2540000  -6.1757103      84.094911      77.9192        245.32261     -0.63541639     0.0078382004 
   2550000   10.078432      89.814208      99.89264       262.007       -0.33508732     0.0078382004 
   2560000   20.838973      91.612353      112.45133      267.25257     -0.59487424     0.0078382004 
   2570000   17.580005      92.908135      110.48814      271.03264     -0.30922978     0.0078382004 
   2580000   2.4703764      96.204151      98.674528      280.64782     -1.3779156      0.0078382004 
   2590000   12.419064      114.22935      126.64841      333.23113      0.029988729    0.0078382004 
   2600000   11.841621      100.51072      112.35234      293.21098     -0.33607669     0.0078382004 
   2610000   23.198979      94.531921      117.7309       275.76957     -0.73662627     0.0078382004 
   2620000   2.4749303      108.61828      111.09321      316.86244      1.1526295      0.0078382004 
   2630000  -0.02711164     102.87731      102.8502       300.11483     -1.0933137      0.0078382004 
   2640000  -2.4122029      103.23771      100.8255       301.16618      0.97021178     0.0078382004 
   2650000   7.2455388      118.20276      125.4483       344.82241      1.2983835      0.0078382004 
   2660000   5.8117022      98.018658      103.83036      285.94112     -0.071209526    0.0078382004 
   2670000   1.3860492      105.47643      106.86248      307.697        1.226528       0.0078382004 
   2680000   4.2320742      108.0583       112.29038      315.22888      0.5532322      0.0078382004 
   2690000   14.506738      103.67534      118.18208      302.44285      0.59508862     0.0078382004 
   2700000   22.821351      98.683734      121.50508      287.88128     -0.28701834     0.0078382004 
   2710000   6.3667829      115.5082       121.87498      336.96181     -0.1259906      0.0078382004 
   2720000  -0.46648286     102.56153      102.09505      299.19365      0.14705782     0.0078382004 
   2730000   1.7696436      106.08149      107.85113      309.46209      0.25255606     0.0078382004 
   2740000   10.223891      110.62381      120.8477       322.713       -0.45292639     0.0078382004 
   2750000   5.6855059      108.61088      114.29639      316.84086     -0.074725084    0.0078382004 
   2760000  -0.13445942     113.71026      113.5758       331.71684      0.24827237     0.0078382004 
   2770000   1.3293606      103.14624      104.4756       300.89935      0.00086610965  0.0078382004 
   2780000   4.64356        103.66553      108.30909      302.41424      1.6736699      0.0078382004 
   2790000   6.2080786      89.818421      96.0265        262.01929     -0.75065803     0.0078382004 
   2800000   20.967155      105.15044      126.11759      306.74602      0.21603881     0.0078382004 
   2810000  -6.6934503      99.041585      92.348135      288.92521      0.14576093     0.0078382004 
   2820000  -7.2832909      100.07844      92.795147      291.94993     -0.95804109     0.0078382004 
   2830000  -8.0784721      95.296849      87.218377      278.00103      1.4267756      0.0078382004 
   2840000   1.2291469      91.217247      92.446394      266.09997     -0.26597789     0.0078382004 
   2850000   10.630509      104.34259      114.9731       304.38935     -0.11766204     0.0078382004 
   2860000   15.679932      87.619565      103.2995       255.60477     -1.6341836      0.0078382004 
   2870000   7.7919996      93.569232      101.36123      272.9612       0.20428184     0.0078382004 
   2880000  -0.56979573     104.38442      103.81462      304.51138      0.16773595     0.0078382004 
   2890000  -7.4963312      88.927191      81.43086       259.41939     -0.47737854     0.0078382004 
   2900000  -1.9287771      98.779804      96.851027      288.16154     -0.35510832     0.0078382004 
   2910000   18.315173      90.297132      108.61231      263.4158      -0.90803269     0.0078382004 
   2920000   12.709898      108.89378      121.60368      317.66614      0.075499625    0.0078382004 
   2930000   9.8517583      101.1018       110.95356      294.9353       0.24957986     0.0078382004 
   2940000   10.905654      110.51217      121.41782      322.38732      0.54723459     0.0078382004 
   2950000  -4.1193181      101.44127      97.32195       295.92559      0.0048757592   0.0078382004 
   2960000   2.6211732      100.77846      103.39963      293.99204      1.3181598      0.0078382004 
   2970000  -11.157489      95.911166      84.753677      279.79312     -0.03421315     0.0078382004 
   2980000  -5.2839185      94.874299      89.590381      276.76836      0.50383242     0.0078382004 
   2990000  -9.1759894      110.50939      101.3334       322.37921     -1.2891297      0.0078382004 
   3000000  -10.935168      92.285261      81.350093      269.21559     -0.45920649     0.0078382004 
   3010000   4.4480797      115.35185      119.79993      336.50569      1.2994349      0.0078382004 
   3020000  -2.567585       95.163005      92.59542       277.61057     -0.064213672    0.0078382004 
   3030000  -4.3654622      108.27389      103.90843      315.85779     -0.17848389     0.0078382004 
   3040000   4.8193701      99.466901      104.28627      290.16595      1.6938705      0.0078382004 
   3050000   17.58035       101.22255      118.8029       295.28754      0.13365044     0.0078382004 
   3060000   21.410702      94.172289      115.58299      274.72045     -1.1282009      0.0078382004 
   3070000   12.034677      106.28786      118.32253      310.06412      0.089730768    0.0078382004 
   3080000   7.4265695      100.99331      108.41988      294.61879      0.1129719      0.0078382004 
   3090000  -1.2749847      106.54601      105.27103      310.81721     -0.41812423     0.0078382004 
   3100000  -6.584568       111.53409      104.94952      325.36849     -0.35791503     0.0078382004 
   3110000   4.6955034      110.38619      115.0817       322.01983      0.34804709     0.0078382004 
   3120000   1.59548        95.392606      96.988086      278.28037     -1.036146       0.0078382004 
   3130000  -9.3799782      111.78852      102.40854      326.1107      -1.8831124      0.0078382004 
   3140000   9.3584019      86.754734      96.113136      253.08187     -1.0848221      0.0078382004 
   3150000   2.3321311      95.414527      97.746659      278.34432      0.22296637     0.0078382004 
   3160000  -9.2037046      95.73441       86.530705      279.27748     -0.41246994     0.0078382004 
   3170000   22.528293      80.465999      102.99429      234.73631      0.72872122     0.0078382004 
   3180000   12.930726      98.736392      111.66712      288.0349      -0.070190046    0.0078382004 
   3190000   20.464499      101.62302      122.08752      296.45581      0.78094117     0.0078382004 
   3200000   2.3739639      97.511374      99.885338      284.46126      0.69190259     0.0078382004 
   3210000   18.788749      95.153294      113.94204      277.58225     -0.79893329     0.0078382004 
   3220000   10.825543      100.95048      111.77603      294.49387     -0.53380562     0.0078382004 
   3230000   1.3891116      96.440008      97.829119      281.33586      1.0515517      0.0078382004 
   3240000   6.7599577      91.879203      98.63916       268.03103     -0.056153661    0.0078382004 
   3250000  -0.60710949     114.83252      114.22541      334.9907       0.92540305     0.0078382004 
   3260000   1.8678519      100.26017      102.12802      292.48007     -0.45964018     0.0078382004 
   3270000   1.3317266      100.15856      101.49029      292.18366      1.0722304      0.0078382004 
   3280000   13.866195      96.195979      110.06217      280.62398      1.2638562      0.0078382004 
   3290000   5.3025022      104.9757       110.2782       306.23627     -0.3900971      0.0078382004 
   3300000   7.3614247      105.99909      113.36051      309.22172     -0.14783933     0.0078382004 
   3310000  -3.197334       111.97783      108.7805       326.66298      0.89194067     0.0078382004 
   3320000   14.432991      105.28797      119.72096      307.14722     -0.54609818     0.0078382004 
   3330000   13.808394      96.23991       110.0483       280.75213     -0.29063972     0.0078382004 
   3340000  -16.720492      98.382631      81.662139      287.0029      -0.31350344     0.0078382004 
   3350000   3.8320514      100.72242      104.55447      293.82856      0.95110366     0.0078382004 
   3360000   14.066218      98.264233      112.33045      286.65751      1.8049481      0.0078382004 
   3370000  -8.6474391      94.063531      85.416092      274.40318     -0.71434177     0.0078382004 
   3380000   8.762808       98.850614      107.61342      288.36811     -0.67501532     0.0078382004 
   3390000  -3.6992139      101.89282      98.193611      297.24288     -0.42179799     0.0078382004 
   3400000   12.470666      101.55401      114.02467      296.25448     -0.86524144     0.0078382004 
   3410000   12.944477      100.75683      113.70131      293.92894     -0.18281339     0.0078382004 
   3420000   7.7520533      108.32179      116.07384      315.99751      0.032336821    0.0078382004 
   3430000   13.360844      111.30106      124.66191      324.68869      0.86217757     0.0078382004 
   3440000   10.808834      105.64146      116.45029      308.17844     -0.2887947      0.0078382004 
   3450000   1.4170191      107.26926      108.68628      312.92707      0.36961522     0.0078382004 
   3460000   10.108359      105.68479      115.79315      308.30486     -0.58786866     0.0078382004 
   3470000   5.8974758      95.652643      101.55012      279.03895     -0.17998209     0.0078382004 
   3480000  -7.2952107      96.118199      88.822988      280.39708      0.36024143     0.0078382004 
   3490000  -9.3101064      105.50473      96.194623      307.77957      0.26299112     0.0078382004 
   3500000   6.5832179      102.4089       108.99212      298.74838      1.0966201      0.0078382004 
   3510000  -6.645646       102.03402      95.388369      297.65476     -1.6734257      0.0078382004 
   3520000   12.36541       91.498895      103.8643       266.92159     -0.52366806     0.0078382004 
   3530000  -11.24252       105.59488      94.352357      308.04255      1.0480408      0.0078382004 
   3540000   8.7775358      99.387667      108.1652       289.93481     -0.3706253      0.0078382004 
   3550000   6.2609459      118.47658      124.73752      345.62118     -0.81195119     0.0078382004 
   3560000   9.1494934      92.864973      102.01447      270.90673      0.037833627    0.0078382004 
   3570000   9.0964872      115.36572      124.46221      336.54616     -0.26781268     0.0078382004 
   3580000  -2.8669055      103.17955      100.31264      300.99652      0.85168753     0.0078382004 
   3590000   3.0482987      103.6352       106.6835       302.32576     -0.58990604     0.0078382004 
   3600000  -10.959297      104.25164      93.292338      304.12403      1.3460406      0.0078382004 
   3610000  -2.4940732      102.68351      100.18944      299.54948     -0.092088672    0.0078382004 
   3620000   2.1702157      103.22476      105.39498      301.12842     -0.89870648     0.0078382004 
   3630000   5.3897706      103.20288      108.59265      301.06459      0.95448805     0.0078382004 
   3640000  -1.8900418      104.31976      102.42972      304.32278     -1.1008744      0.0078382004 
   3650000   2.9015738      100.84709      103.74866      294.19224      0.32343901     0.0078382004 
   3660000   7.4100883      93.306657      100.71674      272.19521     -0.49720025     0.0078382004 
   3670000   6.0302568      113.75486      119.78512      331.84694     -0.71406452     0.0078382004 
   3680000  -4.9585618      94.947613      89.989051      276.98223     -1.7326888      0.0078382004 
   3690000  -20.819912      106.50332      85.683412      310.69268      0.96198471     0.0078382004 
   3700000   7.6631024      115.47846      123.14156      336.87505      0.18078158     0.0078382004 
   3710000  -7.0612547      116.44138      109.38013      339.68409      0.11864027     0.0078382004 
   3720000  -3.7541883      103.51233      99.758146      301.96733     -0.88065405     0.0078382004 
   3730000  -18.49194       101.4155       82.923559      295.85042      0.10796248     0.0078382004 
   3740000  -2.8110128      97.044952      94.233939      283.10061     -1.7405967      0.0078382004 
   3750000   14.05567       116.2024       130.25807      338.98694      0.29845889     0.0078382004 
   3760000  -3.7670928      97.969031      94.201938      285.79634      0.50646423     0.0078382004 
   3770000  -8.1996461      96.472638      88.272992      281.43105     -0.18429837     0.0078382004 
   3780000  -14.640345      111.57378      96.933437      325.48428     -0.002095213    0.0078382004 
   3790000  -13.52901       92.481976      78.952966      269.78945      0.49865626     0.0078382004 
   3800000   11.729441      111.01165      122.74109      323.8444      -0.16928069     0.0078382004 
   3810000   15.119811      94.692003      109.81181      276.23656     -0.36183901     0.0078382004 
   3820000   3.8097024      116.21803      120.02773      339.03252     -0.44201042     0.0078382004 
   3830000   8.9689966      105.87383      114.84282      308.8563      -0.21314218     0.0078382004 
   3840000  -7.9308436      104.60303      96.672183      305.14911     -0.14795759     0.0078382004 
   3850000   12.796893      112.63826      125.43515      328.58958      0.92933946     0.0078382004 
   3860000  -7.2835544      103.72224      96.438686      302.57967     -0.1450261      0.0078382004 
   3870000  -11.75628       96.278728      84.522448      280.86537     -0.22226031     0.0078382004 
   3880000  -4.7240628      92.108639      87.384576      268.70035     -0.90931727     0.0078382004 
   3890000  -7.349134       94.213913      86.864779      274.84187     -0.34246163     0.0078382004 
   3900000  -5.8694515      102.26854      96.399088      298.33892     -0.12876429     0.0078382004 
   3910000   4.7869442      106.39224      111.17919      310.36863      0.34975282     0.0078382004 
   3920000   1.4396443      103.85163      105.29128      302.95714      0.20117036     0.0078382004 
   3930000  -6.0136104      108.0645       102.05089      315.24697     -0.22738363     0.0078382004 
   3940000  -3.0049772      100.87821      97.873231      294.28303     -0.13110367     0.0078382004 
   3950000  -14.421486      100.8285       86.407017      294.13803      0.66133397     0.0078382004 
   3960000  -10.118384      100.97919      90.860801      294.5776       1.3974482      0.0078382004 
   3970000  -5.6374116      107.46529      101.82788      313.49895      0.74920457     0.0078382004 
   3980000   5.6837104      96.877211      102.56092      282.61127      1.4023596      0.0078382004 
   3990000   6.090978       98.831816      104.92279      288.31327      0.24833291     0.0078382004 
   4000000   7.3645585      108.11034      115.4749       315.3807       0.65995328     0.0078382004 
   4010000  -5.313545       99.419581      94.106036      290.0279       0.22740319     0.0078382004 
   4020000   4.1254727      117.53572      121.66119      342.87651      0.68248075     0.0078382004 
   4030000  -8.1730017      96.262846      88.089844      280.81904      1.148658       0.0078382004 
   4040000   16.152665      101.20551      117.35817      295.23782     -0.51279122     0.0078382004 
   4050000   5.3187531      101.3065       106.62525      295.53245     -0.56134024     0.0078382004 
   4060000  -0.42512066     97.970188      97.545068      285.79972      0.97679914     0.0078382004 
   4070000   2.7192224      107.11927      109.83849      312.48953     -0.64057212     0.0078382004 
   4080000  -3.7274671      90.21759       86.490123      263.18376      0.069595018    0.0078382004 
   4090000  -35.241848      107.07293      71.831077      312.35433      0.1850679      0.0078382004 
   4100000  -11.53141       105.35421      93.822802      307.34048     -0.75982598     0.0078382004 
   4110000  -18.054033      107.20194      89.147902      312.73068      0.53928135     0.0078382004 
   4120000   5.369405       99.991807      105.36121      291.69721     -0.015916091    0.0078382004 
   4130000  -6.4441606      103.69838      97.254222      302.51007      0.63769096     0.0078382004 
   4140000  -18.813331      122.10549      103.29215      356.20748      1.1178305      0.0078382004 
   4150000  -11.457952      110.75637      99.298421      323.09972     -0.174913       0.0078382004 
   4160000  -3.3270318      109.09552      105.76849      318.25466     -1.729347       0.0078382004 
   4170000  -2.0789589      97.435814      95.356855      284.24084      0.85858329     0.0078382004 
   4180000   0.49957735     97.411464      97.911042      284.16981     -0.99972983     0.0078382004 
   4190000   4.6206891      100.49687      105.11756      293.1706      -0.46851756     0.0078382004 
   4200000  -12.462501      105.46313      93.00063       307.65822      0.23220791     0.0078382004 
   4210000  -3.1288979      96.041191      92.912293      280.17243      1.3045838      0.0078382004 
   4220000   11.220727      109.27618      120.49691      318.78168      0.5252243      0.0078382004 
   4230000  -13.590277      102.78816      89.197881      299.85476      0.76727298     0.0078382004 
   4240000   4.7858154      116.75385      121.53966      340.59562      0.694806       0.0078382004 
   4250000   0.15672351     105.71905      105.87577      308.40478      0.91246636     0.0078382004 
   4260000  -8.6609747      99.773427      91.112452      291.06015     -0.5248553      0.0078382004 
   4270000  -15.510972      113.86122      98.350244      332.1572       0.79605233     0.0078382004 
   4280000  -0.10838442     82.536096      82.427712      240.77522      0.055786036    0.0078382004 
   4290000   5.3328588      88.204495      93.537354      257.31113      0.23037226     0.0078382004 
   4300000  -6.1794631      100.13207      93.952603      292.10638      0.61882925     0.0078382004 
   4310000   1.2775707      93.34777       94.625341      272.31515     -0.95216819     0.0078382004 
   4320000   7.7815172      88.258648      96.040165      257.46911      0.23364449     0.0078382004 
   4330000  -0.93490341     101.52273      100.58783      296.16323      0.29613303     0.0078382004 
   4340000   0.16820255     104.1968       104.365        303.96407     -0.10773608     0.0078382004 
   4350000  -1.1914862      94.637251      93.445765      276.07684     -0.039015843    0.0078382004 
   4360000   2.5503308      98.701813      101.25214      287.93403     -0.3596248      0.0078382004 
   4370000  -13.994437      87.062449      73.068012      253.97954     -0.17431787     0.0078382004 
   4380000  -17.521935      104.44565      86.923714      304.69001      0.95191096     0.0078382004 
   4390000  -13.013314      94.225258      81.211944      274.87497     -1.0101832      0.0078382004 
   4400000  -7.0648324      105.92759      98.862759      309.01315     -0.41920561     0.0078382004 
   4410000  -5.7021321      108.53554      102.83341      316.62109      0.70382676     0.0078382004 
   4420000  -11.467712      104.11788      92.650172      303.73385      0.44225334     0.0078382004 
   4430000  -11.371548      106.3885       95.016949      310.35771      1.5674101      0.0078382004 
   4440000  -6.6329226      98.26959       91.636667      286.67314      0.2092006      0.0078382004 
   4450000  -24.551409      105.83538      81.283972      308.74415     -0.6921919      0.0078382004 
   4460000  -12.025791      101.35652      89.330732      295.67837      0.66747622     0.0078382004 
   4470000  -9.0372421      115.75442      106.71718      337.68008     -0.74614978     0.0078382004 
   4480000  -7.6852237      114.5879       106.90268      334.27711     -0.10131458     0.0078382004 
   4490000  -9.7767847      93.589594      83.81281       273.0206       0.19738418     0.0078382004 
   4500000  -19.544492      106.14398      86.599487      309.6444       0.90288407     0.0078382004 
   4510000  -2.3921974      105.11594      102.72374      306.64538     -0.11513602     0.0078382004 
   4520000  -6.7284421      97.6568        90.928358      284.8855      -0.076431589    0.0078382004 
   4530000   0.46319779     112.31856      112.78175      327.65694      0.79786156     0.0078382004 
   4540000  -10.529365      112.15373      101.62436      327.17611      1.1283397      0.0078382004 
   4550000  -6.3118259      87.965439      81.653613      256.61376      0.51683627     0.0078382004 
   4560000  -2.9498108      102.90863      99.958814      300.20618     -0.17533592     0.0078382004 
   4570000   0.24653069     93.545651      93.792181      272.89241     -0.78562942     0.0078382004 
   4580000   7.0376462      99.945444      106.98309      291.56196     -0.33740555     0.0078382004 
   4590000   5.3446073      109.57132      114.91593      319.64268     -0.93511676     0.0078382004 
   4600000  -9.3545878      108.46175      99.10716       316.40581     -0.81200039     0.0078382004 
   4610000   7.5041503      100.88862      108.39277      294.31339     -0.54892667     0.0078382004 
   4620000  -10.950898      104.73172      93.780819      305.52453     -1.39578        0.0078382004 
   4630000  -3.0989269      118.83418      115.73525      346.66438      0.64296549     0.0078382004 
   4640000  -3.0592899      110.71554      107.65625      322.98062      0.19250462     0.0078382004 
   4650000  -15.985125      107.69015      91.705023      314.1549       0.80146077     0.0078382004 
   4660000  -13.831702      96.053838      82.222136      280.20932      0.42829548     0.0078382004 
   4670000   1.470125       111.58033      113.05045      325.50336      0.24457228     0.0078382004 
   4680000  -20.765249      101.15591      80.390663      295.09315     -0.30894155     0.0078382004 
   4690000   2.4254695      98.973257      101.39873      288.72588     -0.76670481     0.0078382004 
   4700000  -14.24915       117.43215      103.183        342.57437      0.53872437     0.0078382004 
   4710000   10.542581      102.58779      113.13037      299.27023      0.7151575      0.0078382004 
   4720000   17.815499      95.951836      113.76734      279.91176     -1.8104009      0.0078382004 
   4730000   0.62178082     93.84567       94.46745       273.76763     -0.84669474     0.0078382004 
   4740000  -8.1344973      91.963208      83.82871       268.27609     -1.1753016      0.0078382004 
   4750000   1.4831178      97.184988      98.668105      283.50912     -1.703943       0.0078382004 
   4760000  -18.155266      114.28386      96.128595      333.39015      0.34191322     0.0078382004 
   4770000  -6.8095205      98.159322      91.349802      286.35146      0.20599223     0.0078382004 
   4780000  -7.0434127      95.414009      88.370596      278.34281     -0.043903617    0.0078382004 
   4790000   17.485923      78.689143      96.175066      229.55284     -0.72654735     0.0078382004 
   4800000   3.1112102      97.748803      100.86001      285.15389     -0.30977722     0.0078382004 
   4810000   4.2985487      109.72236      114.0209       320.08327     -0.93003746     0.0078382004 
   4820000   17.893896      89.972106      107.866        262.46763      1.0316365      0.0078382004 
   4830000  -0.8385759      100.73083      99.892258      293.85311      0.66740054     0.0078382004 
   4840000   5.335846       108.75727      114.09312      317.26792     -0.83402799     0.0078382004 
   4850000  -2.3543722      97.137118      94.782746      283.36948      0.6710014      0.0078382004 
   4860000   4.6044033      97.685343      102.28975      284.96877     -0.69228232     0.0078382004 
   4870000  -6.7240515      112.01065      105.2866       326.75871     -0.24802272     0.0078382004 
   4880000  -1.5079227      92.748354      91.240432      270.56653     -0.56138655     0.0078382004 
   4890000   0.21783276     112.12998      112.34782      327.10683     -0.12310223     0.0078382004 
   4900000  -4.9992765      111.08352      106.08424      324.05406      1.0445411      0.0078382004 
   4910000  -0.084713324    110.15041      110.06569      321.33199     -0.36568036     0.0078382004 
   4920000  -10.977809      101.23915      90.261343      295.33598      0.54990365     0.0078382004 
   4930000  -1.2731509      95.649222      94.376071      279.02897     -0.1532483      0.0078382004 
   4940000  -3.7327027      83.296682      79.563979      242.99401      0.096647074    0.0078382004 
   4950000   6.4971684      103.75078      110.24795      302.66293      0.78438476     0.0078382004 
   4960000   20.386674      108.5014       128.88808      316.5215       1.0857959      0.0078382004 
   4970000   6.0023579      110.76513      116.76749      323.12527      0.84356281     0.0078382004 
   4980000  -10.899304      106.79718      95.897876      311.54992      0.64520559     0.0078382004 
   4990000  -5.6267301      100.14946      94.52273       292.15712     -0.21446873     0.0078382004 
   5000000  -1.0242996      113.54747      112.52317      331.24194      0.45229219     0.0078382004 
Loop time of 305.866 on 4 procs for 5000000 steps with 116 atoms

Performance: 14123.855 ns/day, 0.002 hours/ns, 16347.054 timesteps/s, 1.896 Matom-step/s
99.6% CPU use with 4 MPI tasks x 1 OpenMP threads

MPI task timing breakdown:
Section |  min time  |  avg time  |  max time  |%varavg| %total
---------------------------------------------------------------
Pair    | 30.961     | 89.029     | 191.78     | 682.3 | 29.11
Bond    | 5.7976     | 9.8747     | 16.148     | 131.1 |  3.23
Neigh   | 0.30914    | 0.31335    | 0.31676    |   0.5 |  0.10
Comm    | 87.972     | 199.53     | 263.26     | 495.5 | 65.24
Output  | 0.03698    | 0.053572   | 0.10242    |  12.2 |  0.02
Modify  | 3.4242     | 5.1246     | 7.8321     |  73.8 |  1.68
Other   |            | 1.938      |            |       |  0.63

Nlocal:             29 ave          75 max           9 min
Histogram: 2 1 0 0 0 0 0 0 0 1
Nghost:          55.25 ave          73 max          38 min
Histogram: 1 0 0 1 0 0 1 0 0 1
Neighs:         160.75 ave         577 max          20 min
Histogram: 3 0 0 0 0 0 0 0 0 1

Total # of neighbors = 643
Ave neighs/atom = 5.5431034
Ave special neighs/atom = 5.3793103
Neighbor list builds = 6281
Dangerous builds = 0

unfix favg
fix favg all ave/time 10000 10 100000 v_vpe v_vke v_vT v_vE v_vRg     file outputs/thermo_${tag}_production.dat
fix favg all ave/time 10000 10 100000 v_vpe v_vke v_vT v_vE v_vRg     file outputs/thermo_7LYJ_aso_n5_smallbox_production.dat

restart 10000000 outputs/backup_${tag}.*.restart
restart 10000000 outputs/backup_7LYJ_aso_n5_smallbox.*.restart
run 100000000
Generated 0 of 6 mixed pair_coeff terms from geometric mixing rule
Per MPI rank memory allocation (min/avg/max) = 8.556 | 8.756 | 8.824 Mbytes
   Step         PotEng         KinEng         TotEng          Temp          Press         Density    
   5000000  -1.0242996      113.54747      112.52317      331.24194      0.45229219     0.0078382004 
   5010000   12.005324      102.16088      114.1662       298.02485      1.1789876      0.0078382004 
   5020000   10.742109      109.39234      120.13445      319.12056      0.47754216     0.0078382004 
   5030000   12.551895      99.436178      111.98807      290.07632     -0.19041957     0.0078382004 
   5040000  -14.361663      117.59753      103.23587      343.05682      0.19584069     0.0078382004 
   5050000  -7.5709462      100.01293      92.441981      291.75882     -0.41940957     0.0078382004 
   5060000   7.5546881      97.51452       105.06921      284.47044      1.0885422      0.0078382004 
   5070000   4.4234659      98.294217      102.71768      286.74498      0.27841761     0.0078382004 
   5080000   12.434876      107.49202      119.9269       313.57692      0.5034582      0.0078382004 
   5090000  -6.2605058      97.919822      91.659317      285.65279      0.48678401     0.0078382004 
   5100000   0.14810627     108.02766      108.17577      315.1395       0.061023695    0.0078382004 
   5110000  -1.3769202      100.31042      98.933501      292.62668      1.5966007      0.0078382004 
   5120000  -1.9015743      111.66549      109.76391      325.7518       1.5948746      0.0078382004 
   5130000   10.956003      106.72628      117.68228      311.34308     -0.25688312     0.0078382004 
   5140000  -1.8314255      113.53528      111.70385      331.20637      0.38910439     0.0078382004 
   5150000  -6.290641       125.37352      119.08288      365.74104      1.9402806      0.0078382004 
   5160000  -4.5090122      114.20811      109.6991       333.16918      1.0745511      0.0078382004 
   5170000   12.294198      118.9381       131.2323       346.96755      0.9622667      0.0078382004 
   5180000   8.2975403      111.15644      119.45398      324.26681     -0.22667905     0.0078382004 
   5190000   7.1492845      96.410889      103.56017      281.25092      1.9140964      0.0078382004 
   5200000   6.7485933      101.38106      108.12966      295.74996      0.48587443     0.0078382004 
   5210000   2.6204264      104.6106       107.23103      305.1712       0.49975729     0.0078382004 
   5220000   7.6779393      83.259358      90.937298      242.88512     -0.35309911     0.0078382004 
   5230000  -15.481111      116.17771      100.6966       338.9149      -0.067417446    0.0078382004 
   5240000  -3.2480712      113.0174       109.76933      329.69563      0.94126194     0.0078382004 
   5250000  -19.618536      98.853895      79.235359      288.37768     -0.5439813      0.0078382004 
   5260000   1.2143727      109.25907      110.47344      318.73176     -0.60336428     0.0078382004 
   5270000  -8.5492823      93.031656      84.482374      271.39298      0.50991448     0.0078382004 
   5280000  -19.042391      109.85255      90.810161      320.46308     -0.23036972     0.0078382004 
   5290000  -4.5455524      92.908493      88.36294       271.03369      0.52913588     0.0078382004 
   5300000   2.415003       96.675096      99.090099      282.02166      1.0888796      0.0078382004 
   5310000   2.7418565      96.800796      99.542653      282.38836      0.26362914     0.0078382004 
   5320000  -3.3055615      109.15538      105.84982      318.4293      -0.029660115    0.0078382004 
   5330000  -8.5025652      101.92041      93.417848      297.32336      0.28895931     0.0078382004 
   5340000   19.957174      90.646841      110.60402      264.43597      1.774545       0.0078382004 
   5350000  -1.1247262      116.69829      115.57356      340.43355     -0.45825358     0.0078382004 
   5360000  -2.4195165      110.87233      108.45281      323.43799     -0.43339493     0.0078382004 
   5370000  -8.2344782      109.19905      100.96458      318.55669     -0.51094748     0.0078382004 
   5380000  -7.9226192      106.47561      98.552989      310.61183     -0.58198414     0.0078382004 
   5390000  -5.9363681      87.742436      81.806068      255.96321      0.069502624    0.0078382004 
   5400000  -12.564747      100.16051      87.595767      292.18936     -0.15455391     0.0078382004 
   5410000   5.2671267      101.11956      106.38668      294.98709      1.2283859      0.0078382004 
   5420000  -1.3013619      109.77033      108.46897      320.22323      0.75511421     0.0078382004 
   5430000  -2.7918684      111.78539      108.99352      326.10157     -0.031620953    0.0078382004 
   5440000  -13.898325      102.36437      88.466041      298.61846     -0.96607692     0.0078382004 
   5450000  -5.2775999      101.77156      96.493957      296.88912     -1.4933427      0.0078382004 
   5460000  -13.69914       87.241654      73.542513      254.50232     -0.58094199     0.0078382004 
   5470000  -11.550071      97.477866      85.927795      284.36351      0.59114444     0.0078382004 
   5480000  -5.5173016      101.38201      95.864705      295.75272     -1.2464819      0.0078382004 
   5490000  -4.2112472      102.29633      98.085083      298.41999      0.34723317     0.0078382004 
   5500000  -20.810286      96.533224      75.722938      281.60779     -0.99833348     0.0078382004 
   5510000  -3.8075823      104.74358      100.936        305.55914      1.4707711      0.0078382004 
   5520000  -14.071589      91.577424      77.505835      267.15068     -0.67703054     0.0078382004 
   5530000  -13.111389      105.29948      92.188096      307.18083     -1.093812       0.0078382004 
   5540000  -9.5384872      109.96384      100.42535      320.78774      0.32243788     0.0078382004 
   5550000  -7.3316418      104.23863      96.906984      304.08608      0.76450159     0.0078382004 
   5560000  -6.6387083      98.752158      92.11345       288.08089      0.53257807     0.0078382004 
   5570000  -34.154794      102.1916       68.036807      298.11447     -0.1210529      0.0078382004 
   5580000  -25.74108       101.75243      76.011346      296.83331      1.5833559      0.0078382004 
   5590000  -7.9389508      98.553479      90.614528      287.5013      -0.70693448     0.0078382004 
   5600000  -11.373718      108.2597       96.885977      315.81638     -0.10950555     0.0078382004 
   5610000  -11.620846      113.50732      101.88647      331.12481     -1.4380305      0.0078382004 
   5620000  -14.075254      87.983417      73.908162      256.6662      -0.61521895     0.0078382004 
   5630000  -11.172861      105.44015      94.267288      307.59117      1.1062544      0.0078382004 
   5640000  -13.305291      88.444316      75.139026      258.01074     -0.28473164     0.0078382004 
   5650000  -11.361377      95.967929      84.606552      279.95871      0.56359167     0.0078382004 
   5660000   8.8884856      105.42148      114.30997      307.53671      0.21318716     0.0078382004 
   5670000   11.44119       87.81168       99.252871      256.16521     -0.18776761     0.0078382004 
   5680000   1.5698764      117.34215      118.91203      342.31184      0.14354485     0.0078382004 
   5690000  -5.9426281      93.212084      87.269456      271.91933      0.16448848     0.0078382004 
   5700000  -8.59623        112.64299      104.04676      328.60339     -0.37318019     0.0078382004 
   5710000  -9.0672632      98.717582      89.650319      287.98003     -0.80283238     0.0078382004 
   5720000   4.9883702      95.144673      100.13304      277.5571      -0.053462617    0.0078382004 
   5730000   21.714858      108.28648      130.00134      315.89451      0.44118951     0.0078382004 
   5740000  -14.106883      111.82385      97.716968      326.21378     -1.0459778      0.0078382004 
   5750000  -2.3563729      93.992896      91.636523      274.19712     -1.1257515      0.0078382004 
   5760000  -11.501659      97.976611      86.474951      285.81846     -0.74682325     0.0078382004 
   5770000  -5.4880886      90.853742      85.365653      265.03955     -1.3090276      0.0078382004 
   5780000  -2.2651524      106.72773      104.46258      311.34732     -0.85942482     0.0078382004 
   5790000  -14.643746      109.06281      94.419062      318.15923      0.28858074     0.0078382004 
   5800000  -7.3893574      111.00639      103.61703      323.82907     -0.1319515      0.0078382004 
   5810000   3.8705009      104.17561      108.04611      303.90223     -0.95947451     0.0078382004 
   5820000  -12.584636      106.04004      93.455406      309.34119     -0.46473846     0.0078382004 
   5830000  -7.8265709      97.34287       89.516299      283.9697       0.38038922     0.0078382004 
   5840000  -26.200315      97.666334      71.466019      284.91331      0.86519122     0.0078382004 
   5850000  -18.132962      93.268305      75.135343      272.08334     -1.1244094      0.0078382004 
   5860000  -4.4985668      94.503996      90.005429      275.68811     -0.58832997     0.0078382004 
   5870000  -0.9696922      107.40541      106.43571      313.32424      0.48469955     0.0078382004 
   5880000  -19.942317      100.16321      80.220895      292.19723     -0.84456254     0.0078382004 
   5890000  -35.619074      107.80839      72.189316      314.49983     -0.81587425     0.0078382004 
   5900000  -6.8307913      89.689034      82.858242      261.64185     -0.35556037     0.0078382004 
   5910000  -21.720677      90.356399      68.635722      263.58869     -0.13327336     0.0078382004 
   5920000  -9.0162101      114.75286      105.73665      334.75832     -0.29682419     0.0078382004 
   5930000   2.1487343      83.929839      86.078574      244.84106      0.92240347     0.0078382004 
   5940000   7.0277954      113.75945      120.78725      331.86034     -0.073490305    0.0078382004 
   5950000  -21.012487      100.6701       79.657615      293.67594      1.3434186      0.0078382004 
   5960000  -11.995545      122.94499      110.94945      358.65649     -0.62476393     0.0078382004 
   5970000  -3.7027862      91.770287      88.067501      267.7133      -0.41347868     0.0078382004 
   5980000   8.1669514      106.6992       114.86615      311.2641      -0.94954538     0.0078382004 
   5990000   25.027589      102.90035      127.92794      300.18206      0.79811964     0.0078382004 
   6000000  -13.685373      100.10398      86.418603      292.02443     -0.074489369    0.0078382004 
   6010000  -1.6990538      97.691402      95.992348      284.98644     -1.1158842      0.0078382004 
   6020000  -6.3539314      107.23424      100.88031      312.82491      0.72117226     0.0078382004 
   6030000  -14.791786      96.587838      81.796052      281.76711      1.4604373      0.0078382004 
   6040000   0.046746995    95.627648      95.674395      278.96604     -0.68938805     0.0078382004 
   6050000   2.3777886      102.21176      104.58955      298.17327      0.63189152     0.0078382004 
   6060000  -19.542674      102.59923      83.056556      299.30361     -0.83595307     0.0078382004 
   6070000  -21.32128       100.10031      78.779029      292.01373     -0.57007263     0.0078382004 
   6080000   5.3028666      101.40484      106.70771      295.81934      0.33965799     0.0078382004 
   6090000  -19.077299      99.575734      80.498435      290.48344      0.60440522     0.0078382004 
   6100000  -7.5839035      102.45649      94.872586      298.88721      0.97078308     0.0078382004 
   6110000   0.37492088     97.805303      98.180224      285.31872      0.11447801     0.0078382004 
   6120000  -2.539595       100.35938      97.81978       292.76948     -0.097061578    0.0078382004 
   6130000   13.827132      110.02961      123.85674      320.97959     -0.16164287     0.0078382004 
   6140000  -5.7419545      93.488124      87.74617       272.72459     -1.9244641      0.0078382004 
   6150000   5.6114044      105.25676      110.86816      307.05618      0.37303264     0.0078382004 
   6160000  -2.6618         103.86899      101.20719      303.00777     -1.5734729      0.0078382004 
   6170000  -1.8476758      106.56227      104.7146       310.86465      1.5083499      0.0078382004 
   6180000  -13.807552      106.25583      92.448275      309.97068     -0.74882761     0.0078382004 
   6190000  -15.853398      107.77661      91.923212      314.40712      0.25547839     0.0078382004 
   6200000  -0.72034601     97.607323      96.886977      284.74117     -0.32692769     0.0078382004 
   6210000  -17.865573      117.21615      99.350578      341.94426      1.7518702      0.0078382004 
   6220000  -17.849852      101.20465      83.354794      295.23532      0.10252922     0.0078382004 
   6230000   1.5415937      106.0064       107.54799      309.24303     -0.8255234      0.0078382004 
   6240000  -3.4478761      104.69819      101.25032      305.42673     -0.20334397     0.0078382004 
   6250000  -17.321672      106.65099      89.329318      311.12345     -0.12539424     0.0078382004 
   6260000  -19.281539      100.07929      80.797751      291.95241     -0.86817513     0.0078382004 
   6270000  -26.073376      110.73428      84.660901      323.03526      1.7209099      0.0078382004 
   6280000  -8.4836296      107.2656       98.781971      312.9164       0.2417293      0.0078382004 
   6290000  -15.818984      93.770884      77.9519        273.54946     -0.41332099     0.0078382004 
   6300000   2.6889843      113.34282      116.0318       330.64493     -0.04150217     0.0078382004 
   6310000   11.150672      102.34981      113.50048      298.576        0.96517844     0.0078382004 
   6320000   7.6766148      95.989518      103.66613      280.02169      1.0173362      0.0078382004 
   6330000  -3.1088951      103.59754      100.48864      302.21589      0.063749116    0.0078382004 
   6340000   2.3236506      115.55434      117.87799      337.09641     -0.66707413     0.0078382004 
   6350000  -17.269781      105.75759      88.487809      308.51722      1.7531339      0.0078382004 
   6360000  -4.2398949      109.02988      104.78998      318.06316     -0.72795736     0.0078382004 
   6370000  -0.022982596    92.369104      92.346121      269.46018      0.45529699     0.0078382004 
   6380000  -0.99609427     107.32365      106.32755      313.08574     -0.11639234     0.0078382004 
   6390000  -7.8346552      102.8543       95.01965       300.04772     -2.0145434      0.0078382004 
   6400000  -11.825635      109.62449      97.798853      319.79777      0.086110376    0.0078382004 
   6410000   1.7639248      111.92997      113.69389      326.52334      0.31375562     0.0078382004 
   6420000  -8.2557095      108.71286      100.45715      317.13836      1.4547835      0.0078382004 
   6430000  -11.061095      110.84297      99.781871      323.35233     -0.16221022     0.0078382004 
   6440000  -9.3982051      109.58939      100.19119      319.6954       0.26150504     0.0078382004 
   6450000  -7.357483       107.85621      100.49873      314.63933      0.21195087     0.0078382004 
   6460000  -22.840596      101.52528      78.684686      296.17068     -0.59143755     0.0078382004 
   6470000   0.44286661     100.47204      100.9149       293.09814     -0.49774129     0.0078382004 
   6480000  -17.608058      104.02382      86.415757      303.45943      0.97135312     0.0078382004 
   6490000  -7.3249103      94.142086      86.817176      274.63234     -0.19140663     0.0078382004 
   6500000  -4.3583627      92.563124      88.204761      270.02617      0.13473058     0.0078382004 
   6510000   8.622467       102.1738       110.79627      298.06255      0.70672231     0.0078382004 
   6520000  -21.312855      108.30462      86.991762      315.94743      0.12376494     0.0078382004 
   6530000  -13.440288      86.058164      72.617876      251.04983      0.70899966     0.0078382004 
   6540000  -19.197642      114.09404      94.8964        332.83641      0.53165492     0.0078382004 
   6550000  -6.9567389      101.0029       94.046157      294.64677      0.04575881     0.0078382004 
   6560000  -15.194316      98.099626      82.905309      286.17732      0.65661944     0.0078382004 
   6570000  -5.3068612      104.07447      98.767604      303.60719      0.4363386      0.0078382004 
   6580000   8.6183938      118.91845      127.53685      346.91023     -1.124099       0.0078382004 
   6590000  -2.7924714      86.31832       83.525849      251.80876     -0.46844339     0.0078382004 
   6600000  -4.0413869      99.224155      95.182769      289.45781     -0.01529773     0.0078382004 
   6610000  -12.789047      98.68677       85.897723      287.89014     -0.0056738011   0.0078382004 
   6620000   2.7446828      94.130086      96.874769      274.59733     -0.1146322      0.0078382004 
   6630000   13.931102      104.81114      118.74224      305.75621     -1.0534158      0.0078382004 
   6640000  -16.718801      105.02088      88.302082      306.36809     -0.37649557     0.0078382004 
   6650000   3.2745447      98.048583      101.32313      286.02842     -1.2269192      0.0078382004 
   6660000  -13.080708      103.87759      90.79688       303.03285      0.49156259     0.0078382004 
   6670000  -15.195669      96.271676      81.076007      280.8448       0.78564644     0.0078382004 
   6680000  -11.76371       89.937281      78.173571      262.36603      1.1092753      0.0078382004 
   6690000  -11.856303      110.44375      98.587451      322.18775      0.5158137      0.0078382004 
   6700000   0.011743093    120.25828      120.27003      350.8188      -0.18505157     0.0078382004 
   6710000  -11.147463      99.338581      88.191118      289.79161     -0.24153233     0.0078382004 
   6720000   5.8136456      99.924477      105.73812      291.50079     -0.38622242     0.0078382004 
   6730000   1.7076191      96.002495      97.710114      280.05954     -0.41180082     0.0078382004 
   6740000  -7.9544392      103.48665      95.53221       301.8924      -1.3723677      0.0078382004 
   6750000  -5.7161517      106.08551      100.36936      309.47382      0.46858208     0.0078382004 
   6760000  -11.475167      107.97059      96.495424      314.97301      0.78744657     0.0078382004 
   6770000  -19.605846      100.18881      80.582965      292.27191     -0.58738402     0.0078382004 
   6780000  -7.6963559      115.33597      107.63962      336.45938     -0.51907715     0.0078382004 
   6790000  -1.1151348      105.08786      103.97273      306.56348     -0.64647332     0.0078382004 
   6800000  -4.3033506      107.90112      103.59777      314.77035     -0.93752374     0.0078382004 
   6810000  -3.1043937      102.57332      99.468924      299.22802      1.0323514      0.0078382004 
   6820000  -3.6234288      109.89551      106.27208      320.58839      1.5346704      0.0078382004 
   6830000  -1.5432594      76.918092      75.374832      224.38631     -0.93118289     0.0078382004 
   6840000  -8.3212419      101.87182      93.550578      297.1816       0.60291503     0.0078382004 
   6850000  -11.383861      102.77105      91.387186      299.80484      0.71119125     0.0078382004 
   6860000  -16.895665      91.908901      75.013236      268.11767     -0.64701147     0.0078382004 
   6870000  -7.5665916      93.685583      86.118992      273.30062      1.5805029      0.0078382004 
   6880000  -10.737833      103.77286      93.035029      302.72735     -0.70193105     0.0078382004 
   6890000  -10.569267      89.173393      78.604126      260.13761     -0.11838355     0.0078382004 
   6900000  -3.1880213      94.90222       91.714199      276.84981      1.4172455      0.0078382004 
   6910000  -13.379443      109.19547      95.816024      318.54623      0.78217716     0.0078382004 
   6920000  -15.014073      117.28284      102.26877      342.13881     -0.24319127     0.0078382004 
   6930000  -20.481757      104.01369      83.531935      303.4299      -0.063993309    0.0078382004 
   6940000  -16.654629      99.257274      82.602645      289.55442      0.20753236     0.0078382004 
   6950000  -17.396671      97.080752      79.684081      283.20505     -0.66627858     0.0078382004 
   6960000  -6.2555383      115.90462      109.64908      338.11824     -0.78739625     0.0078382004 
   6970000  -28.404922      113.29176      84.886834      330.49597      0.069362681    0.0078382004 
   6980000  -20.927883      99.083014      78.155132      289.04607     -0.5331217      0.0078382004 
   6990000  -21.103874      109.22551      88.121635      318.63387     -1.3835661      0.0078382004 
   7000000   0.60693278     107.44692      108.05385      313.44534      0.14492117     0.0078382004 
   7010000  -13.330813      106.45085      93.120034      310.53959      0.54650208     0.0078382004 
   7020000  -18.163818      118.06417      99.900351      344.4181       0.32900248     0.0078382004 
   7030000  -12.167493      102.49966      90.332171      299.01316      0.16854542     0.0078382004 
   7040000   1.3663015      98.46863       99.834932      287.25378      1.0619798      0.0078382004 
   7050000  -11.419444      97.519148      86.099704      284.48394      0.90905827     0.0078382004 
   7060000  -5.5033321      92.116232      86.6129        268.72249     -0.51051934     0.0078382004 
   7070000  -10.716531      99.865923      89.149391      291.32998      0.71332619     0.0078382004 
   7080000  -8.5831775      108.85355      100.27037      317.54879      0.84765925     0.0078382004 
   7090000   14.786839      103.27001      118.05685      301.26043      0.14768617     0.0078382004 
   7100000  -0.22040157     108.89229      108.67189      317.66179      0.58829576     0.0078382004 
[...]
 103190000  -17.977488      104.05112      86.073632      303.53908      1.5211399      0.0078382004 
 103200000  -22.295357      103.13134      80.835988      300.8559       0.22859201     0.0078382004 
 103210000   3.989739       118.2171       122.20683      344.86422     -0.15345209     0.0078382004 
 103220000  -5.6589854      111.82513      106.16614      326.21751     -0.79466657     0.0078382004 
 103230000  -21.235003      103.53802      82.303017      302.04226     -0.18964497     0.0078382004 
 103240000  -2.4099276      109.98538      107.57545      320.85056     -0.71717647     0.0078382004 
 103250000  -16.219304      91.54549       75.326186      267.05752     -0.56524211     0.0078382004 
 103260000  -0.10938779     113.83592      113.72653      332.08342      0.4147327      0.0078382004 
 103270000  -12.140718      97.037232      84.896514      283.07809     -0.21400081     0.0078382004 
 103280000  -14.724451      98.832029      84.107578      288.31389      0.42997385     0.0078382004 
 103290000  -25.235093      97.080686      71.845593      283.20485     -0.10543708     0.0078382004 
 103300000  -18.874021      104.23602      85.361996      304.07847      1.8886044      0.0078382004 
 103310000  -21.048217      105.23961      84.191392      307.00616     -1.1778237      0.0078382004 
 103320000  -18.472089      97.579305      79.107215      284.65943      0.74696903     0.0078382004 
 103330000  -13.248094      108.82881      95.580717      317.47662      1.2510093      0.0078382004 
 103340000  -26.475017      102.21777      75.742749      298.1908       0.64009725     0.0078382004 
 103350000  -13.621155      101.83898      88.217825      297.0858      -0.046743121    0.0078382004 
 103360000  -8.2035859      110.2752       102.07162      321.69604      0.90312618     0.0078382004 
 103370000  -22.500462      113.06052      90.560062      329.82142      0.6802404      0.0078382004 
 103380000   11.006272      97.07007       108.07634      283.17389      0.3041311      0.0078382004 
 103390000  -13.41339       102.42046      89.00707       298.7821      -0.7455376      0.0078382004 
 103400000   9.4773024      112.28428      121.76159      327.55696     -1.6481623      0.0078382004 
 103410000  -18.145628      100.90929      82.763659      294.37369      0.19577036     0.0078382004 
 103420000  -22.664919      104.4016       81.736679      304.5615      -0.85602877     0.0078382004 
 103430000  -26.523844      82.351608      55.827764      240.23703     -0.43869534     0.0078382004 
 103440000  -18.807123      122.51372      103.7066       357.39839     -0.59046531     0.0078382004 
 103450000  -17.213818      111.30421      94.090395      324.69789     -0.26174715     0.0078382004 
 103460000  -18.660321      117.08216      98.421842      341.55339      1.0297628      0.0078382004 
 103470000  -21.568413      101.85908      80.290664      297.14443      1.1605002      0.0078382004 
 103480000  -30.506293      113.99379      83.487492      332.54394     -1.2013857      0.0078382004 
 103490000  -19.864981      103.37429      83.50931       301.56463     -1.4222112      0.0078382004 
 103500000  -14.613077      108.74931      94.13623       317.24468      1.0787176      0.0078382004 
 103510000  -7.4154592      106.34295      98.927496      310.22485     -0.17810211     0.0078382004 
 103520000  -8.5090663      105.42443      96.915366      307.54532     -0.0039955251   0.0078382004 
 103530000  -10.128748      99.22348       89.094732      289.45584     -0.10921705     0.0078382004 
 103540000  -9.5849638      118.46161      108.87665      345.57753      0.011980279    0.0078382004 
 103550000  -15.813854      105.24704      89.43319       307.02785     -0.36397815     0.0078382004 
 103560000  -1.9092878      98.630563      96.721275      287.72617     -0.96773765     0.0078382004 
 103570000  -4.0491519      110.34491      106.29576      321.89941      0.6800349      0.0078382004 
 103580000  -16.62611       91.394085      74.767974      266.61584     -0.91878861     0.0078382004 
 103590000   1.4165017      107.24694      108.66344      312.86196      0.5974623      0.0078382004 
 103600000   2.2429147      110.47291      112.71582      322.27279     -0.33014653     0.0078382004 
 103610000  -13.21091       87.892578      74.681668      256.4012      -0.10698925     0.0078382004 
 103620000  -26.167472      102.279        76.111526      298.36943      1.5239243      0.0078382004 
 103630000  -2.9098449      112.65597      109.74612      328.64124      0.34418126     0.0078382004 
 103640000  -7.7979619      100.70349      92.905531      293.77335      0.0096706476   0.0078382004 
 103650000  -25.485082      95.812023      70.32694       279.5039       0.54888308     0.0078382004 
 103660000  -12.654408      106.16735      93.512944      309.71258     -1.4759331      0.0078382004 
 103670000   7.7251516      99.888793      107.61394      291.39669      0.052196695    0.0078382004 
 103680000   11.250642      108.48748      119.73812      316.48088     -0.23124391     0.0078382004 
 103690000  -12.962369      99.729676      86.767307      290.93252      1.5137744      0.0078382004 
 103700000  -24.408477      103.25071      78.842236      301.20413      0.60840043     0.0078382004 
 103710000  -9.3823489      101.86426      92.48191       297.15955     -0.24715693     0.0078382004 
 103720000   2.3644334      100.32315      102.68758      292.66381     -0.044434223    0.0078382004 
 103730000   9.2026007      88.690617      97.893217      258.72925      1.523586       0.0078382004 
 103740000  -18.828953      84.407371      65.578418      246.23412      0.21693924     0.0078382004 
 103750000  -8.144053       112.16689      104.02284      327.2145       0.010753308    0.0078382004 
 103760000  -19.834852      115.31399      95.479138      336.39525      1.0396172      0.0078382004 
 103770000  -3.6355398      96.966026      93.330486      282.87037     -0.67150652     0.0078382004 
 103780000   7.9492507      103.15652      111.10577      300.92935      0.16478043     0.0078382004 
 103790000  -16.036958      112.67392      96.636966      328.69362     -0.063611451    0.0078382004 
 103800000  -19.375528      102.64357      83.268045      299.43297      1.2128912      0.0078382004 
 103810000  -31.333916      114.82657      83.492656      334.97335      0.46605705     0.0078382004 
 103820000  -33.341347      103.4834       70.142048      301.88291      0.12857157     0.0078382004 
 103830000   6.9604567      98.634399      105.59486      287.73736     -0.27672006     0.0078382004 
 103840000  -27.330069      97.373499      70.04343       284.05905      1.3329955      0.0078382004 
 103850000  -13.128427      104.8998       91.771376      306.01487      0.64789125     0.0078382004 
 103860000  -12.329837      96.146406      83.816569      280.47936     -1.6675569      0.0078382004 
 103870000  -26.072284      95.22019       69.147906      277.77739     -0.26482725     0.0078382004 
 103880000  -33.746316      97.965475      64.219159      285.78597      0.32967646     0.0078382004 
 103890000  -17.793299      111.33708      93.543783      324.79377      0.33807458     0.0078382004 
 103900000  -4.3943013      110.81881      106.42451      323.28187     -0.43008899     0.0078382004 
 103910000  -19.641919      99.673037      80.031118      290.76729      0.89756521     0.0078382004 
 103920000  -23.009243      109.18286      86.173618      318.50945     -0.022267753    0.0078382004 
 103930000  -14.988519      99.192823      84.204304      289.36641      1.1853524      0.0078382004 
 103940000  -19.673813      99.277868      79.604055      289.6145       0.25835028     0.0078382004 
 103950000  -21.195643      98.792017      77.596374      288.19717     -0.16516199     0.0078382004 
 103960000  -15.549908      96.924446      81.374537      282.74907     -0.21901617     0.0078382004 
 103970000  -15.09595       99.79951       84.70356       291.13624      0.39431063     0.0078382004 
 103980000  -18.272101      122.07796      103.80586      356.12718     -0.18135824     0.0078382004 
 103990000  -14.584758      95.848196      81.263438      279.60942     -0.11608727     0.0078382004 
 104000000  -25.024665      83.512757      58.488092      243.62434      1.1227494      0.0078382004 
 104010000  -22.242772      103.75753      81.514762      302.68263      0.065554351    0.0078382004 
 104020000  -8.8087429      105.88201      97.073266      308.88017      0.41012243     0.0078382004 
 104030000  -2.8881324      108.30852      105.42039      315.95881     -0.77268454     0.0078382004 
 104040000  -11.727864      105.89573      94.167862      308.92019     -0.63019025     0.0078382004 
 104050000  -7.4401102      108.02962      100.58951      315.1452      -1.1337174      0.0078382004 
 104060000  -21.738609      110.87544      89.136835      323.44708      1.8577852      0.0078382004 
 104070000  -13.320848      111.58742      98.266571      325.52406      0.10014528     0.0078382004 
 104080000  -12.827059      117.22023      104.39318      341.95617     -0.74637899     0.0078382004 
 104090000  -18.98481       100.55186      81.567047      293.33099     -0.36242526     0.0078382004 
 104100000  -20.158512      93.24597       73.087458      272.01818     -0.77291067     0.0078382004 
 104110000  -13.122947      103.55736      90.434417      302.09869     -0.36336689     0.0078382004 
 104120000  -6.5438926      101.04269      94.498793      294.76284     -0.42867079     0.0078382004 
 104130000  -19.628926      102.74126      83.112335      299.71795     -1.0629043      0.0078382004 
 104140000  -5.1430788      87.842804      82.699725      256.256        0.3963776      0.0078382004 
 104150000  -12.555479      105.94669      93.391208      309.06885      0.61753238     0.0078382004 
 104160000  -7.2968409      111.52893      104.23209      325.35344     -1.0748713      0.0078382004 
 104170000  -2.526514       95.437196      92.910682      278.41045      1.3345644      0.0078382004 
 104180000  -12.946869      107.14723      94.200358      312.57108     -0.40367444     0.0078382004 
 104190000  -22.091841      105.44461      83.352771      307.60419      1.2144585      0.0078382004 
 104200000   6.3135085      93.418455      99.731963      272.52135      0.99666757     0.0078382004 
 104210000  -6.7427526      102.17082      95.428065      298.05384     -1.352115       0.0078382004 
 104220000  -8.7007254      110.71361      102.01289      322.97498      1.2766345      0.0078382004 
 104230000   14.301682      109.4095       123.71119      319.17062      0.18234393     0.0078382004 
 104240000  -6.1781042      93.195581      87.017477      271.87118     -0.50432188     0.0078382004 
 104250000  -4.6392448      98.591481      93.952237      287.61216      1.2432737      0.0078382004 
 104260000  -14.595929      101.17574      86.579814      295.151        0.19097971     0.0078382004 
 104270000  -3.6332562      100.97456      97.341305      294.56411      0.8676611      0.0078382004 
 104280000   4.2918922      100.20182      104.49371      292.30986     -0.38939732     0.0078382004 
 104290000   15.843374      97.970552      113.81393      285.80078      0.034810797    0.0078382004 
 104300000  -2.5527747      105.10436      102.55158      306.6116       0.58323336     0.0078382004 
 104310000  -12.577727      98.710995      86.133268      287.96081     -0.29222861     0.0078382004 
 104320000   0.88414017     103.12829      104.01243      300.847       -1.8899988      0.0078382004 
 104330000   0.79227328     96.758137      97.55041       282.26391      0.33254299     0.0078382004 
 104340000  -4.3928025      98.710151      94.317349      287.95835     -0.66842295     0.0078382004 
 104350000  -21.682385      91.447131      69.764746      266.77059      0.42560682     0.0078382004 
 104360000  -30.331918      102.51553      72.183616      299.05945      0.044936686    0.0078382004 
 104370000  -14.91117       109.42407      94.512902      319.21312      0.7316538      0.0078382004 
 104380000  -5.2106368      118.00674      112.7961       344.25058      0.63551548     0.0078382004 
 104390000  -2.9633862      107.80747      104.84408      314.49715     -0.014223584    0.0078382004 
 104400000  -7.9481179      105.34333      97.39521       307.30873      0.39457995     0.0078382004 
 104410000  -10.185967      78.586277      68.40031       229.25276      0.62876096     0.0078382004 
 104420000  -1.6143897      107.48789      105.8735       313.56487      0.28999113     0.0078382004 
 104430000  -2.5495909      91.285154      88.735563      266.29806      0.23895663     0.0078382004 
 104440000  -0.74277147     103.02971      102.28693      300.5594      -2.1540777      0.0078382004 
 104450000   0.35595416     98.025956      98.38191       285.96241      0.77079145     0.0078382004 
 104460000  -10.411194      116.37626      105.96506      339.49411      1.5584733      0.0078382004 
 104470000  -29.322138      105.97633      76.654196      309.15534      0.3462204      0.0078382004 
 104480000  -18.867052      102.17625      83.309202      298.0697       0.88443363     0.0078382004 
 104490000  -29.018795      110.3112       81.292402      321.80105      0.5723095      0.0078382004 
 104500000  -20.496098      93.237184      72.741087      271.99255      1.2745272      0.0078382004 
 104510000  -28.681492      92.864377      64.182885      270.90499      0.22617372     0.0078382004 
 104520000  -24.114282      104.20201      80.08773       303.97927     -0.72605198     0.0078382004 
 104530000  -29.018152      102.38198      73.363828      298.66985     -0.38464447     0.0078382004 
 104540000  -28.343741      98.416549      70.072807      287.10185     -0.38007659     0.0078382004 
 104550000  -29.337011      107.19795      77.860938      312.71905      1.7585624      0.0078382004 
 104560000  -6.3755328      102.38825      96.012716      298.68814     -0.52517565     0.0078382004 
 104570000  -11.001629      99.218247      88.216618      289.44057     -1.34418        0.0078382004 
 104580000  -15.624504      98.371697      82.747193      286.97101     -0.1994001      0.0078382004 
 104590000  -7.6276062      99.733036      92.10543       290.94232     -0.16971944     0.0078382004 
 104600000  -7.8855909      100.0157       92.130112      291.76692      0.64267639     0.0078382004 
 104610000  -19.413641      105.00552      85.591874      306.32326     -0.37707402     0.0078382004 
 104620000  -24.233119      108.59652      84.363399      316.79897     -0.38282342     0.0078382004 
 104630000  -36.670786      103.50143      66.83064       301.93551     -0.86422177     0.0078382004 
 104640000  -22.154469      95.938074      73.783605      279.87162     -0.69381366     0.0078382004 
 104650000  -16.583781      102.6393       86.055518      299.4205       0.23052071     0.0078382004 
 104660000  -17.600852      111.908        94.307147      326.45926      0.75374588     0.0078382004 
 104670000  -12.368232      109.18033      96.8121        318.50208      0.47241933     0.0078382004 
 104680000  -29.962626      110.04816      80.085534      321.03372      0.59849141     0.0078382004 
 104690000  -28.18677       101.27608      73.089308      295.4437      -0.8424802      0.0078382004 
 104700000  -30.483725      92.92775       62.444025      271.08986      1.4025946      0.0078382004 
 104710000  -8.7585287      92.626946      83.868417      270.21235      0.21543405     0.0078382004 
 104720000  -18.326573      113.84993      95.523353      332.12427     -0.38640185     0.0078382004 
 104730000  -11.184177      92.701366      81.517189      270.42945      1.4341711      0.0078382004 
 104740000  -15.858661      95.179042      79.320381      277.65736      0.43343926     0.0078382004 
 104750000  -14.414979      102.27008      87.855097      298.3434       0.42336417     0.0078382004 
 104760000  -5.9345861      116.6441       110.70952      340.27547      0.73088322     0.0078382004 
 104770000  -21.317231      91.057355      69.740124      265.63353     -0.46180062     0.0078382004 
 104780000  -19.08779       99.83641       80.748619      291.24388      0.49279875     0.0078382004 
 104790000  -18.826656      109.85457      91.027915      320.46897      1.8350352      0.0078382004 
 104800000  -22.726491      104.29575      81.569258      304.25272     -0.43891909     0.0078382004 
 104810000  -23.432326      95.798138      72.365812      279.46339     -0.75281926     0.0078382004 
 104820000  -16.401887      88.909863      72.507976      259.36884      0.30562759     0.0078382004 
 104830000  -8.535455       91.207463      82.672008      266.07142     -0.28937939     0.0078382004 
 104840000  -29.293535      94.356198      65.062663      275.25695      0.31597952     0.0078382004 
 104850000  -23.500777      107.27544      83.774662      312.9451       0.4771727      0.0078382004 
 104860000  -12.553011      96.330463      83.777453      281.0163       1.4954622      0.0078382004 
 104870000  -15.712857      108.00083      92.287977      315.06123     -0.0693149      0.0078382004 
 104880000  -11.807093      90.897895      79.090802      265.16835      0.98654837     0.0078382004 
 104890000  -13.089373      89.235717      76.146344      260.31942     -0.92137702     0.0078382004 
 104900000  -7.7517311      99.562715      91.810984      290.44546      0.41444361     0.0078382004 
 104910000  -17.922198      111.36017      93.437977      324.86114      0.11374358     0.0078382004 
 104920000  -14.327921      100.50893      86.181007      293.20576      1.4357537      0.0078382004 
 104930000  -11.392701      104.57965      93.186949      305.08092     -0.74910045     0.0078382004 
 104940000  -18.386904      107.38532      88.998418      313.26566      0.67636292     0.0078382004 
 104950000  -14.30421       101.60881      87.304596      296.41434      0.58491875     0.0078382004 
 104960000  -3.4406593      101.05987      97.619209      294.81297     -0.57590128     0.0078382004 
 104970000  -17.099279      93.145619      76.04634       271.72543      0.090041232    0.0078382004 
 104980000  -25.197312      104.14379      78.946482      303.80943      1.2019489      0.0078382004 
 104990000  -8.1204866      110.70112      102.58063      322.93853      3.0761423      0.0078382004 
 105000000  -9.402525       104.59543      95.192904      305.12695     -0.29692878     0.0078382004 
Loop time of 7386.01 on 4 procs for 100000000 steps with 116 atoms

Performance: 11697.786 ns/day, 0.002 hours/ns, 13539.104 timesteps/s, 1.571 Matom-step/s
99.6% CPU use with 4 MPI tasks x 1 OpenMP threads

MPI task timing breakdown:
Section |  min time  |  avg time  |  max time  |%varavg| %total
---------------------------------------------------------------
Pair    | 1019.9     | 2135.1     | 3370.5     |2235.4 | 28.91
Bond    | 122.34     | 222.44     | 313.59     | 535.0 |  3.01
Neigh   | 6.7097     | 6.7362     | 6.7585     |   0.7 |  0.09
Comm    | 3564.6     | 4881.6     | 6120.4     |1614.5 | 66.09
Output  | 0.85409    | 1.3282     | 2.7373     |  70.6 |  0.02
Modify  | 66.626     | 96.896     | 121.86     | 245.3 |  1.31
Other   |            | 41.92      |            |       |  0.57

Nlocal:             29 ave          48 max          10 min
Histogram: 2 0 0 0 0 0 0 0 0 2
Nghost:           65.5 ave          95 max          47 min
Histogram: 2 0 0 0 1 0 0 0 0 1
Neighs:         175.75 ave         400 max           4 min
Histogram: 1 0 1 0 1 0 0 0 0 1

Total # of neighbors = 703
Ave neighs/atom = 6.0603448
Ave special neighs/atom = 5.3793103
Neighbor list builds = 123521
Dangerous builds = 0

write_data outputs/${tag}_final.data
write_data outputs/7LYJ_aso_n5_smallbox_final.data
System init for write_data ...
Generated 0 of 6 mixed pair_coeff terms from geometric mixing rule
Total wall time: 2:08:12
