
# --- Force field -------------------------------------------------
bond_style  harmonic
bond_coeff  1 7.5 5.9

angle_style harmonic
angle_coeff 1 5.0 150.0

pair_style  hybrid/overlay lj/cut 10.0 base/rna 18.0
pair_modify shift yes

pair_coeff * * lj/cut 2.0 8.9089871814

pair_coeff 1 1 base/rna 0.00000 3.0 13.8 1.5 0.5 1.8326 0.9425 1.8326 1.1345
pair_coeff 1 2 base/rna 0.00000 3.0 13.8 1.5 0.5 1.8326 0.9425 1.8326 1.1345
pair_coeff 1 3 base/rna 0.00000 3.0 13.8 1.5 0.5 1.8326 0.9425 1.8326 1.1345
pair_coeff 1 4 base/rna 3.33333 3.0 13.8 1.5 0.5 1.8326 0.9425 1.8326 1.1345
pair_coeff 2 2 base/rna 0.00000 3.0 13.8 1.5 0.5 1.8326 0.9425 1.8326 1.1345
pair_coeff 2 3 base/rna 5.00000 3.0 13.8 1.5 0.5 1.8326 0.9425 1.8326 1.1345
pair_coeff 2 4 base/rna 0.00000 3.0 13.8 1.5 0.5 1.8326 0.9425 1.8326 1.1345
pair_coeff 3 3 base/rna 0.00000 3.0 13.8 1.5 0.5 1.8326 0.9425 1.8326 1.1345
pair_coeff 3 4 base/rna 3.33333 3.0 13.8 1.5 0.5 1.8326 0.9425 1.8326 1.1345
pair_coeff 4 4 base/rna 0.00000 3.0 13.8 1.5 0.5 1.8326 0.9425 1.8326 1.1345

# --- Minimization ------------------------------------------------
minimize 1.0e-4 1.0e-6 1000 10000

CITE-CITE-CITE-CITE-CITE-CITE-CITE-CITE-CITE-CITE-CITE-CITE-CITE

Your simulation uses code contributions which should be cited:

- Type Label Framework: https://doi.org/10.1021/acs.jpcb.3c08419

@Article{Gissinger24,
 author = {Jacob R. Gissinger, Ilia Nikiforov, Yaser Afshar, Brendon Waters, Moon-ki Choi, Daniel S. Karls, Alexander Stukowski, Wonpil Im, Hendrik Heinz, Axel Kohlmeyer, and Ellad B. Tadmor},
 title = {Type Label Framework for Bonded Force Fields in LAMMPS},
 journal = {J. Phys. Chem. B},
 year =    2024,
 volume =  128,
 number =  13,
 pages =   {3282–-3297}
}

CITE-CITE-CITE-CITE-CITE-CITE-CITE-CITE-CITE-CITE-CITE-CITE-CITE

Switching to 'neigh_modify every 1 delay 0 check yes' setting during minimization
Generated 0 of 6 mixed pair_coeff terms from geometric mixing rule
Neighbor list info ...
  update: every = 1 steps, delay = 0 steps, check = yes
  max neighbors/atom: 2000, page size: 100000
  master list distance cutoff = 33
  ghost atom cutoff = 33
  binsize = 16.5, bins = 57 57 57
  2 neighbor lists, perpetual/occasional/extra = 2 0 0
  (1) pair lj/cut, perpetual, trim from (2)
      attributes: half, newton on, cut 25
      pair build: trim
      stencil: none
      bin: none
  (2) pair base/rna, perpetual
      attributes: half, newton on
      pair build: half/bin/newton
      stencil: half/bin/3d
      bin: standard
Per MPI rank memory allocation (min/avg/max) = 8.457 | 8.491 | 8.725 Mbytes
   Step          Temp          E_pair         E_mol          TotEng         Press     
         0   0              2323.8063      2245.1757      4568.982       0.86580183   
        48   0             -103.05141      2146.5213      2043.4699     -0.0014766159 
Loop time of 0.00553865 on 32 procs for 48 steps with 2066 atoms

88.2% CPU use with 32 MPI tasks x 1 OpenMP threads

Minimization stats:
  Stopping criterion = energy tolerance
  Energy initial, next-to-last, final = 
      4568.98199750286   2043.64923095203   2043.46991921815
  Force two-norm initial, final = 5888.4578 2.1473626
  Force max component initial, final = 2667.2637 0.54291269
  Final line search alpha, max atom move = 0.10754848 0.058389433
  Iterations, force evaluations = 48 56

MPI task timing breakdown:
Section |  min time  |  avg time  |  max time  |%varavg| %total
---------------------------------------------------------------
Pair    | 0.00079689 | 0.0010977  | 0.0021519  |   0.9 | 19.82
Bond    | 3.843e-05  | 0.00012767 | 0.00021748 |   0.0 |  2.31
Neigh   | 0          | 0          | 0          |   0.0 |  0.00
Comm    | 0.0019178  | 0.002748   | 0.0032489  |   0.6 | 49.62
Output  | 0          | 0          | 0          |   0.0 |  0.00
Modify  | 0          | 0          | 0          |   0.0 |  0.00
Other   |            | 0.001565   |            |       | 28.26

Nlocal:        64.5625 ave         109 max          16 min
Histogram: 1 4 4 3 4 2 4 4 2 4
Nghost:        62.0938 ave         141 max          22 min
Histogram: 7 5 7 3 3 2 1 1 2 1
Neighs:        116.344 ave         351 max          18 min
Histogram: 5 8 8 5 0 2 2 0 0 2

Total # of neighbors = 3723
Ave neighs/atom = 1.8020329
Ave special neighs/atom = 4.8325266
Neighbor list builds = 0
Dangerous builds = 0
reset_timestep 0

# --- Output setup ------------------------------------------------
dump d1 all custom 50000 outputs/${tag}.lammpstrj id mol type q xu yu zu
dump d1 all custom 50000 outputs/7LYJ_aso_n200.lammpstrj id mol type q xu yu zu
dump_modify d1 sort id

thermo_style custom step pe ke etotal temp press density
thermo       10000
thermo_modify flush yes

variable vpe equal pe
variable vke equal ke
variable vT  equal temp
variable vE  equal etotal
variable vRg equal gyration(all)

fix favg all ave/time 10000 10 100000 v_vpe v_vke v_vT v_vE v_vRg     file outputs/thermo_${tag}_averaged.dat
fix favg all ave/time 10000 10 100000 v_vpe v_vke v_vT v_vE v_vRg     file outputs/thermo_7LYJ_aso_n200_averaged.dat

# --- NVT equilibration (50 ns) -----------------------------------
velocity all create ${T_target} 19854 rot yes dist gaussian
velocity all create 300 19854 rot yes dist gaussian

fix fxlang all langevin ${T_target} ${T_target} 1000.0 49465
fix fxlang all langevin 300 ${T_target} 1000.0 49465
fix fxlang all langevin 300 300 1000.0 49465
fix fxnve  all nve
fix recenter all momentum 1000 linear 1 1 1

run 5000000
Generated 0 of 6 mixed pair_coeff terms from geometric mixing rule
Per MPI rank memory allocation (min/avg/max) = 7.348 | 7.382 | 7.616 Mbytes
   Step         PotEng         KinEng         TotEng          Temp          Press         Density    
         0   2043.4699      1846.6118      3890.0817      300            0.10015408     0.0013565505 
     10000   922.19302      1863.6545      2785.8475      302.76874     -0.00061971321  0.0013565505 
     20000   949.41567      1841.3564      2790.7721      299.14621      0.0031451102   0.0013565505 
     30000   958.62049      1846.316       2804.9365      299.95194      0.020290371    0.0013565505 
     40000   960.14207      1819.264       2779.4061      295.55708      0.039158827    0.0013565505 
     50000   934.64862      1876.2825      2810.9311      304.82029     -0.0026877814   0.0013565505 
     60000   972.74756      1825.5125      2798.2601      296.57222     -0.00077865505  0.0013565505 
     70000   968.84311      1892.4203      2861.2634      307.44203      0.011420328    0.0013565505 
     80000   968.34476      1828.1535      2796.4983      297.00127      0.055724529    0.0013565505 
     90000   953.17265      1859.473       2812.6456      302.08942     -0.021909861    0.0013565505 
    100000   968.98899      1821.2663      2790.2553      295.88238     -0.0091574689   0.0013565505 
    110000   1007.8786      1823.5994      2831.478       296.26141      0.0087113209   0.0013565505 
    120000   1009.0216      1874.0427      2883.0643      304.45641      0.014135594    0.0013565505 
    130000   1004.4401      1855.0178      2859.4579      301.36563      0.055195817    0.0013565505 
    140000   925.33608      1859.2948      2784.6309      302.06048      0.0090847107   0.0013565505 
    150000   933.65022      1855.9009      2789.5511      301.5091       0.0039892664   0.0013565505 
    160000   909.5902       1851.9386      2761.5288      300.86539      0.006922369    0.0013565505 
    170000   945.99989      1861.634       2807.6339      302.4405       0.025945659    0.0013565505 
    180000   947.61873      1843.9808      2791.5995      299.57256      0.026518755    0.0013565505 
    190000   946.57227      1856.4829      2803.0552      301.60365      0.048575158    0.0013565505 
    200000   952.07952      1883.9907      2836.0702      306.07256      0.024129542    0.0013565505 
    210000   952.45229      1863.5969      2816.0492      302.75939      0.024776321    0.0013565505 
    220000   976.98687      1843.4657      2820.4525      299.48888      0.0070072136   0.0013565505 
    230000   970.80758      1888.2344      2859.042       306.76199     -0.0022124774   0.0013565505 
    240000   952.85559      1829.2685      2782.1241      297.1824       0.0053299742   0.0013565505 
    250000   968.41788      1917.1814      2885.5992      311.46471      0.0050556403   0.0013565505 
    260000   940.22355      1786.1739      2726.3975      290.18128      0.039789803    0.0013565505 
    270000   960.66509      1841.83        2802.4951      299.22314     -0.018830364    0.0013565505 
    280000   944.90242      1853.4882      2798.3906      301.11714      0.015341836    0.0013565505 
    290000   943.20191      1883.0773      2826.2792      305.92417      0.058680023    0.0013565505 
    300000   933.85656      1868.268       2802.1246      303.51826      0.023502008    0.0013565505 
    310000   936.77158      1816.7531      2753.5247      295.14916      0.029390395    0.0013565505 
    320000   946.43773      1851.1482      2797.586       300.73698      0.0072641875   0.0013565505 
    330000   987.93529      1825.9851      2813.9204      296.64898     -0.0097063975   0.0013565505 
    340000   962.7783       1814.2149      2776.9932      294.7368      -0.0053175602   0.0013565505 
    350000   977.39501      1894.9711      2872.3661      307.85644      0.038738837    0.0013565505 
    360000   979.54209      1815.4944      2795.0364      294.94467     -0.026958055    0.0013565505 
    370000   988.74769      1840.2626      2829.0103      298.9685      -0.0020534041   0.0013565505 
    380000   978.01274      1891.1144      2869.1271      307.22987     -0.015196629    0.0013565505 
    390000   970.27504      1808.1048      2778.3799      293.74416     -0.0069050811   0.0013565505 
    400000   932.74226      1840.3438      2773.0861      298.9817       0.0083423299   0.0013565505 
    410000   978.75955      1843.2069      2821.9664      299.44683     -0.009187369    0.0013565505 
    420000   967.71614      1814.6207      2782.3369      294.80274      0.014147517    0.0013565505 
    430000   903.48667      1811.0537      2714.5403      294.22323      0.051569695    0.0013565505 
    440000   975.32876      1851.0135      2826.3422      300.71509     -0.035930915    0.0013565505 
    450000   974.90771      1850.8042      2825.712       300.6811       0.00078339196  0.0013565505 
    460000   999.01607      1898.6559      2897.672       308.45507     -0.01972125     0.0013565505 
    470000   882.69389      1855.6733      2738.3672      301.47213      0.036995447    0.0013565505 
    480000   984.09999      1827.768       2811.868       296.93864     -0.053304031    0.0013565505 
    490000   965.69028      1841.6081      2807.2984      299.18709      0.014693531    0.0013565505 
    500000   976.63867      1860.4651      2837.1037      302.25059     -0.0033240246   0.0013565505 
    510000   945.45285      1904.7627      2850.2155      309.44717      0.031523604    0.0013565505 
    520000   925.58994      1921.7829      2847.3729      312.21227      0.012725815    0.0013565505 
    530000   956.42135      1835.1158      2791.5371      298.13236      0.018046659    0.0013565505 
    540000   965.66864      1853.3953      2819.0639      301.10204      0.017955636    0.0013565505 
    550000   932.40917      1839.1939      2771.6031      298.79489     -0.0029396      0.0013565505 
    560000   947.77677      1877.2534      2825.0301      304.97802      0.049532479    0.0013565505 
    570000   975.10605      1853.9035      2829.0096      301.18461     -0.025378881    0.0013565505 
    580000   948.21216      1827.4104      2775.6226      296.88054      0.01587145     0.0013565505 
    590000   983.65462      1842.9843      2826.6389      299.41067      0.0020655964   0.0013565505 
    600000   987.00058      1775.8425      2762.8431      288.50284     -0.027389349    0.0013565505 
    610000   957.41498      1883.1722      2840.5872      305.93959      0.016562323    0.0013565505 
    620000   994.40855      1798.7381      2793.1466      292.22244     -0.0046315901   0.0013565505 
    630000   958.04451      1887.1658      2845.2103      306.58839      0.027285917    0.0013565505 
    640000   971.22986      1931.9061      2903.136       313.85688      0.0083555203   0.0013565505 
    650000   982.1024       1864.0908      2846.1932      302.83962      0.026842441    0.0013565505 
    660000   956.03135      1843.8626      2799.894       299.55337      0.028834286    0.0013565505 
    670000   958.09399      1838.6974      2796.7914      298.71423      0.009643778    0.0013565505 
    680000   982.60035      1826.3394      2808.9398      296.70655      0.019569397    0.0013565505 
    690000   938.74421      1869.0986      2807.8428      303.6532       0.026302606    0.0013565505 
    700000   987.64243      1883.5213      2871.1637      305.9963       0.0080988245   0.0013565505 
    710000   995.36879      1871.3472      2866.716       304.0185      -0.013348531    0.0013565505 
    720000   956.47362      1829.8626      2786.3362      297.27892      0.029143034    0.0013565505 
    730000   970.44961      1826.0242      2796.4738      296.65534      0.030081539    0.0013565505 
    740000   946.87641      1860.7086      2807.585       302.29016      0.006686938    0.0013565505 
    750000   961.73622      1879.1355      2840.8717      305.28379      0.021339715    0.0013565505 
    760000   953.82984      1813.6439      2767.4738      294.64405      0.012398298    0.0013565505 
    770000   961.65967      1816.6505      2778.3102      295.1325       0.0011704117   0.0013565505 
    780000   968.44859      1827.44        2795.8886      296.88536     -0.026788451    0.0013565505 
    790000   971.06668      1828.1473      2799.214       297.00026     -0.0010016638   0.0013565505 
    800000   978.13665      1866.036       2844.1726      303.15564      0.023901109    0.0013565505 
    810000   996.37473      1857.3079      2853.6827      301.73769     -0.013962123    0.0013565505 
    820000   950.04084      1884.5191      2834.56        306.15841     -0.0078762825   0.0013565505 
    830000   988.22649      1772.7162      2760.9427      287.99494      0.030681635    0.0013565505 
    840000   916.21663      1853.6559      2769.8726      301.14439      0.0031217038   0.0013565505 
    850000   950.82242      1861.2831      2812.1055      302.38348     -0.0050994923   0.0013565505 
    860000   947.05184      1840.3004      2787.3522      298.97464      0.0063337648   0.0013565505 
    870000   974.92267      1835.436       2810.3586      298.18437     -0.0043571098   0.0013565505 
    880000   979.8239       1821.9685      2801.7924      295.99646      0.037858264    0.0013565505 
    890000   962.91195      1825.2695      2788.1814      296.53273      0.041386802    0.0013565505 
    900000   951.1834       1813.2638      2764.4472      294.58229      0.026878113    0.0013565505 
    910000   979.14693      1900.2904      2879.4374      308.72061     -0.009524863    0.0013565505 
    920000   991.81943      1852.1996      2844.019       300.90778      0.010830033    0.0013565505 
    930000   965.72309      1852.1271      2817.8502      300.89601      0.038711109    0.0013565505 
    940000   989.14444      1879.0671      2868.2115      305.27267     -0.0060397181   0.0013565505 
    950000   930.85671      1786.8999      2717.7566      290.29922      0.018950143    0.0013565505 
    960000   1011.5206      1845.379       2856.8996      299.79972      0.034730892    0.0013565505 
    970000   952.93837      1826.5863      2779.5247      296.74666      0.01409747     0.0013565505 
    980000   922.95151      1838.3115      2761.263       298.65153      0.014602912    0.0013565505 
    990000   959.34189      1832.3696      2791.7115      297.68621      0.0015238245   0.0013565505 
   1000000   984.61311      1825.3876      2810.0007      296.55191     -0.015870455    0.0013565505 
   1010000   926.5434       1824.2973      2750.8407      296.37478     -0.02324597     0.0013565505 
   1020000   981.09638      1888.3269      2869.4233      306.77702      0.019745841    0.0013565505 
   1030000   938.77055      1853.4179      2792.1884      301.10571      0.0089313047   0.0013565505 
   1040000   915.52112      1844.6709      2760.1921      299.68468      0.035013239    0.0013565505 
   1050000   1001.9133      1848.4883      2850.4016      300.30486      0.026096879    0.0013565505 
   1060000   911.09731      1902.8346      2813.9319      309.13394      0.017067185    0.0013565505 
   1070000   953.9888       1811.4995      2765.4883      294.29567     -0.017512544    0.0013565505 
   1080000   933.34146      1856.3145      2789.656       301.5763      -0.0064506109   0.0013565505 
   1090000   943.4491       1886.6534      2830.1025      306.50514     -0.00081844583  0.0013565505 
   1100000   988.69086      1832.3093      2821.0002      297.67642      0.0067573217   0.0013565505 
   1110000   961.13976      1860.6767      2821.8164      302.28497     -0.027168682    0.0013565505 
   1120000   945.37867      1818.2317      2763.6104      295.38937      0.045076779    0.0013565505 
   1130000   971.61476      1885.2064      2856.8212      306.27007     -0.016667194    0.0013565505 
   1140000   935.30979      1883.1577      2818.4674      305.93722      0.023584968    0.0013565505 
   1150000   993.22478      1839.3791      2832.6039      298.82497     -0.021381718    0.0013565505 
   1160000   941.76866      1875.9157      2817.6843      304.76069     -0.032983542    0.0013565505 
   1170000   972.15576      1921.2493      2893.4051      312.12558      0.0092988909   0.0013565505 
   1180000   984.6403       1821.1818      2805.8221      295.86865     -0.0082828404   0.0013565505 
   1190000   1041.6536      1850.9969      2892.6504      300.71239      0.018101902    0.0013565505 
   1200000   933.27635      1878.0365      2811.3128      305.10524     -0.00021096288  0.0013565505 
   1210000   943.90872      1859.3833      2803.292       302.07485      4.6868101e-05  0.0013565505 
   1220000   976.31877      1818.3803      2794.699       295.41351     -0.0018577745   0.0013565505 
   1230000   938.83751      1820.6366      2759.4741      295.78007      0.0024338472   0.0013565505 
   1240000   990.46797      1831.8892      2822.3572      297.60817     -0.017082335    0.0013565505 
   1250000   978.18078      1825.2055      2803.3863      296.52234      0.0028899004   0.0013565505 
   1260000   917.57657      1804.2936      2721.8702      293.125        0.042661085    0.0013565505 
   1270000   957.74631      1782.2732      2740.0195      289.54756     -0.023381724    0.0013565505 
   1280000   1013.5522      1849.0274      2862.5796      300.39243      0.048879404    0.0013565505 
   1290000   957.63837      1849.6556      2807.294       300.4945       0.051964078    0.0013565505 
   1300000   950.79125      1867.1419      2817.9331      303.3353       0.01528849     0.0013565505 
   1310000   933.86138      1852.2922      2786.1535      300.92282      0.035748923    0.0013565505 
   1320000   960.42329      1831.4444      2791.8677      297.53591      0.0030515501   0.0013565505 
   1330000   962.64549      1835.9141      2798.5596      298.26206     -0.010850518    0.0013565505 
   1340000   982.26215      1853.2997      2835.5618      301.08651      0.01233251     0.0013565505 
   1350000   966.74615      1815.2081      2781.9543      294.89817      0.047459883    0.0013565505 
   1360000   965.25324      1879.4593      2844.7126      305.33639      0.013600684    0.0013565505 
   1370000   931.12623      1901.5895      2832.7157      308.93166      0.027830952    0.0013565505 
   1380000   926.75778      1846.6195      2773.3773      300.00125      0.019299046    0.0013565505 
   1390000   921.10386      1859.534       2780.6379      302.09933      0.034528446    0.0013565505 
   1400000   919.9596       1801.7151      2721.6747      292.70609      0.047210848    0.0013565505 
   1410000   959.85632      1832.3925      2792.2488      297.68993      0.025380619    0.0013565505 
   1420000   1019.0366      1852.954       2871.9906      301.03035     -0.010338613    0.0013565505 
   1430000   957.53013      1806.8863      2764.4165      293.54621      0.038956859    0.0013565505 
   1440000   965.70472      1871.052       2836.7567      303.97054      0.022541215    0.0013565505 
   1450000   975.40956      1829.3987      2804.8083      297.20357      0.030086031    0.0013565505 
   1460000   1012.6506      1878.0164      2890.667       305.10198      0.0007638251   0.0013565505 
   1470000   997.05217      1862.3393      2859.3915      302.55508      0.057033799    0.0013565505 
   1480000   933.05491      1882.5394      2815.5944      305.83679      0.0096838256   0.0013565505 
   1490000   978.94463      1868.1731      2847.1177      303.50284     -0.0083052473   0.0013565505 
   1500000   979.78332      1788.7532      2768.5365      290.6003      -0.0022719568   0.0013565505 
   1510000   961.94146      1850.3633      2812.3048      300.60947     -0.0057824002   0.0013565505 
   1520000   925.71805      1846.847       2772.565       300.03821      0.0076686528   0.0013565505 
   1530000   951.04411      1862.5909      2813.635       302.59595      0.015180944    0.0013565505 
   1540000   1004.0499      1885.5004      2889.5503      306.31782     -0.0026753536   0.0013565505 
   1550000   1004.0906      1818.3581      2822.4487      295.4099      -0.0017452702   0.0013565505 
   1560000   1019.3009      1843.9732      2863.2741      299.57132      0.010180686    0.0013565505 
   1570000   1010.3061      1894.4695      2904.7756      307.77495      0.021982121    0.0013565505 
   1580000   961.54768      1878.0556      2839.6033      305.10835     -0.00058333192  0.0013565505 
   1590000   1001.1912      1759.9801      2761.1713      285.92583      0.016759872    0.0013565505 
   1600000   968.14819      1870.1209      2838.2691      303.81927      0.0308302      0.0013565505 
   1610000   882.70315      1854.7744      2737.4775      301.32608      0.030214331    0.0013565505 
   1620000   978.2388       1899.0527      2877.2915      308.51953      0.010398581    0.0013565505 
   1630000   934.1206       1833.3993      2767.5199      297.85349      0.019683456    0.0013565505 
   1640000   991.81286      1851.6303      2843.4432      300.81531      0.043644355    0.0013565505 
   1650000   960.74295      1870.605       2831.3479      303.89792      0.022325622    0.0013565505 
   1660000   946.42129      1856.0216      2802.4429      301.5287       0.0013319599   0.0013565505 
   1670000   952.39209      1803.0397      2755.4318      292.92128     -0.040928011    0.0013565505 
   1680000   976.94941      1838.871       2815.8204      298.74243      0.048897158    0.0013565505 
   1690000   938.8892       1823.0112      2761.9004      296.16585      0.018934628    0.0013565505 
   1700000   953.06219      1853.8186      2806.8808      301.17081      0.011505283    0.0013565505 
   1710000   970.81724      1848.1701      2818.9873      300.25315      0.019140588    0.0013565505 
   1720000   982.65746      1771.2495      2753.9069      287.75665      0.0046547125   0.0013565505 
   1730000   956.64617      1826.591       2783.2372      296.74742      0.014764612    0.0013565505 
   1740000   1004.8447      1830.1804      2835.0251      297.33056      0.0068542267   0.0013565505 
   1750000   1006.0213      1882.1535      2888.1748      305.77408      0.0094176399   0.0013565505 
   1760000   974.86459      1790.6629      2765.5275      290.91055      0.0074697356   0.0013565505 
   1770000   964.91996      1826.8382      2791.7581      296.78758      0.046703448    0.0013565505 
   1780000   987.95866      1840.6417      2828.6003      299.03009      0.020591443    0.0013565505 
   1790000   947.89171      1873.0887      2820.9805      304.30143      0.0010012978   0.0013565505 
   1800000   936.91227      1822.1433      2759.0556      296.02485     -0.010674835    0.0013565505 
   1810000   969.02439      1810.191       2779.2154      294.08309     -0.0017403226   0.0013565505 
   1820000   946.24285      1857.1161      2803.3589      301.70652      0.017250623    0.0013565505 
   1830000   983.56208      1866.1744      2849.7365      303.17814      0.043295891    0.0013565505 
   1840000   948.03714      1796.2965      2744.3336      291.82579      0.0093918913   0.0013565505 
   1850000   997.70019      1848.7614      2846.4616      300.34923     -0.010683838    0.0013565505 
   1860000   912.91397      1857.5902      2770.5041      301.78354      0.018209233    0.0013565505 
   1870000   968.66999      1780.5719      2749.2419      289.27118     -0.015845376    0.0013565505 
   1880000   961.37574      1870.0605      2831.4363      303.80947     -0.018343522    0.0013565505 
   1890000   956.48858      1858.0813      2814.5699      301.86333      0.014028234    0.0013565505 
   1900000   940.34475      1823.858       2764.2028      296.30342      0.023932595    0.0013565505 
   1910000   943.42023      1882.3519      2825.7722      305.80633      0.016883062    0.0013565505 
   1920000   960.5523       1835.0379      2795.5902      298.11971     -0.0038275849   0.0013565505 
   1930000   982.52717      1846.2121      2828.7393      299.93507      0.030066457    0.0013565505 
   1940000   960.01208      1815.205       2775.2171      294.89766     -0.00048388388  0.0013565505 
   1950000   988.57255      1807.9201      2796.4927      293.71416      0.047743643    0.0013565505 
   1960000   924.68593      1853.1234      2777.8093      301.05787     -0.019882483    0.0013565505 
   1970000   949.94809      1869.4315      2819.3796      303.70727     -0.0024851426   0.0013565505 
   1980000   962.61287      1848.0898      2810.7027      300.24011     -0.037267123    0.0013565505 
   1990000   998.70909      1817.6128      2816.3219      295.28883      0.017640906    0.0013565505 
   2000000   963.93684      1805.568       2769.5048      293.33203      0.010582818    0.0013565505 
   2010000   993.82785      1877.4992      2871.327       305.01795      0.033031333    0.0013565505 
   2020000   1016.6074      1809.9592      2826.5665      294.04542     -0.0046232907   0.0013565505 
   2030000   970.50937      1855.8169      2826.3263      301.49546      0.0044450418   0.0013565505 
   2040000   941.29413      1878.8409      2820.135       305.23592     -0.012130326    0.0013565505 
   2050000   927.23594      1823.2374      2750.4733      296.2026       0.015518547    0.0013565505 
   2060000   944.82781      1854.1582      2798.986       301.22598      0.019327273    0.0013565505 
   2070000   971.44859      1855.6424      2827.091       301.4671       0.023264281    0.0013565505 
   2080000   924.65841      1831.787       2756.4455      297.59157     -5.3442694e-06  0.0013565505 
   2090000   962.49901      1852.6513      2815.1503      300.98117      0.0063144484   0.0013565505 
   2100000   983.89562      1853.0994      2836.995       301.05396     -0.010644837    0.0013565505 
   2110000   965.48707      1852.8176      2818.3047      301.00819      0.029969659    0.0013565505 
   2120000   971.35252      1861.6401      2832.9926      302.44148      0.017305838    0.0013565505 
   2130000   942.00281      1833.7311      2775.7339      297.9074       0.029447457    0.0013565505 
   2140000   976.56095      1810.5721      2787.133       294.14499     -0.024028342    0.0013565505 
   2150000   1002.3297      1906.6477      2908.9774      309.7534       0.021585849    0.0013565505 
   2160000   932.25251      1828.9696      2761.2222      297.13386      0.044328619    0.0013565505 
   2170000   959.18581      1850.2263      2809.4121      300.58721      0.016586256    0.0013565505 
   2180000   970.20225      1883.1689      2853.3712      305.93906     -0.0030226888   0.0013565505 
   2190000   918.94164      1786.1626      2705.1042      290.17944     -0.0091921426   0.0013565505 
   2200000   990.13454      1868.4296      2858.5641      303.5445       0.030782222    0.0013565505 
   2210000   980.51815      1807.6273      2788.1455      293.66659     -0.017247687    0.0013565505 
   2220000   1006.0171      1845.7928      2851.8099      299.86694      0.0079327109   0.0013565505 
   2230000   935.28309      1834.414       2769.6971      298.01835      0.023467029    0.0013565505 
   2240000   998.69634      1859.0972      2857.7936      302.02838      0.024994644    0.0013565505 
   2250000   979.99307      1896.4725      2876.4656      308.10035     -0.002309837    0.0013565505 
   2260000   961.84118      1822.086       2783.9272      296.01554      0.01193845     0.0013565505 
   2270000   928.96333      1876.3527      2805.316       304.83169     -0.027854363    0.0013565505 
   2280000   1007.8408      1824.01        2831.8507      296.32811     -0.0014203625   0.0013565505 
   2290000   930.1697       1906.3242      2836.4939      309.70085      0.0013578517   0.0013565505 
   2300000   941.29228      1871.1945      2812.4868      303.9937      -0.012908778    0.0013565505 
   2310000   972.57168      1787.8164      2760.3881      290.44812      0.0070476216   0.0013565505 
   2320000   949.4391       1873.9227      2823.3618      304.43691     -0.016200642    0.0013565505 
   2330000   942.95577      1833.6329      2776.5887      297.89145      0.0066639351   0.0013565505 
   2340000   962.03524      1821.7262      2783.7614      295.95709      0.025285937    0.0013565505 
   2350000   993.68647      1846.6001      2840.2866      299.9981      -0.015680271    0.0013565505 
   2360000   960.61059      1840.5306      2801.1412      299.01205     -0.013634438    0.0013565505 
   2370000   980.83106      1856.6709      2837.5019      301.63419     -0.0034882948   0.0013565505 
   2380000   949.40539      1859.7113      2809.1167      302.12814      0.0058589744   0.0013565505 
   2390000   937.96042      1829.5821      2767.5425      297.23336      0.0035403159   0.0013565505 
   2400000   961.48988      1898.414       2859.9038      308.41576      0.029687652    0.0013565505 
   2410000   984.14051      1835.3491      2819.4897      298.17027      0.00041424765  0.0013565505 
   2420000   966.44594      1858.8101      2825.2561      301.98173      0.047264524    0.0013565505 
   2430000   913.80639      1854.2522      2768.0586      301.24125      0.026681257    0.0013565505 
   2440000   1000.105       1849.9842      2850.0892      300.54788     -0.010592892    0.0013565505 
   2450000   945.1938       1828.3071      2773.5009      297.02622     -0.024701208    0.0013565505 
   2460000   933.52814      1822.6517      2756.1798      296.10744      0.058997212    0.0013565505 
   2470000   1022.1561      1877.0609      2899.217       304.94674      0.0040933373   0.0013565505 
   2480000   993.34054      1841.2687      2834.6092      299.13195      0.008217486    0.0013565505 
   2490000   999.9897       1839.6809      2839.6706      298.874        0.021754086    0.0013565505 
   2500000   940.43666      1859.7443      2800.1809      302.13349     -0.0085329994   0.0013565505 
   2510000   925.84437      1850.7911      2776.6354      300.67896      0.034930099    0.0013565505 
   2520000   970.30989      1849.8312      2820.1411      300.52302      0.025062098    0.0013565505 
   2530000   946.41634      1869.0065      2815.4229      303.63824      0.029336435    0.0013565505 
   2540000   975.86919      1801.5322      2777.4014      292.67637      0.02424491     0.0013565505 
   2550000   978.65034      1823.0034      2801.6538      296.16459      0.015121621    0.0013565505 
   2560000   968.26154      1862.2681      2830.5296      302.54351      0.0067070541   0.0013565505 
   2570000   938.8171       1839.0131      2777.8302      298.76551     -0.00053310056  0.0013565505 
   2580000   1006.4899      1853.9424      2860.4323      301.19093      0.002076523    0.0013565505 
   2590000   912.69908      1838.9185      2751.6176      298.75014      0.053800663    0.0013565505 
   2600000   959.1972       1851.5738      2810.771       300.80612     -0.02942931     0.0013565505 
   2610000   922.66512      1843.7038      2766.3689      299.52756      0.061259158    0.0013565505 
   2620000   971.75994      1879.7961      2851.556       305.3911       0.0043609776   0.0013565505 
   2630000   988.35         1819.4251      2807.7751      295.58325     -0.019922045    0.0013565505 
   2640000   960.86273      1835.5049      2796.3676      298.19557      0.049167731    0.0013565505 
   2650000   902.65581      1903.7381      2806.394       309.28072      0.044626778    0.0013565505 
   2660000   997.62647      1864.0082      2861.6346      302.8262      -0.0022942246   0.0013565505 
   2670000   993.46097      1817.4779      2810.9388      295.26691      0.043660539    0.0013565505 
   2680000   1009.1257      1884.9536      2894.0793      306.22899      0.017234489    0.0013565505 
   2690000   963.93988      1865.7636      2829.7034      303.11139      0.020120716    0.0013565505 
   2700000   1009.3851      1834.732       2844.1172      298.07001     -0.010993966    0.0013565505 
   2710000   972.64292      1857.0759      2829.7188      301.69999     -0.0050739936   0.0013565505 
   2720000   932.36471      1847.1653      2779.53        300.08992      0.021705781    0.0013565505 
   2730000   1015.8793      1850.4896      2866.3689      300.62998     -0.01041435     0.0013565505 
   2740000   943.64286      1868.8377      2812.4806      303.61081      0.013922754    0.0013565505 
   2750000   966.28666      1847.2106      2813.4972      300.09727     -0.038472055    0.0013565505 
   2760000   959.36405      1818.0577      2777.4218      295.36111     -0.00062428977  0.0013565505 
   2770000   920.31509      1872.9108      2793.2259      304.27253     -0.017918849    0.0013565505 
   2780000   970.81985      1857.3781      2828.1979      301.74908      0.030089155    0.0013565505 
   2790000   976.82953      1890.9373      2867.7668      307.20111      0.039294803    0.0013565505 
   2800000   988.91984      1844.8272      2833.7471      299.71007      0.023458781    0.0013565505 
   2810000   943.77779      1834.0448      2777.8226      297.95837      0.017399909    0.0013565505 
   2820000   938.37836      1840.7288      2779.1071      299.04424      0.039444944    0.0013565505 
   2830000   948.06346      1797.1787      2745.2421      291.9691       0.038234014    0.0013565505 
   2840000   1024.9607      1818.8115      2843.7721      295.48356      0.017926101    0.0013565505 
   2850000   1017.7162      1852.7447      2870.4609      300.99635     -0.021958314    0.0013565505 
   2860000   959.98421      1911.5183      2871.5026      310.54469      0.016848196    0.0013565505 
   2870000   963.69898      1850.0936      2813.7926      300.56564      0.0047078182   0.0013565505 
   2880000   987.93199      1857.5062      2845.4382      301.7699      -0.018385269    0.0013565505 
   2890000   944.2339       1843.5265      2787.7604      299.49876      0.0095794545   0.0013565505 
   2900000   992.95652      1867.4939      2860.4505      303.3925       0.038335523    0.0013565505 
   2910000   931.11154      1855.5086      2786.6201      301.44536      0.017017779    0.0013565505 
   2920000   958.62428      1888.5078      2847.1321      306.80641     -0.034342444    0.0013565505 
   2930000   983.54868      1802.7301      2786.2788      292.87099     -0.0054505825   0.0013565505 
   2940000   998.53587      1853.6111      2852.147       301.13711      0.0049903525   0.0013565505 
   2950000   995.0099       1882.6415      2877.6514      305.85337      0.018785041    0.0013565505 
   2960000   1028.411       1856.8694      2885.2804      301.66645     -0.0061413258   0.0013565505 
   2970000   993.39855      1921.4187      2914.8173      312.15311      0.070936852    0.0013565505 
   2980000   974.30025      1780.6563      2754.9566      289.28489      0.02863743     0.0013565505 
   2990000   976.412        1827.8974      2804.3094      296.95966      0.028582435    0.0013565505 
   3000000   966.12856      1867.066       2833.1945      303.32297      0.009887669    0.0013565505 
   3010000   1005.8188      1811.9612      2817.78        294.37067      0.011476226    0.0013565505 
   3020000   977.13063      1908.1716      2885.3022      310.00098      0.036241441    0.0013565505 
   3030000   942.80082      1815.3524      2758.1532      294.9216       0.012204134    0.0013565505 
   3040000   972.88274      1821.2602      2794.1429      295.88138     -0.0067592129   0.0013565505 
   3050000   1001.4654      1833.3827      2834.8481      297.8508       0.0078598156   0.0013565505 
   3060000   971.11915      1889.9079      2861.0271      307.03387      0.039672228    0.0013565505 
   3070000   980.47115      1849.0322      2829.5033      300.39321      0.0084708715   0.0013565505 
   3080000   981.04165      1878.452       2859.4936      305.17274      0.0073053372   0.0013565505 
   3090000   993.56786      1842.7514      2836.3193      299.37284      0.013670857    0.0013565505 
   3100000   988.76949      1887.4575      2876.227       306.63577      0.0034859861   0.0013565505 
   3110000   1014.8195      1827.4822      2842.3017      296.89221      0.016996066    0.0013565505 
   3120000   981.54973      1800.4335      2781.9832      292.49788     -0.04555706     0.0013565505 
   3130000   938.74042      1863.791       2802.5314      302.79093      0.0068668023   0.0013565505 
   3140000   1007.5222      1873.6262      2881.1484      304.38875      0.015418934    0.0013565505 
   3150000   992.68592      1878.9546      2871.6405      305.25439      0.006180679    0.0013565505 
   3160000   988.28626      1839.152       2827.4382      298.78808      0.027192486    0.0013565505 
   3170000   943.23717      1871.1639      2814.401       303.98872      0.056904159    0.0013565505 
   3180000   951.03375      1888.9447      2839.9785      306.87739      0.024071762    0.0013565505 
   3190000   968.57051      1854.6693      2823.2398      301.30901     -0.0029338606   0.0013565505 
   3200000   999.48025      1887.1443      2886.6245      306.58489     -0.0022030525   0.0013565505 
   3210000   980.26084      1921.2835      2901.5444      312.13114      0.0036721318   0.0013565505 
   3220000   995.78542      1801.2014      2796.9868      292.62263      0.026367067    0.0013565505 
   3230000   995.77319      1780.6667      2776.4399      289.28657      0.0025364628   0.0013565505 
   3240000   973.83003      1847.1586      2820.9887      300.08883     -0.0011279315   0.0013565505 
   3250000   1002.0657      1819.569       2821.6346      295.60662      0.027079032    0.0013565505 
   3260000   973.4964       1863.7599      2837.2563      302.78587      0.019628749    0.0013565505 
   3270000   951.9447       1823.2947      2775.2394      296.21191      0.022077976    0.0013565505 
   3280000   958.45018      1866.4154      2824.8656      303.21728      0.0042234255   0.0013565505 
   3290000   952.53332      1816.6759      2769.2093      295.13663      0.0077807498   0.0013565505 
   3300000   1001.455       1835.4162      2836.8712      298.18116      0.026796403    0.0013565505 
   3310000   957.26367      1809.0912      2766.3548      293.90441      0.012610178    0.0013565505 
   3320000   955.89767      1791.1839      2747.0815      290.99519      0.022042539    0.0013565505 
   3330000   999.78744      1795.9208      2795.7082      291.76474      0.01603766     0.0013565505 
   3340000   984.59103      1886.6889      2871.2799      306.51091      0.031002568    0.0013565505 
   3350000   949.34562      1798.14        2747.4856      292.12528      0.020526461    0.0013565505 
   3360000   1022.4589      1876.4104      2898.8693      304.84106     -0.012718323    0.0013565505 
   3370000   1014.2615      1835.7505      2850.0119      298.23547      0.012200111    0.0013565505 
   3380000   976.50755      1878.4341      2854.9416      305.16984      0.023015087    0.0013565505 
   3390000   969.61916      1859.6365      2829.2557      302.11599     -0.016871565    0.0013565505 
   3400000   1012.7038      1837.2447      2849.9486      298.47823     -0.0054882409   0.0013565505 
   3410000   1017.0017      1839.6967      2856.6984      298.87658     -0.035288996    0.0013565505 
   3420000   953.1437       1856.7954      2809.9391      301.65442      0.020511426    0.0013565505 
   3430000   994.53825      1832.8685      2827.4067      297.76726      0.01015136     0.0013565505 
   3440000   1040.17        1884.9306      2925.1006      306.22526      0.03576603     0.0013565505 
   3450000   971.15534      1850.1967      2821.352       300.5824       0.053264288    0.0013565505 
   3460000   967.13817      1842.9546      2810.0928      299.40585      0.0087791288   0.0013565505 
   3470000   1002.2623      1891.9112      2894.1736      307.35933      0.01167988     0.0013565505 
   3480000   994.72259      1873.1054      2867.828       304.30414      0.0027275046   0.0013565505 
   3490000   966.19588      1834.4666      2800.6625      298.0269      -0.0020153623   0.0013565505 
   3500000   951.02814      1844.5281      2795.5563      299.66149      0.017535778    0.0013565505 
   3510000   1015.4417      1875.9592      2891.401       304.76777      0.016293121    0.0013565505 
   3520000   1020.9157      1881.4828      2902.3985      305.66513     -0.010112109    0.0013565505 
   3530000   1017.9778      1899.4681      2917.4458      308.58701      0.029341458    0.0013565505 
   3540000   980.0019       1858.2919      2838.2938      301.89755     -0.0034490049   0.0013565505 
   3550000   975.75451      1818.2024      2793.9569      295.38461     -0.0049032458   0.0013565505 
   3560000   1005.2762      1856.8367      2862.1129      301.66113      0.0019887776   0.0013565505 
   3570000   952.15241      1842.1138      2794.2662      299.26925      0.011218087    0.0013565505 
   3580000   978.58855      1860.6383      2839.2268      302.27874      0.012230326    0.0013565505 
   3590000   1017.9117      1885.5064      2903.418       306.3188       0.019888583    0.0013565505 
   3600000   1007.8672      1810.329       2818.1962      294.10551      0.028034873    0.0013565505 
   3610000   1036.5769      1801.2031      2837.7801      292.62292     -0.026992658    0.0013565505 
   3620000   990.21223      1827.8346      2818.0468      296.94945     -0.028411973    0.0013565505 
   3630000   949.478        1821.816       2771.294       295.97167      0.018154831    0.0013565505 
   3640000   964.76346      1857.5499      2822.3133      301.77699      0.0026141408   0.0013565505 
   3650000   981.34475      1824.2513      2805.5961      296.36732      0.0021194569   0.0013565505 
   3660000   961.67138      1813.1919      2774.8633      294.57061     -0.024752923    0.0013565505 
   3670000   984.99396      1876.278       2861.2719      304.81956      0.0050787663   0.0013565505 
   3680000   942.32151      1827.0835      2769.405       296.82743     -0.0059159363   0.0013565505 
   3690000   953.1415       1806.8559      2759.9974      293.54127     -0.03920373     0.0013565505 
   3700000   1012.2739      1880.7128      2892.9867      305.54004      0.01695682     0.0013565505 
   3710000   1013.3968      1845.0001      2858.3969      299.73816      0.057187358    0.0013565505 
   3720000   963.91864      1849.0843      2813.0029      300.40167      0.025250532    0.0013565505 
   3730000   999.03572      1854.7266      2853.7623      301.31832      0.0056651006   0.0013565505 
   3740000   962.48515      1781.7418      2744.2269      289.46123      0.0036104347   0.0013565505 
   3750000   977.51909      1859.8764      2837.3955      302.15496      0.034195941    0.0013565505 
   3760000   939.75948      1826.0569      2765.8164      296.66066     -0.028211356    0.0013565505 
   3770000   931.90448      1868.1252      2800.0296      303.49505      0.0016290076   0.0013565505 
   3780000   969.10094      1920.432       2889.5329      311.9928       0.017318352    0.0013565505 
   3790000   1004.8357      1874.1302      2878.966       304.47063      0.015110871    0.0013565505 
   3800000   930.2015       1852.6925      2782.894       300.98787      0.014952968    0.0013565505 
   3810000   920.5902       1808.7046      2729.2948      293.84161      0.0068677383   0.0013565505 
   3820000   979.12057      1770.7174      2749.838       287.67022     -0.0053121375   0.0013565505 
   3830000   991.72675      1823.6363      2815.363       296.2674       0.0039578689   0.0013565505 
   3840000   999.38268      1783.5213      2782.904       289.75033      0.023583058    0.0013565505 
   3850000   1007.7877      1827.4474      2835.2351      296.88655     -0.030091018    0.0013565505 
   3860000   996.19085      1824.2629      2820.4537      296.3692      -0.0012335555   0.0013565505 
   3870000   956.27221      1851.4431      2807.7153      300.78489      0.001059513    0.0013565505 
   3880000   939.36091      1834.8222      2774.1831      298.08466      0.018565086    0.0013565505 
   3890000   980.83738      1868.2797      2849.1171      303.52016      0.032366313    0.0013565505 
   3900000   921.81409      1799.9906      2721.8047      292.42593      0.0130535      0.0013565505 
   3910000   985.62913      1917.5209      2903.1501      311.51987      0.018462928    0.0013565505 
   3920000   956.37985      1860.1039      2816.4838      302.19192      0.00023122144  0.0013565505 
   3930000   949.60078      1903.6464      2853.2472      309.26582     -0.018733       0.0013565505 
   3940000   1000.4454      1863.7915      2864.2368      302.791       -0.0056646541   0.0013565505 
   3950000   979.44217      1906.8974      2886.3396      309.79398      0.015169216    0.0013565505 
   3960000   937.2719       1849.1481      2786.42        300.41204     -0.0043772977   0.0013565505 
   3970000   964.55567      1806.31        2770.8656      293.45257     -0.021646155    0.0013565505 
   3980000   945.75713      1851.9551      2797.7122      300.86806      0.012645428    0.0013565505 
   3990000   968.95889      1831.058       2800.0169      297.47313      0.021590498    0.0013565505 
   4000000   934.64127      1886.3113      2820.9526      306.44957      0.027723319    0.0013565505 
   4010000   939.68506      1868.5572      2808.2423      303.56524      0.02955313     0.0013565505 
   4020000   994.42858      1789.1622      2783.5908      290.66675      0.037965308    0.0013565505 
   4030000   959.22177      1821.6778      2780.8996      295.94923      0.0078803125   0.0013565505 
   4040000   954.34952      1859.4389      2813.7884      302.08388      0.031852648    0.0013565505 
   4050000   948.28511      1871.3602      2819.6453      304.02062      0.036801614    0.0013565505 
   4060000   984.36126      1842.466       2826.8272      299.32647      0.016792529    0.0013565505 
   4070000   959.16567      1899.3441      2858.5098      308.56687      0.047621222    0.0013565505 
   4080000   941.40082      1872.0299      2813.4307      304.12941      0.020180019    0.0013565505 
   4090000   925.73749      1907.4035      2833.141       309.8762       0.027968054    0.0013565505 
   4100000   968.96697      1870.8469      2839.8139      303.93722      0.0078940842   0.0013565505 
   4110000   929.01918      1854.4602      2783.4793      301.27504      0.028613992    0.0013565505 
   4120000   933.03233      1853.3401      2786.3724      301.09307      0.021942146    0.0013565505 
   4130000   985.57141      1883.5467      2869.1181      306.00043      0.0049390822   0.0013565505 
   4140000   974.26697      1873.2965      2847.5634      304.33518      0.017720095    0.0013565505 
   4150000   918.60874      1890.1063      2808.715       307.06609     -0.030460308    0.0013565505 
   4160000   998.93249      1829.7338      2828.6663      297.258       -0.023031799    0.0013565505 
   4170000   941.09551      1830.1037      2771.1992      297.3181       0.0020544319   0.0013565505 
   4180000   980.66016      1894.3913      2875.0515      307.76224      0.01010368     0.0013565505 
   4190000   974.14195      1871.6483      2845.7903      304.06742      0.033431521    0.0013565505 
   4200000   924.84764      1807.2369      2732.0845      293.60316      0.022880373    0.0013565505 
   4210000   985.45699      1836.0316      2821.4886      298.28115      0.017307443    0.0013565505 
   4220000   975.92852      1844.2949      2820.2235      299.6236      -0.028323924    0.0013565505 
   4230000   967.74518      1893.797       2861.5422      307.66569     -0.01511619     0.0013565505 
   4240000   1002.23        1789.2271      2791.4571      290.67729      0.025811667    0.0013565505 
   4250000   971.17428      1869.6431      2840.8174      303.74165      0.027952687    0.0013565505 
   4260000   992.9027       1880.2386      2873.1413      305.46299      0.040252911    0.0013565505 
   4270000   988.06048      1886.0024      2874.0628      306.39938      0.02992923     0.0013565505 
   4280000   975.75962      1906.2756      2882.0352      309.69296      0.0030581422   0.0013565505 
   4290000   994.13423      1851.5773      2845.7115      300.80669      0.017351221    0.0013565505 
   4300000   992.74662      1834.7392      2827.4858      298.07117      0.0054176164   0.0013565505 
   4310000   976.29183      1861.708       2837.9999      302.45253      0.014857475    0.0013565505 
   4320000   983.39911      1855.4093      2838.8084      301.42923     -0.027927592    0.0013565505 
   4330000   984.85607      1813.5613      2798.4174      294.63063     -0.0014696171   0.0013565505 
   4340000   994.59573      1877.5047      2872.1004      305.01884      0.022862184    0.0013565505 
   4350000   1022.0193      1859.84        2881.8593      302.14905      0.0081015347   0.0013565505 
   4360000   1022.0151      1898.38        2920.3951      308.41025      0.013402458    0.0013565505 
   4370000   968.63477      1855.9692      2824.604       301.5202       0.021807072    0.0013565505 
   4380000   975.33487      1817.011       2792.3459      295.19106      0.035684796    0.0013565505 
   4390000   1016.4616      1902.7593      2919.2209      309.1217       0.024308986    0.0013565505 
   4400000   995.54258      1821.316       2816.8586      295.89045     -0.018460976    0.0013565505 
   4410000   1015.1898      1870.7532      2885.943       303.92201      0.021359699    0.0013565505 
   4420000   1012.4161      1870.527       2882.9431      303.88525      0.034685061    0.0013565505 
   4430000   976.51771      1839.2515      2815.7692      298.80424      0.024919748    0.0013565505 
   4440000   954.51789      1839.4883      2794.0062      298.84272     -0.0070829234   0.0013565505 
   4450000   970.93485      1849.3415      2820.2764      300.44347     -0.00061527333  0.0013565505 
   4460000   963.36434      1863.4642      2826.8285      302.73783      0.037022269    0.0013565505 
   4470000   957.62402      1842.1525      2799.7766      299.27554     -0.011528903    0.0013565505 
   4480000   979.24597      1870.6793      2849.9252      303.90999      0.035282443    0.0013565505 
   4490000   973.05163      1860.7432      2833.7948      302.29577     -0.0082768672   0.0013565505 
   4500000   999.10571      1827.564       2826.6697      296.90549     -0.030678566    0.0013565505 
   4510000   950.27089      1819.8918      2770.1627      295.65907      0.0057557978   0.0013565505 
   4520000   1014.2221      1858.6202      2872.8423      301.95087      0.011337584    0.0013565505 
   4530000   990.07668      1816.3419      2806.4185      295.08235      0.0095484338   0.0013565505 
   4540000   943.26747      1890.8338      2834.1013      307.18429     -0.0046187641   0.0013565505 
   4550000   940.48297      1799.5551      2740.0381      292.35518      0.032151502    0.0013565505 
   4560000   980.34706      1850.7334      2831.0804      300.66958      0.019962024    0.0013565505 
   4570000   955.54374      1834.2224      2789.7661      297.98721     -0.0021694564   0.0013565505 
   4580000   980.11938      1842.4888      2822.6082      299.33017     -0.031681512    0.0013565505 
   4590000   987.95086      1848.9091      2836.8599      300.37321     -0.013059967    0.0013565505 
   4600000   950.17678      1898.1292      2848.306       308.3695       0.00043971055  0.0013565505 
   4610000   993.18533      1900.7675      2893.9528      308.79812      0.058621211    0.0013565505 
   4620000   1004.0685      1841.2271      2845.2955      299.12519     -0.0038714123   0.0013565505 
   4630000   988.68412      1854.1419      2842.826       301.22333      0.034680649    0.0013565505 
   4640000   980.54228      1844.8387      2825.381       299.71194     -0.0032919265   0.0013565505 
   4650000   933.92934      1820.8391      2754.7685      295.81297      0.023974441    0.0013565505 
   4660000   967.96832      1874.246       2842.2143      304.48944     -0.00084862792  0.0013565505 
   4670000   968.72242      1852.418       2821.1404      300.94327      0.011663223    0.0013565505 
   4680000   1027.8716      1844.6449      2872.5165      299.68045      0.033487948    0.0013565505 
   4690000   968.82126      1884.3321      2853.1534      306.12803      0.014621179    0.0013565505 
   4700000   988.26684      1874.2446      2862.5115      304.48922      0.00042628838  0.0013565505 
   4710000   990.77499      1833.678       2824.453       297.89877      0.035574729    0.0013565505 
   4720000   996.37684      1864.5865      2860.9633      302.92015      0.004041358    0.0013565505 
   4730000   941.51975      1845.4671      2786.9869      299.81403      0.018511638    0.0013565505 
   4740000   958.36072      1879.8134      2838.1742      305.39393     -0.012050848    0.0013565505 
   4750000   1001.8984      1902.1866      2904.0851      309.02867      0.067043787    0.0013565505 
   4760000   968.88016      1841.0027      2809.8829      299.08875      0.04531989     0.0013565505 
   4770000   980.58746      1857.5934      2838.1808      301.78406     -0.031210531    0.0013565505 
   4780000   1023.8299      1867.3295      2891.1593      303.36578     -0.019176062    0.0013565505 
   4790000   1021.3144      1868.7593      2890.0736      303.59806      0.054937789    0.0013565505 
   4800000   980.72589      1924.7385      2905.4644      312.69244      0.038362012    0.0013565505 
   4810000   921.3546       1836.2121      2757.5667      298.31046      0.0045948149   0.0013565505 
   4820000   1036.3019      1817.5127      2853.8145      295.27256      0.027880357    0.0013565505 
   4830000   971.14352      1842.4818      2813.6253      299.32904      0.0099574999   0.0013565505 
   4840000   967.01299      1814.2037      2781.2167      294.73499      0.00050252152  0.0013565505 
   4850000   1017.4624      1826.1081      2843.5706      296.66898     -0.0096671559   0.0013565505 
   4860000   960.34834      1807.3156      2767.664       293.61595      0.0066160483   0.0013565505 
   4870000   967.70687      1894.2407      2861.9476      307.73778     -0.013421058    0.0013565505 
   4880000   966.76728      1885.9911      2852.7584      306.39754      0.041589003    0.0013565505 
   4890000   978.02822      1841.949       2819.9772      299.24247      0.018176448    0.0013565505 
   4900000   957.2422       1827.6767      2784.9189      296.9238       0.0048794372   0.0013565505 
   4910000   972.7372       1859.0602      2831.7974      302.02237     -0.051391851    0.0013565505 
   4920000   992.76154      1900.8352      2893.5967      308.80911      0.026159559    0.0013565505 
   4930000   951.08032      1800.6799      2751.7602      292.53792      0.0508327      0.0013565505 
   4940000   911.67751      1875.1583      2786.8358      304.63765      0.030049638    0.0013565505 
   4950000   934.22251      1875.2019      2809.4244      304.64474      0.039626881    0.0013565505 
   4960000   935.31126      1888.1506      2823.4619      306.74838      0.055534255    0.0013565505 
   4970000   986.27748      1831.2682      2817.5457      297.50728     -0.021313174    0.0013565505 
   4980000   945.37174      1855.8215      2801.1932      301.4962      -0.0007568544   0.0013565505 
   4990000   967.38822      1856.5637      2823.9519      301.61678      0.02107229     0.0013565505 
   5000000   967.52492      1836.314       2803.8389      298.32702      0.0082841112   0.0013565505 
Loop time of 229.772 on 32 procs for 5000000 steps with 2066 atoms

Performance: 18801.259 ns/day, 0.001 hours/ns, 21760.717 timesteps/s, 44.958 Matom-step/s
99.3% CPU use with 32 MPI tasks x 1 OpenMP threads

MPI task timing breakdown:
Section |  min time  |  avg time  |  max time  |%varavg| %total
---------------------------------------------------------------
Pair    | 32.427     | 42.479     | 120.75     | 237.6 | 18.49
Bond    | 5.6595     | 11.497     | 20.814     | 108.1 |  5.00
Neigh   | 0.6079     | 0.6201     | 0.63503    |   0.9 |  0.27
Comm    | 74.287     | 160.98     | 180.79     | 145.1 | 70.06
Output  | 0.05101    | 0.06661    | 0.16099    |   7.2 |  0.03
Modify  | 3.9987     | 7.2417     | 11.529     |  73.0 |  3.15
Other   |            | 6.888      |            |       |  3.00

Nlocal:        64.5625 ave         142 max          27 min
Histogram: 4 5 5 8 5 2 2 0 0 1
Nghost:        55.5625 ave         102 max          26 min
Histogram: 4 5 4 6 4 2 2 1 3 1
Neighs:          126.5 ave         743 max          39 min
Histogram: 18 11 2 0 0 0 0 0 0 1

Total # of neighbors = 4048
Ave neighs/atom = 1.9593417
Ave special neighs/atom = 4.8325266
Neighbor list builds = 11912
Dangerous builds = 0

# --- Production (1 µs) -------------------------------------------
unfix favg
fix favg all ave/time 10000 10 100000 v_vpe v_vke v_vT v_vE v_vRg     file outputs/thermo_${tag}_production.dat
fix favg all ave/time 10000 10 100000 v_vpe v_vke v_vT v_vE v_vRg     file outputs/thermo_7LYJ_aso_n200_production.dat

restart 10000000 outputs/backup_${tag}.*.restart
restart 10000000 outputs/backup_7LYJ_aso_n200.*.restart
run 100000000
Generated 0 of 6 mixed pair_coeff terms from geometric mixing rule
Per MPI rank memory allocation (min/avg/max) = 8.612 | 8.764 | 8.883 Mbytes
   Step         PotEng         KinEng         TotEng          Temp          Press         Density    
   5000000   967.52492      1836.314       2803.8389      298.32702      0.0082841112   0.0013565505 
   5010000   989.43573      1817.2416      2806.6774      295.22853      0.020428424    0.0013565505 
   5020000   970.96182      1872.6072      2843.569       304.22319      0.0023498829   0.0013565505 
   5030000   986.72652      1815.9915      2802.7181      295.02544      0.024715637    0.0013565505 
   5040000   941.01434      1834.1894      2775.2038      297.98186      0.0009341335   0.0013565505 
   5050000   954.3382       1782.5769      2736.9151      289.59691      0.043151026    0.0013565505 
   5060000   972.15723      1845.4613      2817.6186      299.81309     -0.010179395    0.0013565505 
   5070000   975.61414      1895.2086      2870.8227      307.89502      0.032164983    0.0013565505 
   5080000   1000.2597      1865.5818      2865.8415      303.08186     -0.0033605651   0.0013565505 
   5090000   958.74301      1810.5291      2769.2721      294.13801     -0.019042373    0.0013565505 
   5100000   978.30155      1896.9558      2875.2573      308.17887      0.0084764711   0.0013565505 
   5110000   1014.7775      1877.8636      2892.6411      305.07715      0.0077501957   0.0013565505 
   5120000   1010.6381      1871.4603      2882.0984      304.03687      0.05370268     0.0013565505 
   5130000   970.67359      1925.4978      2896.1713      312.81578      0.0076579784   0.0013565505 
   5140000   1018.254       1829.3248      2847.5788      297.19156      0.029167988    0.0013565505 
   5150000   962.89722      1850.3177      2813.2149      300.60205     -0.009081572    0.0013565505 
   5160000   997.43625      1857.777       2855.2133      301.8139      -0.0042226133   0.0013565505 
   5170000   996.73181      1906.8625      2903.5943      309.78831     -0.017215649    0.0013565505 
   5180000   948.6242       1854.3654      2802.9896      301.25964      0.0200382      0.0013565505 
   5190000   1001.0358      1814.8933      2815.9291      294.84701      0.0078686807   0.0013565505 
   5200000   967.49256      1888.8632      2856.3557      306.86414     -0.028200323    0.0013565505 
   5210000   947.95176      1871.5067      2819.4585      304.04441      0.025137689    0.0013565505 
   5220000   993.84518      1888.0018      2881.847       306.7242       0.016199269    0.0013565505 
   5230000   940.99772      1860.5553      2801.553       302.26525      0.054820337    0.0013565505 
   5240000   985.5012       1872.1468      2857.648       304.1484      -0.035299989    0.0013565505 
   5250000   1015.1084      1821.5177      2836.626       295.92321      0.00047867682  0.0013565505 
   5260000   1010.3685      1822.6203      2832.9888      296.10234     -0.034460346    0.0013565505 
   5270000   1022.8075      1867.1613      2889.9688      303.33846     -0.0077117033   0.0013565505 
   5280000   981.84414      1834.0389      2815.883       297.9574      -0.012152746    0.0013565505 
   5290000   959.29656      1868.6965      2827.993       303.58786      0.012838781    0.0013565505 
   5300000   995.27092      1847.724       2842.9949      300.18068     -0.00045327463  0.0013565505 
   5310000   967.24803      1855.1552      2822.4032      301.38795     -0.015667731    0.0013565505 
   5320000   1015.6426      1883.0153      2898.6579      305.91409     -0.023647796    0.0013565505 
   5330000   953.99409      1873.7432      2827.7373      304.40775     -0.021978762    0.0013565505 
   5340000   943.94578      1836.2244      2780.1702      298.31247     -0.0089403572   0.0013565505 
   5350000   964.48817      1923.1068      2887.595       312.42735      0.039205101    0.0013565505 
   5360000   961.07771      1898.0006      2859.0783      308.34861      0.022893723    0.0013565505 
   5370000   1003.9362      1847.2359      2851.172       300.10138      0.00059355735  0.0013565505 
   5380000   980.16392      1845.6118      2825.7757      299.83753      0.0048371973   0.0013565505 
   5390000   936.80926      1834.3567      2771.1659      298.00903      0.0076166065   0.0013565505 
   5400000   997.28005      1792.8515      2790.1316      291.26611      0.0091986343   0.0013565505 
   5410000   973.6117       1849.1436      2822.7553      300.41132      0.010779435    0.0013565505 
   5420000   971.553        1839.5574      2811.1104      298.85393      0.020492226    0.0013565505 
   5430000   985.03401      1836.9782      2822.0122      298.43492      0.005668963    0.0013565505 
   5440000   957.8594       1867.5297      2825.3892      303.39832     -0.017252835    0.0013565505 
   5450000   994.62257      1873.0346      2867.6571      304.29263     -0.01216186     0.0013565505 
   5460000   1006.1387      1851.0747      2857.2133      300.72503     -0.040660172    0.0013565505 
   5470000   917.60963      1868.9127      2786.5223      303.62299      0.026159668    0.0013565505 
   5480000   972.20323      1786.9526      2759.1558      290.30778      0.011814788    0.0013565505 
   5490000   961.7552       1837.46        2799.2152      298.5132       0.013452431    0.0013565505 
   5500000   946.94465      1870.9866      2817.9312      303.95992     -0.013930645    0.0013565505 
   5510000   929.55798      1777.8815      2707.4395      288.83409     -0.0074989413   0.0013565505 
   5520000   907.41343      1774.3645      2681.7779      288.26272      0.022892859    0.0013565505 
   5530000   1027.4333      1781.062       2808.4953      289.35079      0.040099067    0.0013565505 
   5540000   964.49475      1817.9566      2782.4514      295.34469     -0.031514968    0.0013565505 
   5550000   993.76364      1794.2355      2787.9991      291.49096      0.0083954488   0.0013565505 
   5560000   964.73676      1819.2177      2783.9544      295.54955      0.0348683      0.0013565505 
   5570000   1025.7342      1868.2074      2893.9416      303.50842     -0.013430014    0.0013565505 
   5580000   983.59606      1841.8016      2825.3976      299.21853      0.0067565092   0.0013565505 
   5590000   963.42116      1896.553       2859.9742      308.11343     -6.6682829e-05  0.0013565505 
   5600000   998.64038      1926.6753      2925.3157      313.00709     -0.012152405    0.0013565505 
   5610000   959.7296       1826.6326      2786.3622      296.75418     -0.0064095868   0.0013565505 
   5620000   1006.3148      1856.132       2862.4468      301.54664     -0.027251995    0.0013565505 
   5630000   986.97915      1874.9473      2861.9265      304.60338     -0.0079469416   0.0013565505 
   5640000   984.89717      1727.2958      2712.193       280.61595     -0.013964934    0.0013565505 
   5650000   990.91693      1826.7569      2817.6738      296.77438      0.019831719    0.0013565505 
   5660000   952.50817      1932.0582      2884.5663      313.88158      0.010471957    0.0013565505 
   5670000   956.55901      1833.8529      2790.4119      297.92719     -0.011678426    0.0013565505 
   5680000   947.12407      1851.0139      2798.1379      300.71515     -0.0058391727   0.0013565505 
   5690000   977.47719      1857.0982      2834.5753      301.70361     -0.015429297    0.0013565505 
   5700000   941.97661      1826.0465      2768.0231      296.65896     -0.0088359603   0.0013565505 
   5710000   963.41531      1889.3982      2852.8135      306.95107     -0.011532701    0.0013565505 
   5720000   956.56011      1794.6619      2751.222       291.56024      0.032766577    0.0013565505 
   5730000   978.83805      1876.6986      2855.5367      304.88789     -0.014762779    0.0013565505 
   5740000   1000.7679      1785.4062      2786.1742      290.05656      0.0070645163   0.0013565505 
   5750000   964.4106       1885.9483      2850.3589      306.3906       0.054513484    0.0013565505 
   5760000   946.38737      1865.0686      2811.456       302.99849     -0.021683365    0.0013565505 
   5770000   947.4934       1875.8992      2823.3926      304.75801     -0.00055182825  0.0013565505 
   5780000   1012.8043      1865.6799      2878.4842      303.09779      0.044383397    0.0013565505 
   5790000   955.83762      1908.6254      2864.463       310.0747       0.010997982    0.0013565505 
   5800000   933.03396      1896.1534      2829.1874      308.04851     -0.011375965    0.0013565505 
   5810000   962.81141      1799.1578      2761.9692      292.29063      0.005196461    0.0013565505 
   5820000   969.22452      1817.22        2786.4446      295.22502     -0.019521736    0.0013565505 
   5830000   979.60022      1868.001       2847.6012      303.47488     -0.021871885    0.0013565505 
   5840000   1008.9096      1859.4901      2868.3996      302.09219      0.022033885    0.0013565505 
   5850000   998.33581      1829.512       2827.8478      297.22196     -0.019605837    0.0013565505 
   5860000   1001.7255      1842.8202      2844.5457      299.38401      0.0099708425   0.0013565505 
   5870000   993.58723      1837.2303      2830.8176      298.47589      0.027051687    0.0013565505 
   5880000   993.6516       1856.5574      2850.209       301.61576      0.025026118    0.0013565505 
   5890000   993.86549      1876.1491      2870.0146      304.79862      0.028689714    0.0013565505 
   5900000   948.31488      1883.5047      2831.8195      305.9936       0.0052436408   0.0013565505 
   5910000   966.79218      1862.6355      2829.4277      302.6032       0.033624544    0.0013565505 
   5920000   956.81483      1911.1131      2867.9279      310.47885     -0.013426035    0.0013565505 
   5930000   966.53575      1831.603       2798.1388      297.56168      0.018698983    0.0013565505 
   5940000   968.95635      1816.1404      2785.0967      295.04962      0.002386468    0.0013565505 
   5950000   961.24766      1824.1777      2785.4254      296.35536      0.035133761    0.0013565505 
   5960000   991.30983      1806.8264      2798.1362      293.53647      0.024081665    0.0013565505 
   5970000   969.94883      1797.6882      2767.637       292.05188     -0.034423101    0.0013565505 
   5980000   913.80225      1830.6233      2744.4256      297.40252     -0.015381082    0.0013565505 
   5990000   930.32833      1867.6481      2797.9764      303.41754      0.034216866    0.0013565505 
   6000000   947.17194      1813.6464      2760.8183      294.64445     -0.0013753324   0.0013565505 
   6010000   1012.4166      1844.4322      2856.8487      299.6459      -0.0034661371   0.0013565505 
   6020000   992.66324      1887.9524      2880.6156      306.71618      0.012749984    0.0013565505 
   6030000   981.68516      1841.2223      2822.9075      299.12442      0.0073873258   0.0013565505 
   6040000   935.19354      1897.1788      2832.3724      308.2151       0.011497139    0.0013565505 
   6050000   985.46565      1818.5907      2804.0564      295.4477      -0.0071011234   0.0013565505 
   6060000   1003.5947      1829.4268      2833.0215      297.20813      0.049833052    0.0013565505 
   6070000   967.43121      1820.7239      2788.1551      295.79425      0.022348034    0.0013565505 
   6080000   1002.8505      1852.3329      2855.1835      300.92945     -0.017576539    0.0013565505 
   6090000   977.19899      1799.731       2776.93        292.38375      0.0089966833   0.0013565505 
   6100000   959.77215      1862.1378      2821.91        302.52235     -0.006548207    0.0013565505 
   6110000   953.69432      1907.2355      2860.9298      309.8489       0.042089013    0.0013565505 
   6120000   982.03689      1858.2432      2840.2801      301.88963     -0.002754819    0.0013565505 
   6130000   1010.502       1851.8412      2862.3432      300.84956     -0.018633473    0.0013565505 
   6140000   976.29248      1835.1442      2811.4367      298.13698      0.0125192      0.0013565505 
   6150000   965.60862      1786.0215      2751.6302      290.15652     -0.039370784    0.0013565505 
   6160000   1015.1461      1837.246       2852.3921      298.47844      0.0065640472   0.0013565505 
   6170000   998.68037      1834.3542      2833.0346      298.00863      0.00024378657  0.0013565505 
   6180000   952.76836      1817.7891      2770.5575      295.31748      0.033352667    0.0013565505 
   6190000   986.07051      1855.2562      2841.3267      301.40437     -0.02046425     0.0013565505 
   6200000   1001.9136      1950.754       2952.6675      316.9189       0.010897307    0.0013565505 
   6210000   975.27276      1820.3588      2795.6316      295.73494     -0.0022558677   0.0013565505 
   6220000   959.83853      1827.1976      2787.0361      296.84597     -0.024355092    0.0013565505 
   6230000   945.70061      1797.8034      2743.504       292.0706      -0.016021793    0.0013565505 
   6240000   946.42063      1896.7203      2843.1409      308.14061     -0.0098202718   0.0013565505 
   6250000   958.59025      1908.1204      2866.7106      309.99266     -0.010661059    0.0013565505 
   6260000   1005.0444      1891.4045      2896.4489      307.27701      0.024652986    0.0013565505 
   6270000   987.67629      1872.6327      2860.309       304.22735     -0.0046140706   0.0013565505 
   6280000   968.55218      1830.9053      2799.4575      297.44832      0.034323358    0.0013565505 
   6290000   995.31683      1876.852       2872.1688      304.91281      0.018822258    0.0013565505 
   6300000   969.0862       1870.7431      2839.8293      303.92036      0.032670876    0.0013565505 
   6310000   1007.1771      1806.6404      2813.8175      293.50625      0.015822214    0.0013565505 
   6320000   996.82503      1853.4418      2850.2668      301.1096      -4.0005671e-05  0.0013565505 
   6330000   1014.5155      1851.2873      2865.8028      300.75957      0.001964203    0.0013565505 
   6340000   977.54906      1875.673       2853.2221      304.72127      0.035382952    0.0013565505 
   6350000   946.88796      1803.6121      2750.5001      293.01428     -0.010421667    0.0013565505 
   6360000   1027.2305      1858.618       2885.8486      301.95052     -0.0045160172   0.0013565505 
   6370000   1014.3052      1843.4225      2857.7278      299.48187      0.033108871    0.0013565505 
   6380000   958.92204      1886.3368      2845.2588      306.45371      0.035639044    0.0013565505 
   6390000   976.95949      1835.4597      2812.4192      298.18823      0.03765125     0.0013565505 
   6400000   949.77611      1879.1613      2828.9374      305.28798      0.0086975725   0.0013565505 
   6410000   975.13832      1900.3742      2875.5125      308.73422      0.016155445    0.0013565505 
   6420000   993.6073       1874.7725      2868.3798      304.57497     -0.0017367849   0.0013565505 
   6430000   957.93062      1869.8557      2827.7863      303.77619      0.030036283    0.0013565505 
   6440000   968.79523      1835.09        2803.8853      298.12817     -0.013396051    0.0013565505 
   6450000   962.8383       1892.9254      2855.7637      307.52409      0.021587447    0.0013565505 
   6460000   1002.2009      1912.4158      2914.6167      310.6905       0.019059396    0.0013565505 
   6470000   986.63857      1835.0383      2821.6769      298.11978     -0.021566457    0.0013565505 
   6480000   987.75803      1822.6968      2810.4549      296.11478     -0.0050976693   0.0013565505 
   6490000   952.5264       1835.3939      2787.9203      298.17753      0.052775051    0.0013565505 
   6500000   974.39513      1841.853       2816.2481      299.22689     -0.0045600757   0.0013565505 
   6510000   998.65683      1832.9488      2831.6057      297.78031     -0.0036766965   0.0013565505 
   6520000   934.27272      1924.0522      2858.3249      312.58094      0.010907663    0.0013565505 
   6530000   955.57896      1804.6008      2760.1797      293.17489      0.0012661725   0.0013565505 
   6540000   1011.5148      1847.0137      2858.5285      300.06528      0.0028345513   0.0013565505 
   6550000   983.51521      1783.5275      2767.0427      289.75133      0.013323993    0.0013565505 
   6560000   991.19042      1824.332       2815.5225      296.38043     -0.0032911293   0.0013565505 
   6570000   976.30293      1868.8523      2845.1552      303.61317      0.0055387998   0.0013565505 
   6580000   974.72999      1863.8238      2838.5538      302.79625      0.035491381    0.0013565505 
   6590000   984.76218      1758.6943      2743.4565      285.71695      0.020648877    0.0013565505 
   6600000   961.44184      1899.7374      2861.1792      308.63076      0.040892202    0.0013565505 
   6610000   960.56966      1831.7141      2792.2838      297.57972     -0.046744519    0.0013565505 
   6620000   994.23923      1886.8045      2881.0437      306.52968      0.038092103    0.0013565505 
   6630000   1005.7616      1866.3529      2872.1145      303.20713     -0.039464893    0.0013565505 
   6640000   954.23996      1853.1616      2807.4016      301.06408     -0.022938909    0.0013565505 
   6650000   964.38488      1841.89        2806.2749      299.23289      0.020174266    0.0013565505 
   6660000   978.55578      1823.7149      2802.2707      296.28017     -0.0046899641   0.0013565505 
   6670000   976.09084      1873.5063      2849.5971      304.36926     -0.03037179     0.0013565505 
   6680000   989.96321      1853.072       2843.0352      301.04952      0.0057465898   0.0013565505 
   6690000   974.77515      1810.4876      2785.2628      294.13127      0.02931769     0.0013565505 
   6700000   1002.5962      1921.1083      2923.7045      312.10268      0.046397247    0.0013565505 
   6710000   970.8482       1865.4129      2836.2611      303.05441      0.02629263     0.0013565505 
   6720000   970.54032      1869.5069      2840.0473      303.71953      0.048630721    0.0013565505 
   6730000   992.79269      1864.8486      2857.6413      302.96274      0.0034637184   0.0013565505 
   6740000   989.43227      1830.0289      2819.4612      297.30595      0.0077609441   0.0013565505 
   6750000   980.06763      1863.1212      2843.1889      302.68211      0.02746728     0.0013565505 
   6760000   992.14473      1890.5117      2882.6564      307.13196      0.018356063    0.0013565505 
   6770000   961.33616      1887.4271      2848.7633      306.63084      0.027567902    0.0013565505 
   6780000   999.08633      1795.832       2794.9183      291.75033     -0.015345387    0.0013565505 
   6790000   946.32908      1841.4059      2787.735       299.15424      0.031974265    0.0013565505 
   6800000   982.35989      1917.158       2899.5179      311.46091     -0.022717111    0.0013565505 
   6810000   977.95894      1886.6728      2864.6318      306.5083       0.045049548    0.0013565505 
   6820000   982.97469      1912.8312      2895.8058      310.75797      0.011583352    0.0013565505 
   6830000   953.45008      1840.142       2793.5921      298.94891      0.015938458    0.0013565505 
   6840000   986.08303      1849.4246      2835.5076      300.45696     -0.006243357    0.0013565505 
   6850000   960.8169       1845.6623      2806.4792      299.84574     -0.0072132795   0.0013565505 
   6860000   1027.1621      1862.943       2890.1051      302.65316      0.028326943    0.0013565505 
   6870000   969.76422      1859.6827      2829.4469      302.12349      0.038830739    0.0013565505 
   6880000   988.12104      1812.2714      2800.3924      294.42106      0.036415367    0.0013565505 
   6890000   999.54987      1927.9992      2927.5491      313.22218     -0.0094541356   0.0013565505 
   6900000   976.13834      1851.0121      2827.1504      300.71486      0.0093331341   0.0013565505 
   6910000   984.02423      1844.5755      2828.5997      299.66918      0.014374719    0.0013565505 
   6920000   1001.393       1879.2436      2880.6366      305.30135      0.029872462    0.0013565505 
   6930000   934.43028      1820.105       2754.5353      295.6937       0.037758016    0.0013565505 
   6940000   1008.5635      1836.0498      2844.6133      298.2841      -9.9511294e-05  0.0013565505 
   6950000   926.77278      1839.6828      2766.4556      298.87431      0.0086287435   0.0013565505 
   6960000   950.64793      1840.7195      2791.3674      299.04273      0.0069764934   0.0013565505 
   6970000   923.33206      1858.6337      2781.9657      301.95306      0.036040497    0.0013565505 
   6980000   1020.9986      1871.875       2892.8736      304.10425     -0.064503231    0.0013565505 
   6990000   1021.6243      1904.694       2926.3183      309.43601      0.020936671    0.0013565505 
   7000000   986.51241      1927.1133      2913.6257      313.07825      0.039945219    0.0013565505 
   7010000   978.77059      1791.128       2769.8986      290.98612      0.010711462    0.0013565505 
   7020000   953.16814      1837.5803      2790.7484      298.53273     -0.01426725     0.0013565505 
   7030000   1003.0814      1868.2767      2871.3581      303.51967      0.0057530349   0.0013565505 
   7040000   927.22352      1854.3424      2781.5659      301.2559      -0.0043735795   0.0013565505 
   7050000   953.37087      1818.1764      2771.5472      295.38038      0.033477712    0.0013565505 
   7060000   988.69005      1860.5956      2849.2856      302.2718       0.05309028     0.0013565505 
   7070000   920.7673       1835.5496      2756.3169      298.20283      0.047872552    0.0013565505 
[...]
 103190000   960.38179      1864.0312      2824.413       302.82994     -0.014824069    0.0013565505 
 103200000   972.9489       1823.5876      2796.5366      296.2595      -0.012597304    0.0013565505 
 103210000   944.39278      1839.4493      2783.8421      298.83638      0.062643428    0.0013565505 
 103220000   968.62937      1812.6197      2781.2491      294.47766      0.046461093    0.0013565505 
 103230000   982.8602       1815.6849      2798.5451      294.97562     -0.013855175    0.0013565505 
 103240000   935.01079      1846.5021      2781.5129      299.98217      0.042096659    0.0013565505 
 103250000   985.74115      1781.8254      2767.5665      289.47481      0.0020697707   0.0013565505 
 103260000   920.59509      1888.9512      2809.5463      306.87845      0.012276651    0.0013565505 
 103270000   974.82762      1851.1817      2826.0093      300.74241      0.016917654    0.0013565505 
 103280000   963.07298      1872.4697      2835.5427      304.20087     -0.021128153    0.0013565505 
 103290000   914.16277      1881.1871      2795.3499      305.6171       0.006106794    0.0013565505 
 103300000   993.20904      1890.6585      2883.8675      307.15581     -0.028808111    0.0013565505 
 103310000   928.13562      1827.5789      2755.7145      296.90792      0.036045695    0.0013565505 
 103320000   902.09768      1837.895       2739.9927      298.58387      0.055524886    0.0013565505 
 103330000   958.04663      1831.0003      2789.047       297.46376      0.023377172    0.0013565505 
 103340000   946.15788      1834.8116      2780.9695      298.08294     -0.018856336    0.0013565505 
 103350000   981.82755      1877.2241      2859.0516      304.97326     -0.007319117    0.0013565505 
 103360000   957.47086      1875.5636      2833.0345      304.7035       0.0058970774   0.0013565505 
 103370000   949.52187      1922.1664      2871.6883      312.27457      0.021437405    0.0013565505 
 103380000   916.59893      1855.4732      2772.0722      301.43962      0.0057097717   0.0013565505 
 103390000   898.20449      1764.376       2662.5805      286.63999      0.041408633    0.0013565505 
 103400000   955.70892      1855.3315      2811.0404      301.41659     -0.0063599507   0.0013565505 
 103410000   969.73414      1829.5175      2799.2516      297.22286     -0.0091693933   0.0013565505 
 103420000   983.95305      1803.9123      2787.8654      293.06305     -0.016631115    0.0013565505 
 103430000   985.9263       1864.3248      2850.2511      302.87764      0.036835602    0.0013565505 
 103440000   989.55435      1836.3133      2825.8676      298.3269       0.0021597517   0.0013565505 
 103450000   994.6892       1801.1588      2795.848       292.61572      0.0037023743   0.0013565505 
 103460000   995.93782      1823.4543      2819.3922      296.23784     -0.014899829    0.0013565505 
 103470000   979.41052      1866.3291      2845.7396      303.20326      0.010820092    0.0013565505 
 103480000   957.53589      1831.4573      2788.9932      297.53801      0.023614095    0.0013565505 
 103490000   994.48315      1887.8328      2882.316       306.69675      0.010403092    0.0013565505 
 103500000   960.76046      1819.1245      2779.8849      295.53441      0.027937637    0.0013565505 
 103510000   949.23617      1859.3135      2808.5496      302.0635       0.0072340745   0.0013565505 
 103520000   958.49272      1844.3469      2802.8397      299.63205      0.036396949    0.0013565505 
 103530000   996.79994      1804.0613      2800.8612      293.08725     -0.020825163    0.0013565505 
 103540000   974.78106      1899.1131      2873.8942      308.52934      0.022587752    0.0013565505 
 103550000   940.94109      1849.0766      2790.0177      300.40043      0.0068106407   0.0013565505 
 103560000   897.01484      1825.9708      2722.9857      296.64667      0.036068536    0.0013565505 
 103570000   979.08326      1883.1411      2862.2243      305.93453      0.0061197994   0.0013565505 
 103580000   986.62189      1844.5365      2831.1584      299.66285      0.040928179    0.0013565505 
 103590000   945.67457      1837.0909      2782.7655      298.45324      0.024002485    0.0013565505 
 103600000   964.31564      1801.3916      2765.7073      292.65354      0.0044301338   0.0013565505 
 103610000   996.32764      1886.6529      2882.9805      306.50506      0.02075782     0.0013565505 
 103620000   968.49772      1823.13        2791.6277      296.18515     -0.0028005882   0.0013565505 
 103630000   958.40557      1878.4004      2836.806       305.16436     -0.018770298    0.0013565505 
 103640000   996.92931      1842.6069      2839.5362      299.34936      0.014033861    0.0013565505 
 103650000   976.56552      1835.6541      2812.2196      298.21981     -0.0013513075   0.0013565505 
 103660000   960.97052      1853.1976      2814.1681      301.06992      0.00047532361  0.0013565505 
 103670000   1000.5348      1856.0162      2856.551       301.52782      0.027996285    0.0013565505 
 103680000   941.21291      1836.0418      2777.2547      298.2828       0.018655358    0.0013565505 
 103690000   956.97722      1879.4824      2836.4596      305.34014      0.0099832867   0.0013565505 
 103700000   997.36039      1838.1045      2835.4649      298.6179       0.0060887254   0.0013565505 
 103710000   925.96266      1876.0223      2801.985       304.77802      0.018786981    0.0013565505 
 103720000   940.95759      1887.8709      2828.8285      306.70294     -0.018650845    0.0013565505 
 103730000   918.34581      1853.5697      2771.9155      301.13037      0.024713499    0.0013565505 
 103740000   976.85019      1879.8809      2856.7311      305.40488      0.031025586    0.0013565505 
 103750000   951.87369      1877.0525      2828.9261      304.94538      0.010653188    0.0013565505 
 103760000   959.66532      1864.4742      2824.1395      302.90192      0.015546344    0.0013565505 
 103770000   981.67864      1795.2979      2776.9765      291.66355      0.046834733    0.0013565505 
 103780000   929.84897      1809.0803      2738.9293      293.90264      0.019621503    0.0013565505 
 103790000   965.27102      1878.0191      2843.2901      305.10242      0.015684253    0.0013565505 
 103800000   966.19054      1889.7159      2855.9064      307.00267     -0.017178815    0.0013565505 
 103810000   976.65869      1875.5357      2852.1943      304.69896     -0.018534069    0.0013565505 
 103820000   948.55893      1844.9568      2793.5157      299.73112      0.013763983    0.0013565505 
 103830000   984.30257      1851.9459      2836.2485      300.86658      0.022990012    0.0013565505 
 103840000   966.6211       1858.2551      2824.8762      301.89157      0.01060218     0.0013565505 
 103850000   965.48909      1881.8804      2847.3695      305.72972      0.021927356    0.0013565505 
 103860000   969.7783       1867.9326      2837.7109      303.46377      0.043079902    0.0013565505 
 103870000   1015.6703      1799.3129      2814.9832      292.31583     -0.0081637227   0.0013565505 
 103880000   945.40696      1802.0752      2747.4821      292.76459      0.025796515    0.0013565505 
 103890000   1027.1352      1776.8164      2803.9517      288.66106      0.011055534    0.0013565505 
 103900000   1019.8647      1853.7709      2873.6357      301.16307     -0.003347358    0.0013565505 
 103910000   1013.6714      1890.8344      2904.5058      307.18439      0.017572096    0.0013565505 
 103920000   995.3488       1861.6758      2857.0246      302.44729      0.023548002    0.0013565505 
 103930000   989.24883      1840.9656      2830.2144      299.08272      0.017188545    0.0013565505 
 103940000   980.15541      1889.8361      2869.9915      307.0222       0.010810817    0.0013565505 
 103950000   975.5512       1795.2971      2770.8483      291.66342     -0.017171817    0.0013565505 
 103960000   970.69719      1815.4815      2786.1787      294.94258      0.00029774591  0.0013565505 
 103970000   976.02967      1852.0188      2828.0485      300.87842      0.037292201    0.0013565505 
 103980000   974.10381      1827.1395      2801.2434      296.83654      0.023636733    0.0013565505 
 103990000   933.88576      1823.2806      2757.1663      296.20961      0.010960061    0.0013565505 
 104000000   966.74049      1911.35        2878.0905      310.51734      0.029840475    0.0013565505 
 104010000   1010.1473      1850.4892      2860.6365      300.62991      0.047238186    0.0013565505 
 104020000   959.73525      1791.9631      2751.6983      291.12178     -0.0091088988   0.0013565505 
 104030000   949.48083      1816.6814      2766.1622      295.13751     -0.0041096578   0.0013565505 
 104040000   1005.491       1838.5517      2844.0427      298.69056      0.033124511    0.0013565505 
 104050000   1006.1777      1818.9307      2825.1084      295.50293      0.00015789712  0.0013565505 
 104060000   937.49541      1880.215       2817.7104      305.45916      0.038135231    0.0013565505 
 104070000   951.36818      1801.486       2752.8541      292.66887      0.018353898    0.0013565505 
 104080000   1003.9488      1867.4972      2871.446       303.39303      0.015843623    0.0013565505 
 104090000   968.02586      1849.9309      2817.9568      300.53922      0.019645549    0.0013565505 
 104100000   961.34599      1794.889       2756.235       291.59713     -0.0040245535   0.0013565505 
 104110000   930.09608      1855.8408      2785.9369      301.49934      0.017932975    0.0013565505 
 104120000   981.5047       1865.8485      2847.3532      303.12518     -0.00060808846  0.0013565505 
 104130000   977.5485       1901.6338      2879.1823      308.93886      0.018083066    0.0013565505 
 104140000   974.05964      1910.2782      2884.3378      310.34321      0.049437364    0.0013565505 
 104150000   921.86152      1872.5595      2794.421       304.21545      0.014144102    0.0013565505 
 104160000   987.17847      1774.3868      2761.5652      288.26634      0.013363901    0.0013565505 
 104170000   925.46004      1838.8214      2764.2814      298.73437      0.0019050832   0.0013565505 
 104180000   996.21214      1864.3264      2860.5386      302.87791      0.039493724    0.0013565505 
 104190000   949.08134      1836.2438      2785.3251      298.31561     -0.0053408274   0.0013565505 
 104200000   948.87773      1792.4764      2741.3541      291.20518      0.028778729    0.0013565505 
 104210000   952.28449      1889.1442      2841.4287      306.9098       0.002593733    0.0013565505 
 104220000   979.76903      1827.8058      2807.5748      296.94478     -0.0036339249   0.0013565505 
 104230000   924.42563      1858.6611      2783.0867      301.95751      0.035517114    0.0013565505 
 104240000   948.4501       1863.6049      2812.055       302.76068     -0.026260023    0.0013565505 
 104250000   1023.7468      1812.4009      2836.1476      294.4421       0.019468778    0.0013565505 
 104260000   984.96114      1862.5063      2847.4675      302.58221      0.061375606    0.0013565505 
 104270000   930.39564      1852.1062      2782.5018      300.89261      0.030078315    0.0013565505 
 104280000   985.21805      1843.197       2828.415       299.44522      0.003703833    0.0013565505 
 104290000   983.55068      1857.9479      2841.4985      301.84165     -0.0099175304   0.0013565505 
 104300000   951.54426      1819.6188      2771.1631      295.61472     -0.0020048354   0.0013565505 
 104310000   923.49239      1871.8212      2795.3135      304.0955       0.020599832    0.0013565505 
 104320000   1008.7958      1851.4902      2860.286       300.79253     -0.00077033249  0.0013565505 
 104330000   999.93991      1846.5413      2846.4812      299.98854      0.015588855    0.0013565505 
 104340000   951.90586      1883.0554      2834.9613      305.92061      0.0032363537   0.0013565505 
 104350000   935.64337      1868.2279      2803.8713      303.51174     -0.00043523227  0.0013565505 
 104360000   994.67373      1879.7716      2874.4453      305.38712      0.0032276995   0.0013565505 
 104370000   947.83154      1824.0312      2771.8628      296.33156     -0.023444072    0.0013565505 
 104380000   939.40466      1862.0469      2801.4516      302.50758     -0.00053643104  0.0013565505 
 104390000   937.6033       1782.4993      2720.1026      289.58429      0.01046316     0.0013565505 
 104400000   964.16249      1838.5373      2802.6998      298.68822      0.030766964    0.0013565505 
 104410000   949.22626      1820.0091      2769.2353      295.67812     -0.031484173    0.0013565505 
 104420000   935.48644      1846.4157      2781.9021      299.96814     -0.0011145045   0.0013565505 
 104430000   940.04391      1898.6985      2838.7424      308.46198      0.012736268    0.0013565505 
 104440000   978.2977       1828.0397      2806.3374      296.98277     -0.035387371    0.0013565505 
 104450000   946.16251      1916.6163      2862.7788      311.37291      0.030184857    0.0013565505 
 104460000   993.05411      1873.4863      2866.5404      304.36602     -0.015692623    0.0013565505 
 104470000   975.13673      1900.3341      2875.4708      308.7277      -0.020561453    0.0013565505 
 104480000   1011.2756      1865.205       2876.4806      303.02065      0.0052443035   0.0013565505 
 104490000   951.98429      1839.633       2791.6173      298.86622     -0.027889263    0.0013565505 
 104500000   999.28119      1811.8387      2811.1199      294.35077     -0.0014139182   0.0013565505 
 104510000   964.85316      1822.2293      2787.0825      296.03882      0.050502755    0.0013565505 
 104520000   964.76783      1866.4653      2831.2331      303.22539      0.0019399689   0.0013565505 
 104530000   1001.0618      1887.8401      2888.9019      306.69793      0.010293953    0.0013565505 
 104540000   949.67139      1829.3902      2779.0616      297.20218     -0.014314604    0.0013565505 
 104550000   953.26842      1851.0396      2804.308       300.71933      0.031014247    0.0013565505 
 104560000   972.15747      1839.305       2811.4625      298.81294      0.0055016583   0.0013565505 
 104570000   974.12789      1816.7926      2790.9205      295.15558      0.016806632    0.0013565505 
 104580000   1001.9264      1851.7029      2853.6293      300.82709      0.015057292    0.0013565505 
 104590000   978.60602      1800.7469      2779.3529      292.54879      0.029687052    0.0013565505 
 104600000   976.49987      1835.3516      2811.8515      298.17067     -0.010974038    0.0013565505 
 104610000   971.97596      1864.8522      2836.8282      302.96333      0.0062537144   0.0013565505 
 104620000   960.98108      1844.8118      2805.7929      299.70758     -0.011206576    0.0013565505 
 104630000   918.96814      1803.6925      2722.6607      293.02735     -0.019449996    0.0013565505 
 104640000   951.52576      1882.4306      2833.9564      305.81911      0.023204331    0.0013565505 
 104650000   946.1246       1893.1074      2839.232       307.55366      0.020150529    0.0013565505 
 104660000   974.33662      1841.1695      2815.5062      299.11585     -0.023935497    0.0013565505 
 104670000   922.69596      1833.5         2756.1959      297.86985     -0.0067377653   0.0013565505 
 104680000   988.4937       1834.7744      2823.2681      298.07689     -0.0014784662   0.0013565505 
 104690000   999.4384       1787.3109      2786.7493      290.36599     -0.029305339    0.0013565505 
 104700000   984.37923      1868.6615      2853.0407      303.58218      0.031286766    0.0013565505 
 104710000   921.15805      1849.2817      2770.4398      300.43375     -0.017007473    0.0013565505 
 104720000   991.94189      1790.2159      2782.1578      290.83794     -0.013661689    0.0013565505 
 104730000   987.21524      1868.793       2856.0082      303.60355      0.031403708    0.0013565505 
 104740000   926.59518      1882.1345      2808.7297      305.771        0.01790144     0.0013565505 
 104750000   979.42508      1864.5408      2843.9659      302.91274      0.023863351    0.0013565505 
 104760000   989.17569      1855.2966      2844.4723      301.41093     -0.0072532281   0.0013565505 
 104770000   940.45106      1840.4439      2780.895       298.99796      0.027299188    0.0013565505 
 104780000   977.01581      1834.7791      2811.7949      298.07766     -0.0018658254   0.0013565505 
 104790000   989.00071      1814.8189      2803.8197      294.83494      0.012077429    0.0013565505 
 104800000   1041.8735      1911.1072      2952.9808      310.47791      0.0064577728   0.0013565505 
 104810000   958.90907      1859.122       2818.0311      302.0324       0.029810185    0.0013565505 
 104820000   986.02328      1869.8721      2855.8954      303.77886      0.051208451    0.0013565505 
 104830000   937.93029      1816.9707      2754.901       295.18452     -0.025528796    0.0013565505 
 104840000   942.13896      1809.0716      2751.2106      293.90123      0.013953204    0.0013565505 
 104850000   950.75142      1896.9552      2847.7066      308.17877     -0.031775201    0.0013565505 
 104860000   963.84896      1863.054       2826.9029      302.67119      0.0063920721   0.0013565505 
 104870000   925.29177      1808.7163      2734.0081      293.8435       0.016787456    0.0013565505 
 104880000   914.85863      1854.7725      2769.6312      301.32579      0.032019317    0.0013565505 
 104890000   947.91631      1858.3148      2806.2311      301.90126     -0.010489854    0.0013565505 
 104900000   974.93266      1910.647       2885.5796      310.40313     -0.0077446754   0.0013565505 
 104910000   985.70642      1790.5176      2776.224       290.88695     -0.017508769    0.0013565505 
 104920000   945.73315      1822.0953      2767.8284      296.01705     -0.0035913069   0.0013565505 
 104930000   988.02286      1831.27        2819.2929      297.50758     -0.032452271    0.0013565505 
 104940000   962.05764      1803.6274      2765.685       293.01676      0.030850254    0.0013565505 
 104950000   912.39974      1813.51        2725.9098      294.62229     -0.022411112    0.0013565505 
 104960000   973.28497      1815.292       2788.577       294.91179      0.01248027     0.0013565505 
 104970000   1011.3376      1832.4799      2843.8175      297.70414      0.0099229378   0.0013565505 
 104980000   942.03422      1850.297       2792.3312      300.59869      0.049241055    0.0013565505 
 104990000   952.4261       1826.0119      2778.438       296.65335      0.02021618     0.0013565505 
 105000000   927.76266      1826.6254      2754.3881      296.75302      0.022495796    0.0013565505 
Loop time of 5053.43 on 32 procs for 100000000 steps with 2066 atoms

Performance: 17097.289 ns/day, 0.001 hours/ns, 19788.529 timesteps/s, 40.883 Matom-step/s
99.3% CPU use with 32 MPI tasks x 1 OpenMP threads

MPI task timing breakdown:
Section |  min time  |  avg time  |  max time  |%varavg| %total
---------------------------------------------------------------
Pair    | 634.07     | 812.35     | 2000.3     |1074.4 | 16.08
Bond    | 142.58     | 231.86     | 341.78     | 282.5 |  4.59
Neigh   | 12.506     | 12.725     | 12.871     |   2.9 |  0.25
Comm    | 2462.3     | 3684.4     | 4102.3     | 555.1 | 72.91
Output  | 1.0707     | 1.3        | 3.1381     |  30.1 |  0.03
Modify  | 94.944     | 146.04     | 192.85     | 186.2 |  2.89
Other   |            | 164.7      |            |       |  3.26

Nlocal:        64.5625 ave         142 max          13 min
Histogram: 2 2 7 6 6 5 1 1 1 1
Nghost:        54.6875 ave          96 max          19 min
Histogram: 3 2 2 4 5 8 3 1 3 1
Neighs:        115.812 ave         575 max          23 min
Histogram: 10 16 3 1 1 0 0 0 0 1

Total # of neighbors = 3706
Ave neighs/atom = 1.7938045
Ave special neighs/atom = 4.8325266
Neighbor list builds = 237964
Dangerous builds = 0

write_data outputs/${tag}_final.data
write_data outputs/7LYJ_aso_n200_final.data
System init for write_data ...
Generated 0 of 6 mixed pair_coeff terms from geometric mixing rule
Total wall time: 1:28:03
