
# --- Force field -------------------------------------------------
bond_style  harmonic
bond_coeff  1 7.5 5.9

angle_style harmonic
angle_coeff 1 5.0 150.0

pair_style  hybrid/overlay lj/cut 10.0 base/rna 18.0
pair_modify shift yes

pair_coeff * * lj/cut 2.0 8.9089871814

pair_coeff 1 1 base/rna 0.00000 3.0 13.8 1.5 0.5 1.8326 0.9425 1.8326 1.1345
pair_coeff 1 2 base/rna 0.00000 3.0 13.8 1.5 0.5 1.8326 0.9425 1.8326 1.1345
pair_coeff 1 3 base/rna 0.00000 3.0 13.8 1.5 0.5 1.8326 0.9425 1.8326 1.1345
pair_coeff 1 4 base/rna 3.33333 3.0 13.8 1.5 0.5 1.8326 0.9425 1.8326 1.1345
pair_coeff 2 2 base/rna 0.00000 3.0 13.8 1.5 0.5 1.8326 0.9425 1.8326 1.1345
pair_coeff 2 3 base/rna 5.00000 3.0 13.8 1.5 0.5 1.8326 0.9425 1.8326 1.1345
pair_coeff 2 4 base/rna 0.00000 3.0 13.8 1.5 0.5 1.8326 0.9425 1.8326 1.1345
pair_coeff 3 3 base/rna 0.00000 3.0 13.8 1.5 0.5 1.8326 0.9425 1.8326 1.1345
pair_coeff 3 4 base/rna 3.33333 3.0 13.8 1.5 0.5 1.8326 0.9425 1.8326 1.1345
pair_coeff 4 4 base/rna 0.00000 3.0 13.8 1.5 0.5 1.8326 0.9425 1.8326 1.1345

# --- Minimization ------------------------------------------------
minimize 1.0e-4 1.0e-6 1000 10000

CITE-CITE-CITE-CITE-CITE-CITE-CITE-CITE-CITE-CITE-CITE-CITE-CITE

Your simulation uses code contributions which should be cited:

- Type Label Framework: https://doi.org/10.1021/acs.jpcb.3c08419

@Article{Gissinger24,
 author = {Jacob R. Gissinger, Ilia Nikiforov, Yaser Afshar, Brendon Waters, Moon-ki Choi, Daniel S. Karls, Alexander Stukowski, Wonpil Im, Hendrik Heinz, Axel Kohlmeyer, and Ellad B. Tadmor},
 title = {Type Label Framework for Bonded Force Fields in LAMMPS},
 journal = {J. Phys. Chem. B},
 year =    2024,
 volume =  128,
 number =  13,
 pages =   {3282–-3297}
}

CITE-CITE-CITE-CITE-CITE-CITE-CITE-CITE-CITE-CITE-CITE-CITE-CITE

Switching to 'neigh_modify every 1 delay 0 check yes' setting during minimization
Generated 0 of 6 mixed pair_coeff terms from geometric mixing rule
Neighbor list info ...
  update: every = 1 steps, delay = 0 steps, check = yes
  max neighbors/atom: 2000, page size: 100000
  master list distance cutoff = 33
  ghost atom cutoff = 33
  binsize = 16.5, bins = 72 72 72
  2 neighbor lists, perpetual/occasional/extra = 2 0 0
  (1) pair lj/cut, perpetual, trim from (2)
      attributes: half, newton on, cut 25
      pair build: trim
      stencil: none
      bin: none
  (2) pair base/rna, perpetual
      attributes: half, newton on
      pair build: half/bin/newton
      stencil: half/bin/3d
      bin: standard
Per MPI rank memory allocation (min/avg/max) = 8.508 | 8.538 | 8.785 Mbytes
   Step          Temp          E_pair         E_mol          TotEng         Press     
         0   0              2323.7997      4438.4211      6762.2208      0.43764133   
        37   0             -99.853898      4345.0793      4245.2254     -0.0011724252 
Loop time of 0.00447669 on 32 procs for 37 steps with 4066 atoms

70.6% CPU use with 32 MPI tasks x 1 OpenMP threads

Minimization stats:
  Stopping criterion = energy tolerance
  Energy initial, next-to-last, final = 
      6762.22083674054   4245.63853392847   4245.22539930725
  Force two-norm initial, final = 5888.4578 5.5210238
  Force max component initial, final = 2667.2637 1.6133673
  Final line search alpha, max atom move = 0.062655056 0.10108562
  Iterations, force evaluations = 37 40

MPI task timing breakdown:
Section |  min time  |  avg time  |  max time  |%varavg| %total
---------------------------------------------------------------
Pair    | 0.00072969 | 0.00095266 | 0.001511   |   0.0 | 21.28
Bond    | 9.4141e-05 | 0.00016602 | 0.00028199 |   0.0 |  3.71
Neigh   | 0          | 0          | 0          |   0.0 |  0.00
Comm    | 0.0016434  | 0.0020538  | 0.0023101  |   0.4 | 45.88
Output  | 0          | 0          | 0          |   0.0 |  0.00
Modify  | 0          | 0          | 0          |   0.0 |  0.00
Other   |            | 0.001304   |            |       | 29.13

Nlocal:        127.062 ave         214 max          73 min
Histogram: 5 6 1 6 7 1 1 2 1 2
Nghost:        85.6562 ave         154 max          26 min
Histogram: 2 2 3 5 6 8 1 0 4 1
Neighs:        202.406 ave         428 max          93 min
Histogram: 7 5 5 5 3 3 0 2 1 1

Total # of neighbors = 6477
Ave neighs/atom = 1.5929661
Ave special neighs/atom = 4.8165273
Neighbor list builds = 0
Dangerous builds = 0
reset_timestep 0

# --- Output setup ------------------------------------------------
dump d1 all custom 50000 outputs/${tag}.lammpstrj id mol type q xu yu zu
dump d1 all custom 50000 outputs/7LYJ_aso_n400.lammpstrj id mol type q xu yu zu
dump_modify d1 sort id

thermo_style custom step pe ke etotal temp press density
thermo       10000
thermo_modify flush yes

variable vpe equal pe
variable vke equal ke
variable vT  equal temp
variable vE  equal etotal
variable vRg equal gyration(all)

fix favg all ave/time 10000 10 100000 v_vpe v_vke v_vT v_vE v_vRg     file outputs/thermo_${tag}_averaged.dat
fix favg all ave/time 10000 10 100000 v_vpe v_vke v_vT v_vE v_vRg     file outputs/thermo_7LYJ_aso_n400_averaged.dat

# --- NVT equilibration (50 ns) -----------------------------------
velocity all create ${T_target} 69264 rot yes dist gaussian
velocity all create 300 69264 rot yes dist gaussian

fix fxlang all langevin ${T_target} ${T_target} 1000.0 33168
fix fxlang all langevin 300 ${T_target} 1000.0 33168
fix fxlang all langevin 300 300 1000.0 33168
fix fxnve  all nve
fix recenter all momentum 1000 linear 1 1 1

run 5000000
Generated 0 of 6 mixed pair_coeff terms from geometric mixing rule
Per MPI rank memory allocation (min/avg/max) = 7.399 | 7.429 | 7.676 Mbytes
   Step         PotEng         KinEng         TotEng          Temp          Press         Density    
         0   4245.2254      3635.0979      7880.3233      300            0.099962914    0.0013499648 
     10000   1940.7889      3674.9104      5615.6993      303.28568     -0.0047721201   0.0013499648 
     20000   1985.3031      3506.4963      5491.7994      289.38668      0.0036592262   0.0013499648 
     30000   2009.5457      3647.5635      5657.1092      301.02878      0.010262507    0.0013499648 
     40000   1984.4833      3601.7684      5586.2517      297.24936     -0.00094128606  0.0013499648 
     50000   1944.2291      3620.7908      5565.0199      298.81926      0.022525459    0.0013499648 
     60000   1967.8076      3598.0083      5565.8159      296.93905     -0.023011836    0.0013499648 
     70000   1973.2312      3653.2335      5626.4648      301.49671     -0.0077223265   0.0013499648 
     80000   1952.6713      3655.3375      5608.0088      301.67035      0.01622416     0.0013499648 
     90000   1909.5329      3597.575       5507.1079      296.90328      0.022275303    0.0013499648 
    100000   1945.4427      3646.8978      5592.3405      300.97384      0.033089203    0.0013499648 
    110000   1985.6683      3693.9715      5679.6398      304.85877      0.00060874309  0.0013499648 
    120000   1935.3929      3615.3997      5550.7926      298.37433      0.0050687088   0.0013499648 
    130000   1941.0549      3639.2242      5580.2792      300.34055      0.0049616964   0.0013499648 
    140000   1982.6063      3554.2686      5536.8749      293.32926     -0.024885412    0.0013499648 
    150000   1921.7565      3650.0604      5571.8169      301.23484      0.010722507    0.0013499648 
    160000   1984.2364      3648.2484      5632.4848      301.0853       0.011135253    0.0013499648 
    170000   1937.2053      3664.2703      5601.4756      302.40757      0.017353579    0.0013499648 
    180000   1949.3028      3587.8743      5537.1771      296.1027      -0.00045286599  0.0013499648 
    190000   1937.2324      3590.6726      5527.905       296.33364     -0.0010655595   0.0013499648 
    200000   1988.0326      3650.5462      5638.5788      301.27493      0.028002091    0.0013499648 
    210000   2022.55        3564.2363      5586.7863      294.15188      0.017117467    0.0013499648 
    220000   1992.8193      3713.5105      5706.3298      306.47129     -0.011705386    0.0013499648 
    230000   1951.2839      3626.716       5577.9999      299.30826     -0.039206383    0.0013499648 
    240000   1942.4947      3647.7707      5590.2654      301.04587      0.0021649133   0.0013499648 
    250000   1956.7955      3663.1158      5619.9112      302.31228      0.010707589    0.0013499648 
    260000   2004.9519      3699.2848      5704.2366      305.29726      0.024047629    0.0013499648 
    270000   2032.5405      3626.9126      5659.453       299.32448     -0.0095121529   0.0013499648 
    280000   1910.8886      3583.4462      5494.3348      295.73726     -0.0046527635   0.0013499648 
    290000   1958.0729      3659.433       5617.506       302.00835      0.022754341    0.0013499648 
    300000   1965.101       3641.1567      5606.2577      300.50003     -0.018559262    0.0013499648 
    310000   1970.6004      3685.8825      5656.4829      304.19119     -0.0058370749   0.0013499648 
    320000   1905.3665      3594.6151      5499.9816      296.65901      0.020544345    0.0013499648 
    330000   1919.3403      3675.0686      5594.4089      303.29874     -0.0032278793   0.0013499648 
    340000   2000.9414      3682.3905      5683.3319      303.903        1.8531755e-05  0.0013499648 
    350000   1941.0313      3634.2674      5575.2986      299.93146      0.017052698    0.0013499648 
    360000   1956.6731      3653.4202      5610.0933      301.51212      0.0039906123   0.0013499648 
    370000   1932.8149      3628.3584      5561.1733      299.4438       0.023903336    0.0013499648 
    380000   1991.0373      3658.9527      5649.99        301.96871      0.0050179726   0.0013499648 
    390000   1974.8177      3670.6438      5645.4615      302.93356     -0.0058946073   0.0013499648 
    400000   1960.8853      3611.6842      5572.5696      298.0677       0.019291876    0.0013499648 
    410000   2039.6205      3609.7699      5649.3905      297.90972      0.0069527723   0.0013499648 
    420000   1957.0692      3592.3784      5549.4477      296.47442      0.021812119    0.0013499648 
    430000   2033.3841      3526.9286      5560.3127      291.07293     -0.0090873995   0.0013499648 
    440000   1922.176       3637.605       5559.781       300.20691     -0.0065548903   0.0013499648 
    450000   1974.171       3718.2902      5692.4612      306.86576      0.0021013641   0.0013499648 
    460000   1918.0262      3572.5001      5490.5263      294.83388      0.02642552     0.0013499648 
    470000   1980.6496      3597.1834      5577.8331      296.87097      0.028867625    0.0013499648 
    480000   2009.2483      3667.331       5676.5794      302.66016     -0.014115138    0.0013499648 
    490000   2037.9135      3647.8771      5685.7906      301.05466      0.016338261    0.0013499648 
    500000   2016.5233      3572.7616      5589.2849      294.85547     -0.015475608    0.0013499648 
    510000   2025.8472      3719.7857      5745.6329      306.98918      0.016725223    0.0013499648 
    520000   1953.1506      3665.4618      5618.6124      302.5059       0.0053575348   0.0013499648 
    530000   1967.979       3633.2495      5601.2286      299.84746     -0.0013575791   0.0013499648 
    540000   1959.8239      3744.3579      5704.1819      309.0171      -0.0055222325   0.0013499648 
    550000   2014.8048      3630.6204      5645.4251      299.63048      0.0021366275   0.0013499648 
    560000   1966.2916      3663.0914      5629.383       302.31027      0.032118881    0.0013499648 
    570000   1935.9648      3597.8211      5533.7858      296.92359      0.030253528    0.0013499648 
    580000   2006.4389      3663.1028      5669.5417      302.31121      0.0063008448   0.0013499648 
    590000   1990.0107      3654.5047      5644.5154      301.60163      0.032692984    0.0013499648 
    600000   1965.5208      3577.7881      5543.3089      295.2703       0.0060967335   0.0013499648 
    610000   1920.4388      3657.2954      5577.7342      301.83193     -0.0147056      0.0013499648 
    620000   1937.1927      3668.1044      5605.2971      302.72399      0.01113494     0.0013499648 
    630000   1953.6953      3621.5867      5575.282       298.88494      0.0031416469   0.0013499648 
    640000   1989.4573      3654.1611      5643.6184      301.57327     -0.0054758395   0.0013499648 
    650000   1965.3374      3664.2721      5629.6095      302.40771      0.019528588    0.0013499648 
    660000   1959.2543      3612.7026      5571.9568      298.15175      0.018817817    0.0013499648 
    670000   1965.5273      3593.4651      5558.9924      296.5641       0.037434678    0.0013499648 
    680000   2012.5963      3715.3867      5727.983       306.62614      0.026849041    0.0013499648 
    690000   1929.6612      3668.5802      5598.2413      302.76325      0.018919568    0.0013499648 
    700000   1986.7102      3616.864       5603.5742      298.49518     -0.019948729    0.0013499648 
    710000   1970.8528      3583.7851      5554.6379      295.76522      0.051371387    0.0013499648 
    720000   1887.8891      3579.5213      5467.4104      295.41334      0.0066024488   0.0013499648 
    730000   1927.9748      3600.827       5528.8018      297.17167      0.031179737    0.0013499648 
    740000   1943.6778      3635.397       5579.0748      300.02469      0.017644832    0.0013499648 
    750000   2015.7692      3584.0158      5599.785       295.78426      0.018927963    0.0013499648 
    760000   1933.3679      3677.5326      5610.9005      303.50209      0.022043765    0.0013499648 
    770000   2023.128       3656.4203      5679.5483      301.75971     -0.0042425592   0.0013499648 
    780000   1944.4828      3601.8962      5546.3789      297.25991     -0.0015481171   0.0013499648 
    790000   1946.0455      3551.7105      5497.7559      293.11814      0.0026384383   0.0013499648 
    800000   1951.209       3636.4876      5587.6966      300.1147       0.018888232    0.0013499648 
    810000   1942.7144      3585.3256      5528.04        295.89236      0.013724995    0.0013499648 
    820000   1898.3017      3641.6892      5539.9909      300.54398      0.024897401    0.0013499648 
    830000   1989.0606      3650.9829      5640.0436      301.31097      0.013058733    0.0013499648 
    840000   1971.3824      3579.4918      5550.8742      295.4109      -0.0064807938   0.0013499648 
    850000   1985.0432      3680.4061      5665.4493      303.73923     -0.0052722912   0.0013499648 
    860000   1961.7447      3719.075       5680.8197      306.93053     -0.0028107072   0.0013499648 
    870000   1975.9079      3689.5211      5665.4291      304.49148     -0.012285115    0.0013499648 
    880000   1980.4987      3581.5324      5562.031       295.57931      0.0037049656   0.0013499648 
    890000   1959.0223      3673.0913      5632.1136      303.13555      0.011290594    0.0013499648 
    900000   1974.2809      3603.4901      5577.771       297.39146      0.027367966    0.0013499648 
    910000   1952.4004      3625.4752      5577.8756      299.20585      0.02675628     0.0013499648 
    920000   1964.7531      3705.7722      5670.5253      305.83267      0.027498923    0.0013499648 
    930000   1934.0203      3603.5824      5537.6026      297.39907      0.026087313    0.0013499648 
    940000   1969.7411      3684.9016      5654.6427      304.11024      0.014737602    0.0013499648 
    950000   1881.166       3620.2515      5501.4175      298.77475      0.021754175    0.0013499648 
    960000   1966.0594      3645.7382      5611.7976      300.87813     -0.0057924136   0.0013499648 
    970000   2008.9023      3675.5871      5684.4895      303.34153     -0.016425945    0.0013499648 
    980000   1913.9714      3648.3463      5562.3176      301.09337      0.00277506     0.0013499648 
    990000   2030.7297      3636.3117      5667.0414      300.10018     -0.00016287981  0.0013499648 
   1000000   1951.143       3691.9857      5643.1287      304.69488      0.030564265    0.0013499648 
   1010000   2005.8691      3608.6862      5614.5553      297.82028     -0.0056489023   0.0013499648 
   1020000   1992.1818      3633.7289      5625.9107      299.88703      0.016762192    0.0013499648 
   1030000   1915.7003      3645.584       5561.2843      300.86541      0.021453597    0.0013499648 
   1040000   1944.7874      3577.0536      5521.841       295.20968     -0.0034696855   0.0013499648 
   1050000   1978.6972      3627.4738      5606.1709      299.37079      0.022750831    0.0013499648 
   1060000   2034.5976      3732.2625      5766.8601      308.01888      0.015744341    0.0013499648 
   1070000   1992.0457      3674.0268      5666.0725      303.21275      0.010223283    0.0013499648 
   1080000   1980.0981      3618.0262      5598.1243      298.5911       0.010279595    0.0013499648 
   1090000   1910.1898      3588.7807      5498.9705      296.17751     -0.0026739746   0.0013499648 
   1100000   1968.1381      3594.3902      5562.5283      296.64045      0.019919766    0.0013499648 
   1110000   1943.5243      3667.1524      5610.6767      302.64542     -0.010230255    0.0013499648 
   1120000   1955.6502      3660.1997      5615.8499      302.07162      0.0050665663   0.0013499648 
   1130000   1928.4356      3622.0236      5550.4593      298.921        0.019918935    0.0013499648 
   1140000   1965.8723      3725.8271      5691.6995      307.48777      0.029801495    0.0013499648 
   1150000   1983.2539      3586.4514      5569.7053      295.98527     -0.011012372    0.0013499648 
   1160000   1968.7336      3610.2998      5579.0335      297.95345      0.0068918504   0.0013499648 
   1170000   1935.773       3614.1767      5549.9497      298.2734       0.030522358    0.0013499648 
   1180000   1911.1168      3669.1444      5580.2612      302.80982      0.023481625    0.0013499648 
   1190000   1992.3972      3680.9696      5673.3668      303.78574      0.013831634    0.0013499648 
   1200000   1966.7053      3604.139       5570.8443      297.445        0.016594297    0.0013499648 
   1210000   1971.5266      3604.1571      5575.6837      297.4465       0.031556823    0.0013499648 
   1220000   2044.0915      3658.0021      5702.0936      301.89026      0.0086690367   0.0013499648 
   1230000   1955.7793      3574.193       5529.9723      294.9736       0.026425003    0.0013499648 
   1240000   1981.4742      3706.9671      5688.4413      305.93128      0.024275358    0.0013499648 
   1250000   2013.9767      3602.8815      5616.8581      297.34122      0.018269999    0.0013499648 
   1260000   1986.0951      3637.9085      5624.0035      300.23196     -0.012660159    0.0013499648 
   1270000   1969.2908      3605.766       5575.0567      297.57928      0.01217192     0.0013499648 
   1280000   1946.3057      3600.6979      5547.0036      297.16102      0.012691832    0.0013499648 
   1290000   1974.4482      3543.8326      5518.2807      292.46799      0.0064076585   0.0013499648 
   1300000   2077.9604      3636.8482      5714.8086      300.14445      0.037874441    0.0013499648 
   1310000   1960.4139      3718.1604      5678.5743      306.85505      0.020024821    0.0013499648 
   1320000   1970.0279      3653.6651      5623.6931      301.53234     -0.0074528965   0.0013499648 
   1330000   1878.8631      3659.4006      5538.2637      302.00567      0.030562225    0.0013499648 
   1340000   1958.3353      3622.3605      5580.6958      298.9488       0.025667459    0.0013499648 
   1350000   1910.6646      3717.4977      5628.1624      306.80036      0.0074056865   0.0013499648 
   1360000   1963.2306      3629.887       5593.1176      299.56995     -0.0061842872   0.0013499648 
   1370000   2006.5642      3632.8626      5639.4267      299.81552      0.011716554    0.0013499648 
   1380000   1993.9464      3628.7749      5622.7213      299.47817      0.017249334    0.0013499648 
   1390000   2010.3937      3630.8321      5641.2258      299.64795      0.010661609    0.0013499648 
   1400000   1985.8937      3597.5855      5583.4792      296.90416      0.003389186    0.0013499648 
   1410000   2025.5999      3671.5297      5697.1296      303.00668      0.00013814538  0.0013499648 
   1420000   1991.5092      3623.5564      5615.0656      299.0475      -0.0046516726   0.0013499648 
   1430000   1973.0446      3631.1645      5604.2091      299.67539      0.014928872    0.0013499648 
   1440000   1920.8007      3649.7906      5570.5913      301.21258      0.030334772    0.0013499648 
   1450000   1981.1474      3582.8326      5563.98        295.68661      0.013137471    0.0013499648 
   1460000   1975.4089      3634.3371      5609.746       299.93721      0.018898069    0.0013499648 
   1470000   1945.0493      3611.9311      5556.9804      298.08807      0.0057139358   0.0013499648 
   1480000   1950.4003      3738.5887      5688.9891      308.54097     -0.010724407    0.0013499648 
   1490000   1866.7506      3644.492       5511.2426      300.77529      0.030787934    0.0013499648 
   1500000   1965.6337      3564.4725      5530.1063      294.17138     -0.00018814121  0.0013499648 
   1510000   1958.1853      3601.6527      5559.8381      297.23982      0.023691276    0.0013499648 
   1520000   1922.4021      3623.3796      5545.7817      299.03291      0.018171308    0.0013499648 
   1530000   1934.5774      3651.1983      5585.7757      301.32875     -0.0027580452   0.0013499648 
   1540000   1963.6908      3656.4864      5620.1772      301.76517      0.03873276     0.0013499648 
   1550000   1983.8729      3678.8942      5662.7671      303.61446      0.0042428464   0.0013499648 
   1560000   1981.5244      3704.8059      5686.3303      305.75292      0.011992538    0.0013499648 
   1570000   2026.8         3621.8345      5648.6346      298.90539      0.027774148    0.0013499648 
   1580000   1992.4959      3654.9217      5647.4176      301.63604      0.015291006    0.0013499648 
   1590000   1944.9416      3591.8922      5536.8338      296.43429     -0.012802973    0.0013499648 
   1600000   1911.4934      3594.5327      5506.0261      296.65221      0.014344398    0.0013499648 
   1610000   2018.7363      3721.9847      5740.721       307.17066      0.018026414    0.0013499648 
   1620000   1947.4868      3609.4183      5556.9052      297.8807       0.028864222    0.0013499648 
   1630000   1904.937       3656.981       5561.918       301.80599      0.0026204801   0.0013499648 
   1640000   1995.2946      3576.5293      5571.8239      295.16641     -0.0035409398   0.0013499648 
   1650000   1939.6773      3594.9533      5534.6306      296.68692     -0.012675727    0.0013499648 
   1660000   1998.2166      3630.5908      5628.8074      299.62804     -0.00042579209  0.0013499648 
   1670000   1946.9464      3657.405       5604.3514      301.84098     -0.0073937156   0.0013499648 
   1680000   1960.4769      3637.7062      5598.183       300.21526      0.015337053    0.0013499648 
   1690000   1934.7805      3630.9947      5565.7752      299.66137     -0.010695367    0.0013499648 
   1700000   1950.4927      3675.887       5626.3796      303.36627      0.01055766     0.0013499648 
   1710000   2020.4569      3636.0432      5656.5001      300.07802      0.024325668    0.0013499648 
   1720000   1947.6011      3678.4553      5626.0565      303.57824      0.0048108296   0.0013499648 
   1730000   1927.8987      3591.4866      5519.3853      296.40082      0.015905507    0.0013499648 
   1740000   1949.2795      3637.8685      5587.148       300.22866      0.01597352     0.0013499648 
   1750000   1951.7546      3625.7678      5577.5224      299.23         0.0046009885   0.0013499648 
   1760000   1993.4091      3692.5502      5685.9593      304.74147      0.01343894     0.0013499648 
   1770000   2028.6279      3585.4191      5614.047       295.90008      0.0077436321   0.0013499648 
   1780000   1864.6591      3638.104       5502.7632      300.24809      0.01927329     0.0013499648 
   1790000   2004.1634      3668.1793      5672.3426      302.73017      0.036600198    0.0013499648 
   1800000   1979.5972      3576.78        5556.3772      295.1871       0.012298943    0.0013499648 
   1810000   1934.7289      3590.2441      5524.973       296.29828      0.032249232    0.0013499648 
   1820000   1947.8236      3666.1837      5614.0073      302.56548      0.010782349    0.0013499648 
   1830000   1976.2542      3668.2405      5644.4948      302.73522      0.021990955    0.0013499648 
   1840000   2000.956       3731.4366      5732.3926      307.95071     -0.01251441     0.0013499648 
   1850000   1999.9988      3572.974       5572.9728      294.873        0.010842675    0.0013499648 
   1860000   2002.0114      3614.4024      5616.4138      298.29203     -0.013135734    0.0013499648 
   1870000   2054.7902      3533.8343      5588.6245      291.64285     -0.00036988535  0.0013499648 
   1880000   1986.2957      3618.6752      5604.9709      298.64466      0.0079151744   0.0013499648 
   1890000   1975.4117      3590.3955      5565.8072      296.31077      0.046943898    0.0013499648 
   1900000   1977.8749      3635.883       5613.7579      300.0648       0.02409778     0.0013499648 
   1910000   2022.1564      3702.9122      5725.0686      305.59663      0.019479205    0.0013499648 
   1920000   1951.4582      3650.7078      5602.166       301.28827      0.018267124    0.0013499648 
   1930000   1875.3388      3669.0445      5544.3833      302.80157      0.0033329504   0.0013499648 
   1940000   1987.1372      3625.8943      5613.0314      299.24044      0.011876798    0.0013499648 
   1950000   1946.5867      3640.4309      5587.0176      300.44013      0.0073016179   0.0013499648 
   1960000   1943.7311      3732.9027      5676.6338      308.07171      0.039866832    0.0013499648 
   1970000   2002.2646      3662.7469      5665.0115      302.28184      0.011893935    0.0013499648 
   1980000   2004.8222      3663.0008      5667.823       302.30279     -0.020087567    0.0013499648 
   1990000   1921.4918      3664.0383      5585.5301      302.38842      0.0072644729   0.0013499648 
   2000000   1972.0992      3649.7429      5621.8421      301.20863      0.018310759    0.0013499648 
   2010000   1951.6785      3644.7501      5596.4286      300.79659      0.0035432532   0.0013499648 
   2020000   1968.1513      3639.1489      5607.3002      300.33433     -0.016579706    0.0013499648 
   2030000   1954.2054      3621.609       5575.8143      298.88678      0.011851304    0.0013499648 
   2040000   1950.7732      3695.5252      5646.2984      304.98699     -0.017678425    0.0013499648 
   2050000   1960.4042      3596.9694      5557.3736      296.85331      0.017685209    0.0013499648 
   2060000   1941.4608      3636.0316      5577.4923      300.07706      0.014230016    0.0013499648 
   2070000   1945.2969      3602.608       5547.9049      297.31865      0.019714697    0.0013499648 
   2080000   1932.283       3614.5553      5546.8383      298.30465      0.0060041434   0.0013499648 
   2090000   1946.2525      3657.4799      5603.7324      301.84716      0.020209603    0.0013499648 
   2100000   1993.0296      3572.2066      5565.2362      294.80967      0.008426194    0.0013499648 
   2110000   1955.7241      3610.8588      5566.5829      297.99959      0.019492713    0.0013499648 
   2120000   1995.8927      3657.029       5652.9216      301.80995      0.028896068    0.0013499648 
   2130000   2001.6672      3686.9115      5688.5787      304.27612      0.00043837489  0.0013499648 
   2140000   2009.7013      3623.7109      5633.4122      299.06025      0.004163231    0.0013499648 
   2150000   1924.5884      3661.1503      5585.7387      302.15008      0.0011772972   0.0013499648 
   2160000   1970.0342      3716.741       5686.7751      306.7379       0.0075734294   0.0013499648 
   2170000   1954.8599      3650.44        5605.2999      301.26617      0.023231846    0.0013499648 
   2180000   1989.6484      3630.2133      5619.8617      299.59688     -0.010685354    0.0013499648 
   2190000   1963.0113      3710.8581      5673.8695      306.2524      -0.0033178533   0.0013499648 
   2200000   1952.646       3514.1982      5466.8442      290.0223       0.012063678    0.0013499648 
   2210000   1981.7712      3645.7313      5627.5026      300.87757      0.016364108    0.0013499648 
   2220000   1985.8594      3652.1053      5637.9647      301.4036       0.017152586    0.0013499648 
   2230000   1990.2974      3651.148       5641.4454      301.3246      -0.00178756     0.0013499648 
   2240000   1951.2226      3578.6355      5529.8581      295.34023     -0.020972709    0.0013499648 
   2250000   1984.8982      3715.0233      5699.9215      306.59614     -0.022553995    0.0013499648 
   2260000   1948.1775      3560.5928      5508.7703      293.85119      0.0093049024   0.0013499648 
   2270000   1954.0074      3719.3139      5673.3213      306.95024      0.031132325    0.0013499648 
   2280000   1918.539       3642.4772      5561.0163      300.60901      0.0058268355   0.0013499648 
   2290000   1969.4063      3552.5541      5521.9603      293.18777      0.0017321883   0.0013499648 
   2300000   1942.336       3706.8736      5649.2096      305.92356      0.0027805908   0.0013499648 
   2310000   2014.8194      3581.8193      5596.6387      295.60299      0.0017256594   0.0013499648 
   2320000   1988.662       3701.0101      5689.6721      305.43965      0.026954416    0.0013499648 
   2330000   1956.9911      3606.6267      5563.6177      297.65031     -0.011245739    0.0013499648 
   2340000   1978.5891      3533.9133      5512.5025      291.64937      0.028303689    0.0013499648 
   2350000   1980.6868      3596.8723      5577.5591      296.84529     -0.0067818192   0.0013499648 
   2360000   1935.4995      3691.1967      5626.6962      304.62977      0.0092309032   0.0013499648 
   2370000   1919.5053      3660.9144      5580.4197      302.13061      0.010986232    0.0013499648 
   2380000   1924.6096      3596.1178      5520.7274      296.78303      0.021784849    0.0013499648 
   2390000   2032.7935      3643.9117      5676.7053      300.7274      -0.012877932    0.0013499648 
   2400000   1915.7789      3649.3927      5565.1716      301.17974      0.0099499913   0.0013499648 
   2410000   1923.0302      3556.8475      5479.8776      293.54209      0.032421405    0.0013499648 
   2420000   1928.4027      3662.6582      5591.0609      302.27452      0.0089689356   0.0013499648 
   2430000   1943.806       3610.2269      5554.0329      297.94743     -0.015492101    0.0013499648 
   2440000   1957.2835      3631.1413      5588.4247      299.67347      0.021171825    0.0013499648 
   2450000   1902.8513      3703.6784      5606.5297      305.65987      0.00043962805  0.0013499648 
   2460000   1932.0551      3632.2844      5564.3395      299.76781      0.032716317    0.0013499648 
   2470000   2029.551       3653.5386      5683.0896      301.52189      0.0099775279   0.0013499648 
   2480000   2021.0058      3687.3602      5708.366       304.31314      0.014960299    0.0013499648 
   2490000   1972.9998      3618.98        5591.9797      298.66981      0.016321645    0.0013499648 
   2500000   1917.3581      3644.1312      5561.4893      300.74551      0.006275823    0.0013499648 
   2510000   1936.966       3555.7713      5492.7373      293.45328      0.0090817931   0.0013499648 
   2520000   1930.7079      3671.6999      5602.4078      303.02072      0.026217274    0.0013499648 
   2530000   1988.729       3600.4069      5589.1359      297.137        0.00025816641  0.0013499648 
   2540000   1928.4987      3607.4754      5535.974       297.72035      0.029920883    0.0013499648 
   2550000   1941.1745      3651.8964      5593.0709      301.38637      0.0090096159   0.0013499648 
   2560000   1966.5744      3583.9336      5550.508       295.77748      0.03133489     0.0013499648 
   2570000   1964.8908      3652.5896      5617.4804      301.44357      0.015091283    0.0013499648 
   2580000   1902.6026      3598.0997      5500.7023      296.94659      0.022866563    0.0013499648 
   2590000   1956.5604      3576.1989      5532.7593      295.13914      0.010013695    0.0013499648 
   2600000   1953.8879      3623.0587      5576.9465      299.00642      0.025035014    0.0013499648 
   2610000   1935.1434      3621.1902      5556.3336      298.85222      0.0067153399   0.0013499648 
   2620000   2012.6794      3675.245       5687.9244      303.3133      -0.028632008    0.0013499648 
   2630000   2017.9055      3710.5652      5728.4707      306.22822      0.0016984588   0.0013499648 
   2640000   1909.1923      3653.9907      5563.183       301.5592      -0.00077054209  0.0013499648 
   2650000   1968.1603      3695.2703      5663.4305      304.96595      0.015451539    0.0013499648 
   2660000   1931.5621      3609.6459      5541.208       297.89948      0.02776743     0.0013499648 
   2670000   2013.5392      3627.5554      5641.0946      299.37753      0.029907381    0.0013499648 
   2680000   1936.6803      3633.2436      5569.9239      299.84697      0.046897851    0.0013499648 
   2690000   1874.3931      3653.1979      5527.591       301.49377      0.028437948    0.0013499648 
   2700000   1939.2654      3672.7648      5612.0302      303.1086       0.0065425202   0.0013499648 
   2710000   1911.8441      3602.8448      5514.6889      297.33819      0.031733488    0.0013499648 
   2720000   1909.3042      3569.7571      5479.0613      294.60751      0.01595072     0.0013499648 
   2730000   1985.7567      3628.2446      5614.0013      299.43441     -0.0090547168   0.0013499648 
   2740000   1957.9802      3588.8263      5546.8065      296.18127      0.013799686    0.0013499648 
   2750000   1943.8835      3646.267       5590.1505      300.92178      0.0040499764   0.0013499648 
   2760000   1953.0448      3660.5844      5613.6292      302.10337      0.0069631786   0.0013499648 
   2770000   1954.6232      3600.3527      5554.976       297.13253      0.0096083337   0.0013499648 
   2780000   1943.0806      3654.2951      5597.3757      301.58432      0.0060357604   0.0013499648 
   2790000   1965.8047      3721.1537      5686.9584      307.10208     -0.01428073     0.0013499648 
   2800000   2010.1253      3592.3631      5602.4884      296.47315      0.034986677    0.0013499648 
   2810000   1928.0873      3635.4774      5563.5647      300.03133      0.020542442    0.0013499648 
   2820000   2001.7028      3666.9987      5668.7015      302.63274     -0.0057402486   0.0013499648 
   2830000   2058.466       3697.9383      5756.4042      305.18614      0.018355153    0.0013499648 
   2840000   1925.1561      3675.3924      5600.5485      303.32546      0.014884569    0.0013499648 
   2850000   1973.0662      3543.2407      5516.3069      292.41914     -0.0066898982   0.0013499648 
   2860000   2025.2576      3638.3184      5663.576       300.26579      0.023228384    0.0013499648 
   2870000   1957.064       3675.9623      5633.0263      303.37249     -0.016645304    0.0013499648 
   2880000   1985.8815      3688.7439      5674.6253      304.42734      0.0050469457   0.0013499648 
   2890000   2003.3325      3580.7602      5584.0927      295.51558     -0.01972973     0.0013499648 
   2900000   1984.1198      3585.8203      5569.9401      295.93319      0.015703813    0.0013499648 
   2910000   1916.1766      3696.9349      5613.1115      305.10334     -0.0091883267   0.0013499648 
   2920000   1992.4143      3625.5963      5618.0107      299.21585      0.012061114    0.0013499648 
   2930000   1973.4275      3634.2476      5607.6751      299.92983     -0.0074798578   0.0013499648 
   2940000   1977.378       3606.5446      5583.9226      297.64354      0.025018487    0.0013499648 
   2950000   2014.3118      3574.3928      5588.7046      294.99009     -0.0058584586   0.0013499648 
   2960000   1943.0693      3663.207       5606.2762      302.31981      0.012304965    0.0013499648 
   2970000   1981.4926      3689.6153      5671.1079      304.49926      0.015557694    0.0013499648 
   2980000   1923.1509      3655.6339      5578.7848      301.69481      0.014862261    0.0013499648 
   2990000   1968.4922      3625.2493      5593.7415      299.18721      0.00017024818  0.0013499648 
   3000000   1919.8412      3654.7255      5574.5667      301.61985      2.7941102e-05  0.0013499648 
   3010000   1936.9833      3640.2858      5577.2691      300.42816      0.0064487839   0.0013499648 
   3020000   1924.3777      3584.1762      5508.5538      295.7975       0.013187306    0.0013499648 
   3030000   1973.6106      3591.2341      5564.8447      296.37998      0.007531581    0.0013499648 
   3040000   1932.4105      3606.2189      5538.6293      297.61665     -0.0082606615   0.0013499648 
   3050000   1958.4986      3647.9883      5606.4869      301.06383      0.0057846365   0.0013499648 
   3060000   2001.0324      3691.6048      5692.6372      304.66344      0.033753729    0.0013499648 
   3070000   1962.3762      3639.3716      5601.7478      300.3527      -0.0080683773   0.0013499648 
   3080000   2043.9992      3610.9252      5654.9244      298.00506      0.02538527     0.0013499648 
   3090000   1996.8725      3628.1449      5625.0173      299.42618      0.0059355467   0.0013499648 
   3100000   1902.3164      3720.581       5622.8974      307.05481      0.020005661    0.0013499648 
   3110000   1954.065       3716.2527      5670.3176      306.6976      -0.0044217475   0.0013499648 
   3120000   1987.5283      3647.7135      5635.2418      301.04115      0.0011631434   0.0013499648 
   3130000   1960.2655      3606.0697      5566.3351      297.60434      0.016480135    0.0013499648 
   3140000   1956.4035      3651.5856      5607.9892      301.36072      0.01676118     0.0013499648 
   3150000   1937.7828      3495.0869      5432.8697      288.44508      0.0057897775   0.0013499648 
   3160000   1926.8474      3682.771       5609.6184      303.9344       0.020078298    0.0013499648 
   3170000   1957.0798      3668.2494      5625.3292      302.73595      0.019322297    0.0013499648 
   3180000   1963.1407      3519.4467      5482.5874      290.45546     -0.010670118    0.0013499648 
   3190000   1973.1369      3587.2026      5560.3395      296.04727      0.036984364    0.0013499648 
   3200000   1917.4757      3620.5585      5538.0342      298.80009      0.026135416    0.0013499648 
   3210000   1907.4844      3594.3718      5501.8562      296.63893      0.0017967689   0.0013499648 
   3220000   1926.1874      3655.5707      5581.7582      301.6896       0.023746367    0.0013499648 
   3230000   1970.7621      3604.5466      5575.3087      297.47864     -0.011038319    0.0013499648 
   3240000   1964.5861      3610.6753      5575.2614      297.98443      0.0043886069   0.0013499648 
   3250000   1952.1564      3674.9362      5627.0926      303.28781     -0.015914917    0.0013499648 
   3260000   1997.9127      3561.3552      5559.268       293.91412      0.0050822675   0.0013499648 
   3270000   2033.6021      3629.7056      5663.3077      299.55498      0.0061225833   0.0013499648 
   3280000   1975.1247      3697.115       5672.2397      305.11819      0.01625505     0.0013499648 
   3290000   1984.3622      3639.1216      5623.4838      300.33208      0.023217054    0.0013499648 
   3300000   1998.2203      3702.4041      5700.6244      305.5547       0.0090014674   0.0013499648 
   3310000   1997.182       3574.9597      5572.1417      295.03688      0.0057627923   0.0013499648 
   3320000   1974.4837      3603.1698      5577.6535      297.36502      0.037583659    0.0013499648 
   3330000   1981.2917      3653.2772      5634.5689      301.50032      0.0064137273   0.0013499648 
   3340000   1976.9929      3561.9471      5538.94        293.96296     -0.0060250236   0.0013499648 
   3350000   2031.7382      3604.8521      5636.5903      297.50386     -0.012636397    0.0013499648 
   3360000   2007.8473      3543.8454      5551.6927      292.46905      0.017690973    0.0013499648 
   3370000   1977.2525      3626.4052      5603.6577      299.28261      0.0012308268   0.0013499648 
   3380000   2013.5589      3588.5632      5602.1221      296.15955      0.014986071    0.0013499648 
   3390000   1968.1104      3672.505       5640.6154      303.08717      0.034830374    0.0013499648 
   3400000   1922.6362      3654.7505      5577.3867      301.62191     -0.0047247471   0.0013499648 
   3410000   1966.5409      3659.1184      5625.6593      301.98238      0.027617489    0.0013499648 
   3420000   1941.9822      3685.2248      5627.2069      304.13691      0.0073944225   0.0013499648 
   3430000   1914.9632      3618.9528      5533.916       298.66757     -0.0092169896   0.0013499648 
   3440000   1972.0029      3716.9206      5688.9235      306.75273     -0.008215815    0.0013499648 
   3450000   1959.3143      3677.6966      5637.0109      303.51562      0.021413796    0.0013499648 
   3460000   1962.1975      3616.5271      5578.7246      298.46738      0.012369846    0.0013499648 
   3470000   1984.9881      3601.7041      5586.6921      297.24405      0.016656837    0.0013499648 
   3480000   1994.9665      3581.5824      5576.549       295.58344      0.054057466    0.0013499648 
   3490000   1925.531       3694.6416      5620.1727      304.91407     -0.013754017    0.0013499648 
   3500000   1910.2486      3593.9669      5504.2155      296.60551     -0.0060616577   0.0013499648 
   3510000   1923.3977      3628.5418      5551.9395      299.45894      0.029169121    0.0013499648 
   3520000   1901.1546      3633.3427      5534.4973      299.85515     -0.0058319821   0.0013499648 
   3530000   1983.6706      3673.3334      5657.004       303.15553      0.017719425    0.0013499648 
   3540000   1986.4178      3638.6867      5625.1046      300.29619     -0.0048612203   0.0013499648 
   3550000   1929.3031      3666.5988      5595.9019      302.59973      0.0054771784   0.0013499648 
   3560000   1960.6134      3581.9936      5542.607       295.61737      0.023638446    0.0013499648 
   3570000   1954.0496      3565.6688      5519.7184      294.27011      0.029170825    0.0013499648 
   3580000   1980.9652      3639.2525      5620.2177      300.34288     -0.016510274    0.0013499648 
   3590000   2013.6135      3638.6443      5652.2577      300.29268      0.010701258    0.0013499648 
   3600000   1959.999       3684.0891      5644.0881      304.04319      0.0013332041   0.0013499648 
   3610000   2005.0559      3652.6473      5657.7032      301.44833     -0.018067232    0.0013499648 
   3620000   1971.6571      3587.5463      5559.2034      296.07563      0.019744726    0.0013499648 
   3630000   1942.9693      3683.7671      5626.7363      304.01661     -0.013105198    0.0013499648 
   3640000   1912.0163      3628.9747      5540.9911      299.49467      0.0047682116   0.0013499648 
   3650000   1923.5464      3554.2535      5477.8         293.32802      0.0042660101   0.0013499648 
   3660000   2001.8934      3649.8369      5651.7303      301.21639      0.026765941    0.0013499648 
   3670000   1929.6446      3598.9679      5528.6125      297.01824     -0.02612346     0.0013499648 
   3680000   1945.7129      3603.1711      5548.8839      297.36512      0.01134337     0.0013499648 
   3690000   2003.3952      3687.1856      5690.5808      304.29874      0.034501082    0.0013499648 
   3700000   1968.7856      3661.9003      5630.6859      302.21197      0.0085245962   0.0013499648 
   3710000   1896.4557      3619.9571      5516.4127      298.75045      0.0025854109   0.0013499648 
   3720000   1988.0187      3580.1352      5568.1538      295.464       -0.027672364    0.0013499648 
   3730000   1960.0958      3565.8806      5525.9764      294.28759      0.011815151    0.0013499648 
   3740000   1981.7784      3653.6158      5635.3942      301.52826     -0.0046106425   0.0013499648 
   3750000   2024.7809      3572.4752      5597.2561      294.83183      0.0025638005   0.0013499648 
   3760000   1982.3739      3630.1892      5612.5631      299.59489     -0.011186733    0.0013499648 
   3770000   1944.4424      3581.1496      5525.592       295.54772      0.03721444     0.0013499648 
   3780000   1940.5897      3563.6369      5504.2266      294.10242      0.0039569406   0.0013499648 
   3790000   1958.8851      3644.5195      5603.4046      300.77756      0.0060533729   0.0013499648 
   3800000   1974.2877      3626.766       5601.0536      299.31238      0.014763499    0.0013499648 
   3810000   1929.09        3693.8044      5622.8944      304.84498      0.012202835    0.0013499648 
   3820000   1936.3001      3660.0228      5596.3229      302.05702      0.017836944    0.0013499648 
   3830000   1955.2523      3702.0883      5657.3406      305.52864      0.0037721098   0.0013499648 
   3840000   1992.1536      3694.7758      5686.9294      304.92514      0.0020359023   0.0013499648 
   3850000   1949.2755      3532.4281      5481.7036      291.52679      0.0071107055   0.0013499648 
   3860000   1946.4726      3606.9573      5553.4298      297.67759      0.011601028    0.0013499648 
   3870000   1938.1461      3585.138       5523.2841      295.87688      0.031441572    0.0013499648 
   3880000   1954.2236      3721.5849      5675.8085      307.13767      0.031202205    0.0013499648 
   3890000   1945.5962      3633.3212      5578.9174      299.85337     -0.003609892    0.0013499648 
   3900000   1929.2226      3660.583       5589.8057      302.10326      0.016279403    0.0013499648 
   3910000   2001.3447      3601.7012      5603.0459      297.24382      0.0069661421   0.0013499648 
   3920000   2003.0943      3614.3193      5617.4137      298.28517      0.017750709    0.0013499648 
   3930000   1964.8409      3678.5217      5643.3626      303.58372      0.024685675    0.0013499648 
   3940000   1946.7921      3624.8622      5571.6544      299.15527     -0.0027565379   0.0013499648 
   3950000   2007.7566      3621.0225      5628.7791      298.83838     -0.0068335901   0.0013499648 
   3960000   2041.562       3521.5913      5563.1533      290.63245      0.012939413    0.0013499648 
   3970000   1989.0334      3650.1749      5639.2083      301.24429      0.0042367131   0.0013499648 
   3980000   1932.1474      3631.022       5563.1694      299.66362      0.0042892729   0.0013499648 
   3990000   1939.6171      3637.8904      5577.5074      300.23046      0.009599244    0.0013499648 
   4000000   1976.6138      3522.3625      5498.9763      290.6961      -0.01546838     0.0013499648 
   4010000   1970.9066      3564.722       5535.6286      294.19197      0.0064928528   0.0013499648 
   4020000   1970.7229      3650.2076      5620.9305      301.24699      0.012865167    0.0013499648 
   4030000   1917.226       3747.5299      5664.7559      309.27888      0.0058867147   0.0013499648 
   4040000   1978.036       3622.6577      5600.6937      298.97333      0.0076227314   0.0013499648 
   4050000   1983.9504      3581.6057      5565.5562      295.58536      0.024718893    0.0013499648 
   4060000   1983.4395      3531.4733      5514.9127      291.44799      0.0038052057   0.0013499648 
   4070000   1979.7079      3583.945       5563.6529      295.77842     -0.0079747984   0.0013499648 
   4080000   1919.8245      3627.4694      5547.294       299.37044      0.036511739    0.0013499648 
   4090000   1900.9432      3673.3778      5574.321       303.15919      0.0098761874   0.0013499648 
   4100000   2020.2994      3642.1993      5662.4987      300.58607     -0.011845598    0.0013499648 
   4110000   1974.3905      3643.5776      5617.9681      300.69982      0.024385594    0.0013499648 
   4120000   1940.9986      3669.4682      5610.4668      302.83654      0.021358802    0.0013499648 
   4130000   1987.7009      3640.4931      5628.194       300.44526     -0.023190496    0.0013499648 
   4140000   1976.2775      3681.5973      5657.8748      303.83754      0.012813919    0.0013499648 
   4150000   1954.37        3678.6961      5633.0661      303.5981       0.032636788    0.0013499648 
   4160000   1917.3953      3620.0548      5537.4501      298.75851      0.0048047239   0.0013499648 
   4170000   1928.3492      3683.7403      5612.0895      304.0144       0.047261321    0.0013499648 
   4180000   1981.4813      3611.9353      5593.4166      298.08842      0.00288811     0.0013499648 
   4190000   2019.5785      3541.4241      5561.0026      292.26922     -0.0049991426   0.0013499648 
   4200000   1930.5369      3663.2144      5593.7512      302.32042      0.0049990566   0.0013499648 
   4210000   1989.1272      3521.0596      5510.1867      290.58856     -0.0066621147   0.0013499648 
   4220000   1935.5462      3611.8297      5547.376       298.07971      0.024556434    0.0013499648 
   4230000   1869.6345      3684.3493      5553.9837      304.06465      0.016060822    0.0013499648 
   4240000   1945.8058      3661.0615      5606.8673      302.14275      0.023542394    0.0013499648 
   4250000   1950.6595      3587.3628      5538.0223      296.06049      0.020343693    0.0013499648 
   4260000   1943.2755      3626.184       5569.4595      299.26435     -0.015063233    0.0013499648 
   4270000   2001.1339      3606.8562      5607.99        297.66925      0.024248175    0.0013499648 
   4280000   1873.7109      3655.9886      5529.6995      301.72409      0.033150938    0.0013499648 
   4290000   1977.5194      3705.362       5682.8815      305.79881      0.0039998965   0.0013499648 
   4300000   1980.5128      3701.3728      5681.8856      305.46959      0.015121366    0.0013499648 
   4310000   1937.4329      3598.2995      5535.7324      296.96308      0.01506408     0.0013499648 
   4320000   1884.1861      3577.8886      5462.0747      295.27859      0.02343061     0.0013499648 
   4330000   1942.1788      3622.083       5564.2618      298.9259      -0.0028804791   0.0013499648 
   4340000   1994.5495      3624.1977      5618.7472      299.10042      0.012611339    0.0013499648 
   4350000   1957.4678      3694.0045      5651.4723      304.86149      0.049079267    0.0013499648 
   4360000   1948.2949      3606.3494      5554.6443      297.62743      0.027992274    0.0013499648 
   4370000   1974.6878      3611.4538      5586.1416      298.04869      0.0068871088   0.0013499648 
   4380000   1933.2655      3652.4886      5585.754       301.43523      0.030919833    0.0013499648 
   4390000   1982.8191      3618.862       5601.6811      298.66007      0.0038789168   0.0013499648 
   4400000   1978.0856      3670.8996      5648.9852      302.95467      0.009769894    0.0013499648 
   4410000   1946.0464      3623.2358      5569.2822      299.02104      0.021113648    0.0013499648 
   4420000   2013.0462      3623.4505      5636.4967      299.03876      0.018579779    0.0013499648 
   4430000   1932.2269      3610.0408      5542.2677      297.93208      0.013745015    0.0013499648 
   4440000   2066.9626      3707.535       5774.4975      305.97814      0.02520392     0.0013499648 
   4450000   1948.5892      3658.1229      5606.7121      301.90023     -0.004514943    0.0013499648 
   4460000   1949.4791      3729.738       5679.2171      307.81053     -0.0040668661   0.0013499648 
   4470000   2002.7159      3674.8253      5677.5412      303.27866     -0.0058035746   0.0013499648 
   4480000   1873.455       3526.9729      5400.428       291.07659      0.025470625    0.0013499648 
   4490000   1959.2471      3569.1043      5528.3514      294.55364     -0.0059469498   0.0013499648 
   4500000   1942.6248      3687.5165      5630.1414      304.32605      0.018810918    0.0013499648 
   4510000   1965.457       3698.1294      5663.5864      305.20192      0.018697902    0.0013499648 
   4520000   1995.305       3698.5031      5693.8081      305.23275     -0.0064927819   0.0013499648 
   4530000   1932.8646      3637.7326      5570.5972      300.21744      0.01914479     0.0013499648 
   4540000   1971.3611      3680.6221      5651.9832      303.75706     -0.019859817    0.0013499648 
   4550000   1926.0527      3628.2822      5554.3349      299.43751      0.01924682     0.0013499648 
   4560000   2047.1325      3623.3801      5670.5125      299.03295      0.010055925    0.0013499648 
   4570000   1984.7776      3576.7408      5561.5185      295.18387      0.0080897742   0.0013499648 
   4580000   1958.5578      3572.4758      5531.0336      294.83188      0.01831297     0.0013499648 
   4590000   1926.368       3703.836       5630.2039      305.67287      0.023671318    0.0013499648 
   4600000   1990.9542      3688.9238      5679.878       304.44219      0.0087674316   0.0013499648 
   4610000   1931.8937      3685.2141      5617.1078      304.13603      0.020864086    0.0013499648 
   4620000   1930.3866      3712.0935      5642.4801      306.35435      0.02782454     0.0013499648 
   4630000   1984.1656      3612.6537      5596.8194      298.14772      0.0053948338   0.0013499648 
   4640000   1919.5783      3644.1986      5563.7769      300.75107      0.015147063    0.0013499648 
   4650000   1975.689       3670.357       5646.046       302.90989      0.010233819    0.0013499648 
   4660000   1950.76        3682.888       5633.648       303.94406      0.00092456266  0.0013499648 
   4670000   1963.6797      3704.1176      5667.7973      305.69611      0.024436961    0.0013499648 
   4680000   1903.4408      3597.202       5500.6428      296.8725       0.0050976284   0.0013499648 
   4690000   1944.8445      3604.9062      5549.7507      297.50832     -0.0056102146   0.0013499648 
   4700000   1933.9662      3683.6463      5617.6126      304.00664      0.028904926    0.0013499648 
   4710000   1952.9396      3713.6674      5666.607       306.48425     -0.0099237504   0.0013499648 
   4720000   1998.4869      3595.9555      5594.4424      296.76963      0.012714493    0.0013499648 
   4730000   1916.575       3651.4197      5567.9946      301.34702      0.0041521091   0.0013499648 
   4740000   2024.1089      3623.9227      5648.0316      299.07773     -0.016549939    0.0013499648 
   4750000   1955.4524      3602.534       5557.9864      297.31254      0.00082765593  0.0013499648 
   4760000   1977.2295      3654.7081      5631.9376      301.61841      0.0035390777   0.0013499648 
   4770000   1985.1049      3628.6077      5613.7126      299.46437      0.029330633    0.0013499648 
   4780000   1926.031       3650.2865      5576.3175      301.2535       0.012296719    0.0013499648 
   4790000   1977.0286      3666.5962      5643.6248      302.59952      0.013137947    0.0013499648 
   4800000   1909.9696      3607.5794      5517.549       297.72894      0.025042319    0.0013499648 
   4810000   1945.4108      3661.1701      5606.5809      302.15171     -0.001700664    0.0013499648 
   4820000   1950.1219      3652.2416      5602.3635      301.41486      0.0030346144   0.0013499648 
   4830000   1972.0439      3604.268       5576.3119      297.45565      0.0055503731   0.0013499648 
   4840000   1968.4701      3656.5505      5625.0205      301.77046      0.0099912108   0.0013499648 
   4850000   1977.3946      3610.0757      5587.4703      297.93495     -0.0074253932   0.0013499648 
   4860000   2006.617       3616.8193      5623.4363      298.49149     -0.0073992549   0.0013499648 
   4870000   1970.3628      3613.5002      5583.863       298.21757     -0.00079628556  0.0013499648 
   4880000   2008.0236      3708.5945      5716.6181      306.06558      0.0059815844   0.0013499648 
   4890000   1928.4934      3585.398       5513.8914      295.89834     -0.010244723    0.0013499648 
   4900000   1980.3998      3585.3731      5565.7729      295.89628      0.014732738    0.0013499648 
   4910000   1943.9983      3588.3443      5532.3426      296.14149      0.030080287    0.0013499648 
   4920000   1950.2824      3612.2116      5562.4939      298.11122      0.0070445537   0.0013499648 
   4930000   1871.1981      3684.4911      5555.6892      304.07636      0.0027753863   0.0013499648 
   4940000   1952.662       3592.211       5544.873       296.4606       0.045010918    0.0013499648 
   4950000   2020.4157      3657.423       5677.8386      301.84246      0.014758129    0.0013499648 
   4960000   1943.244       3582.2677      5525.5117      295.63999      0.0011379508   0.0013499648 
   4970000   1923.5659      3650.4079      5573.9738      301.26351     -0.0074744721   0.0013499648 
   4980000   1980.5629      3565.4346      5545.9975      294.25078     -0.015604932    0.0013499648 
   4990000   1969.8459      3696.756       5666.6019      305.08857      0.011394186    0.0013499648 
   5000000   1939.2354      3679.8141      5619.0495      303.69037      0.0027865376   0.0013499648 
Loop time of 224.64 on 32 procs for 5000000 steps with 4066 atoms

Performance: 19230.808 ns/day, 0.001 hours/ns, 22257.880 timesteps/s, 90.501 Matom-step/s
99.3% CPU use with 32 MPI tasks x 1 OpenMP threads

MPI task timing breakdown:
Section |  min time  |  avg time  |  max time  |%varavg| %total
---------------------------------------------------------------
Pair    | 34.237     | 46.84      | 131.4      | 249.0 | 20.85
Bond    | 12.824     | 20.326     | 32.138     | 118.5 |  9.05
Neigh   | 0.78651    | 0.80204    | 0.81397    |   0.7 |  0.36
Comm    | 59.68      | 138.74     | 162.69     | 164.3 | 61.76
Output  | 0.053115   | 0.073015   | 0.16235    |   6.9 |  0.03
Modify  | 8.0741     | 12.379     | 19.648     |  86.2 |  5.51
Other   |            | 5.48       |            |       |  2.44

Nlocal:        127.062 ave         241 max          57 min
Histogram: 3 6 4 6 5 4 0 1 1 2
Nghost:        81.9062 ave         145 max          27 min
Histogram: 1 2 6 3 9 1 5 2 2 1
Neighs:        241.469 ave         671 max         103 min
Histogram: 8 10 7 3 0 0 2 1 0 1

Total # of neighbors = 7727
Ave neighs/atom = 1.9003935
Ave special neighs/atom = 4.8165273
Neighbor list builds = 12910
Dangerous builds = 0

# --- Production (1 µs) -------------------------------------------
unfix favg
fix favg all ave/time 10000 10 100000 v_vpe v_vke v_vT v_vE v_vRg     file outputs/thermo_${tag}_production.dat
fix favg all ave/time 10000 10 100000 v_vpe v_vke v_vT v_vE v_vRg     file outputs/thermo_7LYJ_aso_n400_production.dat

restart 10000000 outputs/backup_${tag}.*.restart
restart 10000000 outputs/backup_7LYJ_aso_n400.*.restart
run 100000000
Generated 0 of 6 mixed pair_coeff terms from geometric mixing rule
Per MPI rank memory allocation (min/avg/max) = 8.674 | 8.762 | 8.951 Mbytes
   Step         PotEng         KinEng         TotEng          Temp          Press         Density    
   5000000   1939.2354      3679.8141      5619.0495      303.69037      0.0027865376   0.0013499648 
   5010000   1997.5374      3558.5591      5556.0964      293.68335      0.0022138428   0.0013499648 
   5020000   1912.242       3671.5464      5583.7884      303.00805      0.021557326    0.0013499648 
   5030000   1978.3394      3664.2762      5642.6156      302.40805      0.0093716009   0.0013499648 
   5040000   1954.3226      3659.5976      5613.9202      302.02193     -0.04334112     0.0013499648 
   5050000   1905.9452      3587.6304      5493.5756      296.08257      0.0092691997   0.0013499648 
   5060000   1944.9005      3649.8009      5594.7015      301.21342      0.028323284    0.0013499648 
   5070000   1920.714       3593.9196      5514.6336      296.60161      0.017616517    0.0013499648 
   5080000   1968.1374      3577.456       5545.5935      295.24289      0.0047578664   0.0013499648 
   5090000   1991.1575      3578.5921      5569.7496      295.33665      0.019228817    0.0013499648 
   5100000   1957.3125      3590.7809      5548.0934      296.34258      0.038067618    0.0013499648 
   5110000   2024.5645      3656.9553      5681.5198      301.80387      0.014896365    0.0013499648 
   5120000   1933.5791      3593.628       5527.2071      296.57754      0.019262786    0.0013499648 
   5130000   1974.9602      3651.3324      5626.2926      301.33982      0.025645046    0.0013499648 
   5140000   1958.4345      3673.8157      5632.2502      303.19533      0.011898441    0.0013499648 
   5150000   1966.3224      3689.0163      5655.3387      304.44982     -0.0157482      0.0013499648 
   5160000   1929.1198      3584.0784      5513.1982      295.78943      0.009834121    0.0013499648 
   5170000   1919.2404      3620.3965      5539.6369      298.78671      0.021527066    0.0013499648 
   5180000   1917.8351      3694.2978      5612.1329      304.88569      0.020031905    0.0013499648 
   5190000   1973.5046      3571.2691      5544.7737      294.73229      0.027099955    0.0013499648 
   5200000   1923.6762      3696.0663      5619.7425      305.03165      0.0083237154   0.0013499648 
   5210000   1910.8946      3684.5521      5595.4468      304.0814       0.021178488    0.0013499648 
   5220000   1850.6765      3617.3385      5468.0149      298.53434      0.015471498    0.0013499648 
   5230000   1953.4069      3642.1943      5595.6012      300.58566      0.011724852    0.0013499648 
   5240000   1985.5575      3587.6344      5573.1919      296.0829       0.010900889    0.0013499648 
   5250000   1995.4685      3655.2215      5650.6901      301.66078      0.0098779627   0.0013499648 
   5260000   1947.4786      3679.6042      5627.0829      303.67305      0.03173068     0.0013499648 
   5270000   1954.6611      3590.6774      5545.3385      296.33403      0.051226071    0.0013499648 
   5280000   1967.5697      3545.1884      5512.7581      292.57989     -0.0055842425   0.0013499648 
   5290000   1922.2089      3647.0152      5569.2241      300.98352      0.051820099    0.0013499648 
   5300000   1986.3866      3635.6893      5622.076       300.04881      0.011763282    0.0013499648 
   5310000   1979.0519      3678.0763      5657.1282      303.54696      0.0024577464   0.0013499648 
   5320000   1915.1983      3705.3406      5620.5388      305.79704      0.023558476    0.0013499648 
   5330000   1970.3902      3655.8184      5626.2087      301.71004      0.0085006599   0.0013499648 
   5340000   1968.5126      3663.4652      5631.9778      302.34112     -0.0043655418   0.0013499648 
   5350000   2055.7303      3615.7095      5671.4398      298.39991      0.016853425    0.0013499648 
   5360000   1941.2297      3605.8835      5547.1132      297.58898     -0.008526052    0.0013499648 
   5370000   1979.1592      3550.8872      5530.0464      293.0502       0.019169711    0.0013499648 
   5380000   1959.5949      3660.0156      5619.6105      302.05643      0.012019767    0.0013499648 
   5390000   1973.4642      3493.2225      5466.6868      288.29121     -0.0010473684   0.0013499648 
   5400000   1972.9898      3571.2537      5544.2436      294.73102      0.0017199362   0.0013499648 
   5410000   1931.5083      3641.7631      5573.2714      300.55008     -0.010284669    0.0013499648 
   5420000   1956.1685      3625.6486      5581.8171      299.22016      0.036520146    0.0013499648 
   5430000   1946.789       3672.5105      5619.2995      303.08762      0.036998222    0.0013499648 
   5440000   1985.5828      3668.9937      5654.5765      302.79738      0.019369402    0.0013499648 
   5450000   1961.4754      3645.7114      5607.1868      300.87592      0.0029321625   0.0013499648 
   5460000   2038.8725      3695.9685      5734.8409      305.02357      0.03495386     0.0013499648 
   5470000   1941.2792      3681.9223      5623.2016      303.86436     -0.00082927321  0.0013499648 
   5480000   2020.2462      3620.2321      5640.4783      298.77315     -0.0026349565   0.0013499648 
   5490000   1943.8533      3596.5606      5540.4139      296.81957     -0.011548818    0.0013499648 
   5500000   1888.6756      3578.7891      5467.4647      295.35291      0.009866758    0.0013499648 
   5510000   1929.526       3646.5049      5576.0309      300.94141     -0.0099725308   0.0013499648 
   5520000   1902.7805      3665.3048      5568.0854      302.49294      0.003777305    0.0013499648 
   5530000   1922.8832      3618.0612      5540.9444      298.59398     -0.0026155573   0.0013499648 
   5540000   1916.5426      3649.6205      5566.1631      301.19853     -0.023516927    0.0013499648 
   5550000   1919.8035      3573.0407      5492.8442      294.87851      0.023155018    0.0013499648 
   5560000   1869.2572      3654.3825      5523.6397      301.59154      0.028196361    0.0013499648 
   5570000   1999.5201      3666.2374      5665.7575      302.56991      0.011343802    0.0013499648 
   5580000   1899.2725      3720.2934      5619.5658      307.03108     -0.017579732    0.0013499648 
   5590000   1919.806       3706.9697      5626.7756      305.93149      0.014160989    0.0013499648 
   5600000   1940.244       3595.6358      5535.8798      296.74325      0.014016105    0.0013499648 
   5610000   1902.01        3613.8497      5515.8596      298.24641      0.018358867    0.0013499648 
   5620000   1943.5543      3591.7008      5535.2551      296.4185       0.00864789     0.0013499648 
   5630000   1936.2662      3619.1895      5555.4557      298.6871      -0.025372653    0.0013499648 
   5640000   1872.3009      3567.8763      5440.1771      294.45229      0.014055877    0.0013499648 
   5650000   1917.7389      3624.0234      5541.7622      299.08604     -0.011524163    0.0013499648 
   5660000   1977.3779      3583.4995      5560.8774      295.74165      0.032094064    0.0013499648 
   5670000   1922.4956      3672.7819      5595.2775      303.11002      0.020616349    0.0013499648 
   5680000   1885.5008      3628.7777      5514.2786      299.47841      0.030998706    0.0013499648 
   5690000   1955.5392      3710.7929      5666.3321      306.24702      0.053575307    0.0013499648 
   5700000   2003.7116      3546.9205      5550.6321      292.72283     -0.031228225    0.0013499648 
   5710000   1941.2881      3624.0495      5565.3376      299.08819      0.015687915    0.0013499648 
   5720000   1912.4941      3593.8539      5506.348       296.59619      0.013335271    0.0013499648 
   5730000   1982.2445      3604.4275      5586.672       297.46881      0.0044031891   0.0013499648 
   5740000   1920.184       3638.4877      5558.6717      300.27976      0.034540401    0.0013499648 
   5750000   1972.5899      3606.3891      5578.979       297.63071      0.010450827    0.0013499648 
   5760000   1952.0053      3667.8639      5619.8692      302.70414     -0.0027324838   0.0013499648 
   5770000   1956.9421      3623.4867      5580.4288      299.04175     -0.016731435    0.0013499648 
   5780000   2001.9142      3648.4962      5650.4103      301.10575     -0.013708216    0.0013499648 
   5790000   1963.0687      3655.5972      5618.6658      301.69178      0.0020310774   0.0013499648 
   5800000   1945.0066      3657.378       5602.3846      301.83875     -0.019388038    0.0013499648 
   5810000   1914.5524      3590.5443      5505.0967      296.32305      0.021269055    0.0013499648 
   5820000   1994.9042      3618.965       5613.8692      298.66858      0.016140325    0.0013499648 
   5830000   1926.3315      3607.9691      5534.3006      297.7611       0.02750521     0.0013499648 
   5840000   1929.8124      3629.1712      5558.9836      299.51088      0.0053193994   0.0013499648 
   5850000   1894.2469      3628.9671      5523.214       299.49404      0.0043026107   0.0013499648 
   5860000   1916.5161      3614.8598      5531.3759      298.32978      0.01906882     0.0013499648 
   5870000   1985.9019      3602.8027      5588.7046      297.33472      0.023420518    0.0013499648 
   5880000   1909.4083      3594.0706      5503.479       296.61408      0.015639365    0.0013499648 
   5890000   1913.2175      3690.0718      5603.2893      304.53693     -0.0027593696   0.0013499648 
   5900000   1949.3979      3570.5435      5519.9414      294.67241      0.0052684498   0.0013499648 
   5910000   1982.7539      3625.9407      5608.6946      299.24427      0.0089833557   0.0013499648 
   5920000   1916.7221      3714.3383      5631.0605      306.53962      0.0098036871   0.0013499648 
   5930000   1902.8402      3667.7764      5570.6166      302.69692      0.0016894506   0.0013499648 
   5940000   1947.4119      3643.4634      5590.8753      300.6904      -0.020767121    0.0013499648 
   5950000   1977.5895      3587.1318      5564.7213      296.04142     -0.027309177    0.0013499648 
   5960000   1985.1462      3608.0875      5593.2337      297.77087      0.0021693267   0.0013499648 
   5970000   1987.454       3628.7488      5616.2028      299.47602     -0.016792887    0.0013499648 
   5980000   1969.8502      3635.1762      5605.0264      300.00647      0.014466173    0.0013499648 
   5990000   1944.708       3635.2329      5579.9409      300.01114      0.029373231    0.0013499648 
   6000000   1960.3961      3646.287       5606.683       300.92342      0.0046376329   0.0013499648 
   6010000   1951.3145      3659.2668      5610.5813      301.99464      0.011744193    0.0013499648 
   6020000   1966.1004      3652.8327      5618.9331      301.46363     -0.023907999    0.0013499648 
   6030000   1981.494       3560.5014      5541.9953      293.84365     -0.015426449    0.0013499648 
   6040000   1934.917       3556.1221      5491.0391      293.48223     -0.0071561693   0.0013499648 
   6050000   1950.5851      3602.2924      5552.8776      297.29261      0.0023368779   0.0013499648 
   6060000   1898.2728      3615.5232      5513.796       298.38453      0.029343095    0.0013499648 
   6070000   1939.9867      3639.8814      5579.8681      300.39478     -0.020402534    0.0013499648 
   6080000   1857.2696      3683.4931      5540.7628      303.994        0.016648447    0.0013499648 
   6090000   1871.8188      3620.1485      5491.9673      298.76625      0.0021476028   0.0013499648 
   6100000   1906.6163      3621.2533      5527.8696      298.85743      0.017868534    0.0013499648 
   6110000   1942.0743      3656.4591      5598.5335      301.76292      0.0067867151   0.0013499648 
   6120000   1950.9974      3711.6276      5662.6251      306.31591     -0.024079083    0.0013499648 
   6130000   1960.3965      3710.5256      5670.9222      306.22496      0.0050618341   0.0013499648 
   6140000   1962.7045      3660.2732      5622.9777      302.07769      0.0034443445   0.0013499648 
   6150000   1948.3644      3661.3514      5609.7158      302.16667     -0.0020638204   0.0013499648 
   6160000   2001.8546      3610.2173      5612.0719      297.94664     -0.0045924564   0.0013499648 
   6170000   1913.8393      3642.4708      5556.31        300.60848      0.024740613    0.0013499648 
   6180000   1922.0489      3529.4117      5451.4606      291.27785      0.011014541    0.0013499648 
   6190000   1953.6092      3571.8658      5525.475       294.78154      0.0030821879   0.0013499648 
   6200000   1926.1867      3753.6239      5679.8106      309.78181      0.013017909    0.0013499648 
   6210000   2011.6043      3691.1009      5702.7051      304.62186     -0.017916768    0.0013499648 
   6220000   1974.0518      3634.7652      5608.817       299.97255      0.040341305    0.0013499648 
   6230000   1967.741       3634.0032      5601.7442      299.90966      0.0049655075   0.0013499648 
   6240000   1941.6796      3552.3354      5494.0149      293.16972      0.020804818    0.0013499648 
   6250000   1972.4555      3649.9991      5622.4546      301.22978      0.0024011214   0.0013499648 
   6260000   1929.6768      3562.2578      5491.9346      293.9886       0.014824225    0.0013499648 
   6270000   1931.7327      3636.7865      5568.5192      300.13936      0.012938139    0.0013499648 
   6280000   1979.5759      3643.3883      5622.9642      300.6842       0.021245762    0.0013499648 
   6290000   1980.8877      3648.441       5629.3287      301.10119      0.029749835    0.0013499648 
   6300000   1912.4768      3731.4807      5643.9575      307.95436      0.022160893    0.0013499648 
   6310000   2000.1382      3604.612       5604.7502      297.48404      0.0014186157   0.0013499648 
   6320000   1939.2619      3562.3826      5501.6444      293.9989       0.013523868    0.0013499648 
   6330000   1947.5537      3552.5782      5500.1319      293.18976      0.022010214    0.0013499648 
   6340000   1963.9548      3620.379       5584.3338      298.78528      0.0048942134   0.0013499648 
   6350000   1927.3458      3711.7961      5639.1418      306.3298       0.00079592443  0.0013499648 
   6360000   1963.9259      3664.1143      5628.0403      302.39469     -0.0061168259   0.0013499648 
   6370000   2068.5751      3538.5468      5607.1218      292.03176     -0.00095364051  0.0013499648 
   6380000   1917.6371      3650.0604      5567.6975      301.23484      0.0078617056   0.0013499648 
   6390000   1956.4991      3629.3883      5585.8875      299.5288       0.020654258    0.0013499648 
   6400000   1912.6646      3546.3096      5458.9742      292.67242      0.0032734727   0.0013499648 
   6410000   1950.8609      3594.2156      5545.0765      296.62604      0.010126357    0.0013499648 
   6420000   1933.7474      3583.8245      5517.5719      295.76847     -0.0017463121   0.0013499648 
   6430000   1943.3787      3573.4819      5516.8606      294.91491      0.0018385306   0.0013499648 
   6440000   1930.0333      3603.6951      5533.7285      297.40837      0.011844408    0.0013499648 
   6450000   1909.7724      3630.5645      5540.3369      299.62587      0.01143559     0.0013499648 
   6460000   1933.4216      3603.2425      5536.664       297.37101      0.025989813    0.0013499648 
   6470000   1932.2258      3668.8411      5601.0669      302.78479     -0.017728295    0.0013499648 
   6480000   1980.3301      3671.574       5651.9041      303.01033     -0.0041385117   0.0013499648 
   6490000   1918.4135      3632.6754      5551.0889      299.80008      0.021552014    0.0013499648 
   6500000   1907.0912      3653.2622      5560.3534      301.49908      0.014525061    0.0013499648 
   6510000   1998.547       3622.0418      5620.5887      298.9225       0.013533798    0.0013499648 
   6520000   1915.4861      3566.1864      5481.6726      294.31283      0.0040710388   0.0013499648 
   6530000   1949.6172      3569.4921      5519.1093      294.58564      0.0092425056   0.0013499648 
   6540000   1925.5886      3607.0869      5532.6755      297.68829      0.0025300702   0.0013499648 
   6550000   1870.0471      3590.224       5460.2711      296.29662      0.0075361013   0.0013499648 
   6560000   1963.3122      3581.2878      5544.6         295.55912     -0.017346871    0.0013499648 
   6570000   1940.6103      3534.7619      5475.3722      291.7194       0.022521769    0.0013499648 
   6580000   1967.1573      3644.8838      5612.0411      300.80763      0.016978242    0.0013499648 
   6590000   1962.6294      3585.135       5547.7644      295.87663     -0.0086329211   0.0013499648 
   6600000   1906.7563      3678.1347      5584.891       303.55178      0.038418842    0.0013499648 
   6610000   1945.3774      3708.9183      5654.2957      306.09231      0.022148376    0.0013499648 
   6620000   1968.0662      3687.4656      5655.5318      304.32185     -0.0077742436   0.0013499648 
   6630000   1957.869       3616.2196      5574.0886      298.442        0.0066118683   0.0013499648 
   6640000   2003.6834      3587.6673      5591.3506      296.08561      0.0022062092   0.0013499648 
   6650000   1980.8684      3524.0309      5504.8993      290.83379      0.01533499     0.0013499648 
   6660000   1922.6167      3668.3871      5591.0038      302.74732     -0.0081540359   0.0013499648 
   6670000   1951.0736      3669.7604      5620.8341      302.86066     -0.012350367    0.0013499648 
   6680000   1866.2025      3572.3786      5438.5812      294.82386      0.025048644    0.0013499648 
   6690000   1876.6378      3688.6081      5565.2459      304.41613     -0.003796705    0.0013499648 
   6700000   1915.1161      3575.4897      5490.6058      295.08061      0.016815666    0.0013499648 
   6710000   1935.1359      3631.2693      5566.4052      299.68404      0.029333693    0.0013499648 
   6720000   1900.2733      3644.7806      5545.0539      300.79911      0.033841042    0.0013499648 
   6730000   1899.7828      3726.7875      5626.5703      307.56703      0.010273771    0.0013499648 
   6740000   1943.8342      3550.0823      5493.9165      292.98377      0.0093383684   0.0013499648 
   6750000   1951.0634      3596.1508      5547.2142      296.78575      0.011514086    0.0013499648 
   6760000   1914.9062      3604.0357      5518.9419      297.43648      0.0086305052   0.0013499648 
   6770000   2006.5489      3562.8946      5569.4436      294.04116     -0.0005377104   0.0013499648 
   6780000   1975.7541      3577.868       5553.6221      295.27689     -0.0017397716   0.0013499648 
   6790000   1927.4206      3641.4509      5568.8714      300.5243       0.030430545    0.0013499648 
   6800000   1918.0187      3630.7644      5548.7831      299.64237     -0.014066974    0.0013499648 
   6810000   1921.9812      3647.8435      5569.8247      301.05188      0.037145088    0.0013499648 
   6820000   1975.1407      3585.3468      5560.4876      295.89411     -0.00029304431  0.0013499648 
   6830000   1994.4513      3633.5147      5627.966       299.86934      0.028863575    0.0013499648 
   6840000   2013.23        3667.8463      5681.0764      302.70269     -0.017502198    0.0013499648 
   6850000   1938.98        3640.5846      5579.5646      300.45281      0.0011814689   0.0013499648 
   6860000   1922.7659      3607.5173      5530.2831      297.72381      0.024281109    0.0013499648 
   6870000   1960.7421      3659.786       5620.528       302.03748      0.018785603    0.0013499648 
   6880000   1929.3619      3629.784       5559.1459      299.56145      0.013100068    0.0013499648 
   6890000   2006.2413      3611.2866      5617.528       298.03489     -0.0029273972   0.0013499648 
   6900000   1897.3673      3640.0027      5537.37        300.40479      0.025844398    0.0013499648 
   6910000   1947.6559      3581.7096      5529.3654      295.59393     -0.011292711    0.0013499648 
   6920000   1929.28        3573.8254      5503.1054      294.94326      0.021312669    0.0013499648 
   6930000   1996.1656      3579.562       5575.7276      295.4167      -0.0024749126   0.0013499648 
   6940000   1969.6708      3716.0906      5685.7614      306.68423      0.023408831    0.0013499648 
   6950000   1945.2485      3644.8641      5590.1126      300.806        0.012639048    0.0013499648 
   6960000   1976.9885      3575.9376      5552.9261      295.11758      0.037701183    0.0013499648 
   6970000   1990.3714      3684.1918      5674.5632      304.05166     -0.018792251    0.0013499648 
   6980000   1939.594       3613.2253      5552.8193      298.19489      0.0037638535   0.0013499648 
   6990000   1869.6054      3668.5263      5538.1316      302.7588       0.02570775     0.0013499648 
   7000000   1905.8278      3660.4735      5566.3013      302.09422      0.048709092    0.0013499648 
   7010000   1952.9153      3663.2277      5616.143       302.32152      0.022634967    0.0013499648 
   7020000   1958.2375      3591.5692      5549.8066      296.40763      0.0053283957   0.0013499648 
   7030000   1992.8523      3687.0966      5679.9489      304.29139     -0.019426512    0.0013499648 
   7040000   1917.5728      3550.0278      5467.6006      292.97928      0.0061119546   0.0013499648 
   7050000   1888.914       3553.9378      5442.8519      293.30197     -0.014959882    0.0013499648 
   7060000   1931.5808      3565.2961      5496.877       294.23935      0.027093315    0.0013499648 
   7070000   1907.4551      3676.539       5583.9941      303.42008      0.010753474    0.0013499648 
[...]
 103190000   1977.2576      3676.1316      5653.3892      303.38646      0.0096312088   0.0013499648 
 103200000   1935.789       3681.5949      5617.3838      303.83734     -0.0074456073   0.0013499648 
 103210000   1916.6442      3586.2828      5502.927       295.97136      0.0036346615   0.0013499648 
 103220000   1997.4808      3644.1293      5641.6101      300.74535      0.0092398882   0.0013499648 
 103230000   1937.015       3728.6056      5665.6206      307.71708      0.0096823501   0.0013499648 
 103240000   1906.5949      3614.3405      5520.9354      298.28692      0.019021585    0.0013499648 
 103250000   1980.7244      3697.0419      5677.7663      305.11216      0.032854405    0.0013499648 
 103260000   1953.1835      3614.2008      5567.3843      298.27539      0.026721596    0.0013499648 
 103270000   1970.5798      3707.7595      5678.3393      305.99667      0.020067639    0.0013499648 
 103280000   1932.6532      3603.3198      5535.973       297.3774      -0.0024345274   0.0013499648 
 103290000   1939.5071      3607.3172      5546.8243      297.7073      -0.0035485314   0.0013499648 
 103300000   1965.6972      3664.6016      5630.2987      302.4349      -0.00061986736  0.0013499648 
 103310000   1937.3136      3605.974       5543.2876      297.59644      0.010553261    0.0013499648 
 103320000   2003.9303      3600.9651      5604.8954      297.18307      0.0072620259   0.0013499648 
 103330000   2003.0796      3588.8768      5591.9564      296.18543      0.024612947    0.0013499648 
 103340000   1913.1129      3671.8837      5584.9965      303.03589      0.00091097185  0.0013499648 
 103350000   1959.1198      3639.3729      5598.4928      300.35282     -0.019962297    0.0013499648 
 103360000   1934.574       3674.6163      5609.1902      303.2614       0.025222441    0.0013499648 
 103370000   1998.5589      3643.6235      5642.1823      300.70361      0.0062076418   0.0013499648 
 103380000   1950.7913      3614.6008      5565.392       298.3084       0.030153095    0.0013499648 
 103390000   1911.1973      3596.0877      5507.2849      296.78054      0.019508651    0.0013499648 
 103400000   1948.5585      3601.607       5550.1655      297.23604     -0.0065081265   0.0013499648 
 103410000   1984.9454      3592.6724      5577.6178      296.49868      0.004642082    0.0013499648 
 103420000   1976.8657      3633.558       5610.4236      299.87291     -0.011849806    0.0013499648 
 103430000   1904.0084      3674.0103      5578.0187      303.21139      0.017598496    0.0013499648 
 103440000   1942.4315      3675.1328      5617.5643      303.30403      0.037705739    0.0013499648 
 103450000   1913.5309      3647.566       5561.0969      301.02898      0.013000715    0.0013499648 
 103460000   1919.4945      3566.5729      5486.0674      294.34472      0.035518054    0.0013499648 
 103470000   1986.9434      3586.1093      5573.0527      295.95704      4.9645762e-05  0.0013499648 
 103480000   1942.7212      3632.5847      5575.3059      299.79259      0.01841289     0.0013499648 
 103490000   1919.4096      3627.6028      5547.0124      299.38144      0.021169141    0.0013499648 
 103500000   1933.8029      3593.2647      5527.0677      296.54757     -0.0045828909   0.0013499648 
 103510000   1946.9035      3650.68        5597.5835      301.28597      0.0072149934   0.0013499648 
 103520000   1946.6489      3628.7783      5575.4272      299.47845      0.012341631    0.0013499648 
 103530000   1939.9216      3684.3567      5624.2782      304.06527      0.017624246    0.0013499648 
 103540000   1915.6369      3669.612       5585.2489      302.84841      0.00046940229  0.0013499648 
 103550000   1933.0218      3727.6383      5660.6601      307.63725      0.0042999802   0.0013499648 
 103560000   1973.4521      3569.8163      5543.2684      294.6124       0.043687003    0.0013499648 
 103570000   1969.4106      3581.0804      5550.491       295.54201      0.0012738825   0.0013499648 
 103580000   1970.9298      3589.9778      5560.9076      296.2763       0.0039730952   0.0013499648 
 103590000   2003.8221      3691.8163      5695.6384      304.6809       0.013125435    0.0013499648 
 103600000   1989.379       3632.8267      5622.2057      299.81257     -0.014196316    0.0013499648 
 103610000   1950.5598      3618.7646      5569.3243      298.65203      0.0081544181   0.0013499648 
 103620000   1928.8834      3696.3003      5625.1837      305.05096      0.022904627    0.0013499648 
 103630000   1961.6678      3510.5408      5472.2086      289.72046      0.030616266    0.0013499648 
 103640000   1981.2588      3631.7205      5612.9792      299.72127      0.0033291492   0.0013499648 
 103650000   1953.6543      3645.9683      5599.6226      300.89712      0.006695801    0.0013499648 
 103660000   1971.9445      3646.456       5618.4005      300.93737      0.010372573    0.0013499648 
 103670000   1929.6589      3676.0319      5605.6909      303.37824     -0.0052291792   0.0013499648 
 103680000   1950.0961      3608.1534      5558.2495      297.77631      0.036467893    0.0013499648 
 103690000   1993.2326      3560.3778      5553.6104      293.83345      0.01567487     0.0013499648 
 103700000   1988.58        3673.1325      5661.7125      303.13895     -0.030395054    0.0013499648 
 103710000   1974.5365      3667.608       5642.1445      302.68302     -0.0054651003   0.0013499648 
 103720000   1984.5368      3647.6431      5632.1798      301.03534      0.018421333    0.0013499648 
 103730000   1952.7237      3687.3761      5640.0998      304.31445      0.03736955     0.0013499648 
 103740000   1940.5993      3708.2695      5648.8688      306.03876     -0.0060589565   0.0013499648 
 103750000   1903.9006      3711.6586      5615.5592      306.31846      0.0071147672   0.0013499648 
 103760000   1936.4802      3605.7901      5542.2704      297.58127      0.018712495    0.0013499648 
 103770000   1999.0711      3623.643       5622.7141      299.05464      0.023473712    0.0013499648 
 103780000   1986.3277      3618.9275      5605.2551      298.66548     -0.0094112881   0.0013499648 
 103790000   1952.9041      3696.0846      5648.9887      305.03316      0.001786022    0.0013499648 
 103800000   1979.0503      3571.6308      5550.6811      294.76214      0.020033566    0.0013499648 
 103810000   1931.7544      3750.1846      5681.939       309.49796      0.010503255    0.0013499648 
 103820000   2020.8889      3656.1448      5677.0336      301.73697      0.01861947     0.0013499648 
 103830000   1977.2458      3619.4393      5596.6851      298.70772     -0.0001804697   0.0013499648 
 103840000   2017.9345      3687.6138      5705.5482      304.33407      0.0060766417   0.0013499648 
 103850000   1973.5537      3657.3872      5630.9409      301.83951      0.0098692794   0.0013499648 
 103860000   1974.7725      3594.6409      5569.4135      296.66114     -0.013080417    0.0013499648 
 103870000   2036.126       3622.1119      5658.2378      298.92828     -0.0011210977   0.0013499648 
 103880000   1952.1538      3624.5804      5576.7342      299.132       -0.015555122    0.0013499648 
 103890000   1952.029       3780.8829      5732.9119      312.03146     -0.0008849131   0.0013499648 
 103900000   2007.7867      3580.7381      5588.5248      295.51376     -0.024679264    0.0013499648 
 103910000   2015.4288      3679.2328      5694.6616      303.6424      -0.01313006     0.0013499648 
 103920000   1978.9777      3629.6694      5608.6471      299.552       -0.0019246695   0.0013499648 
 103930000   1958.8792      3696.2506      5655.1297      305.04685      0.018497546    0.0013499648 
 103940000   1963.2029      3580.9419      5544.1448      295.53058      0.020244117    0.0013499648 
 103950000   1993.9603      3645.8746      5639.8349      300.88939      9.0025611e-05  0.0013499648 
 103960000   1972.5357      3569.1595      5541.6952      294.55819      0.038885339    0.0013499648 
 103970000   1948.1636      3628.5968      5576.7604      299.46348      0.022585517    0.0013499648 
 103980000   1941.1358      3578.8431      5519.9789      295.35737      0.034097374    0.0013499648 
 103990000   1950.6362      3674.3124      5624.9486      303.23633      0.032831016    0.0013499648 
 104000000   1899.1284      3676.6811      5575.8095      303.43181      0.022122206    0.0013499648 
 104010000   1916.0176      3667.3998      5583.4175      302.66584      0.023633658    0.0013499648 
 104020000   1982.3415      3570.7291      5553.0706      294.68773     -0.0043655207   0.0013499648 
 104030000   1998.6796      3538.2096      5536.8893      292.00394     -0.0015210158   0.0013499648 
 104040000   1903.9324      3609.5409      5513.4733      297.89082      0.038212087    0.0013499648 
 104050000   1994.4028      3612.5496      5606.9523      298.13912      0.0067168331   0.0013499648 
 104060000   1922.0699      3640.0722      5562.1421      300.41053      0.016220807    0.0013499648 
 104070000   1931.5894      3568.0607      5499.6501      294.46751      0.012633681    0.0013499648 
 104080000   1903.4576      3595.5852      5499.0427      296.73907      0.0052034119   0.0013499648 
 104090000   1962.0905      3662.8954      5624.9859      302.29409      0.0067295134   0.0013499648 
 104100000   1996.1046      3623.5139      5619.6185      299.04399      0.0099288998   0.0013499648 
 104110000   1957.4927      3662.0451      5619.5378      302.22392      0.0037968693   0.0013499648 
 104120000   1940.3311      3547.3615      5487.6926      292.75923      0.010844418    0.0013499648 
 104130000   1875.9002      3640.453       5516.3531      300.44195     -0.0053716726   0.0013499648 
 104140000   1985.2089      3664.3255      5649.5345      302.41212      0.027977101    0.0013499648 
 104150000   1982.1833      3687.8928      5670.0761      304.3571       0.009815832    0.0013499648 
 104160000   1932.8115      3627.4328      5560.2443      299.36742      0.038835812    0.0013499648 
 104170000   1894.0783      3611.4999      5505.5782      298.05249     -0.022178415    0.0013499648 
 104180000   1928.0527      3698.2409      5626.2935      305.21111      0.022317385    0.0013499648 
 104190000   1939.4716      3653.7981      5593.2697      301.54331      0.024561108    0.0013499648 
 104200000   1980.3764      3645.974       5626.3504      300.89759      0.0089789044   0.0013499648 
 104210000   1929.056       3677.2104      5606.2664      303.4755       0.0035138856   0.0013499648 
 104220000   2027.4051      3693.2988      5720.7039      304.80325      0.016993436    0.0013499648 
 104230000   1966.4495      3627.0628      5593.5123      299.33688     -0.0055769438   0.0013499648 
 104240000   2014.9552      3529.449       5544.4042      291.28093      0.011610664    0.0013499648 
 104250000   1922.277       3660.7512      5583.0282      302.11714      0.014328581    0.0013499648 
 104260000   1966.3833      3667.7509      5634.1342      302.69481     -0.0097911056   0.0013499648 
 104270000   1974.6424      3644.5292      5619.1716      300.77835      0.011156102    0.0013499648 
 104280000   2052.691       3605.1996      5657.8906      297.53254      0.040906111    0.0013499648 
 104290000   1984.3382      3624.1775      5608.5158      299.09876     -0.0031669282   0.0013499648 
 104300000   2013.8424      3540.4399      5554.2823      292.188       -0.00048621277  0.0013499648 
 104310000   1961.288       3681.1202      5642.4082      303.79816      0.0071574435   0.0013499648 
 104320000   1942.8848      3673.8963      5616.7811      303.20199      0.0071234434   0.0013499648 
 104330000   1973.0024      3668.3918      5641.3942      302.74771      0.001561627    0.0013499648 
 104340000   1941.1397      3682.5509      5623.6906      303.91624      0.01359617     0.0013499648 
 104350000   1912.8927      3688.2698      5601.1626      304.38822      0.023793693    0.0013499648 
 104360000   1974.9763      3650.6176      5625.5939      301.28082      0.019499976    0.0013499648 
 104370000   1988.03        3711.5481      5699.5781      306.30934      0.014266041    0.0013499648 
 104380000   2002.3493      3636.6989      5639.0482      300.13213     -0.021100304    0.0013499648 
 104390000   2004.3871      3696.0635      5700.4505      305.03141      0.031830948    0.0013499648 
 104400000   1915.2598      3556.2009      5471.4607      293.48874     -0.0136207      0.0013499648 
 104410000   1960.4935      3618.3994      5578.8929      298.6219       0.031742704    0.0013499648 
 104420000   1963.4691      3628.4682      5591.9373      299.45286      0.027635478    0.0013499648 
 104430000   1913.8685      3622.3434      5536.2119      298.94739      0.029023907    0.0013499648 
 104440000   1971.8353      3645.7052      5617.5405      300.87541     -0.010338366    0.0013499648 
 104450000   1940.4679      3662.1502      5602.6182      302.2326      -0.00027568888  0.0013499648 
 104460000   1980.0664      3560.3827      5540.4491      293.83385     -0.0015722934   0.0013499648 
 104470000   1927.2094      3635.3784      5562.5879      300.02315      0.015099721    0.0013499648 
 104480000   1830.3637      3637.0356      5467.3993      300.15992     -0.0090026377   0.0013499648 
 104490000   1995.889       3632.5486      5628.4376      299.78962     -0.040871181    0.0013499648 
 104500000   1930.5973      3609.6607      5540.258       297.9007       0.0091108252   0.0013499648 
 104510000   1988.6697      3606.6568      5595.3265      297.65279      0.031739601    0.0013499648 
 104520000   1943.1338      3601.657       5544.7909      297.24017     -0.0027601377   0.0013499648 
 104530000   1994.0605      3605.1248      5599.1853      297.52636     -0.00038751832  0.0013499648 
 104540000   1998.1266      3675.9477      5674.0743      303.37128      0.017717379    0.0013499648 
 104550000   1932.7091      3685.3396      5618.0487      304.14639      0.013231798    0.0013499648 
 104560000   1968.7699      3624.3707      5593.1405      299.1147       0.019287657    0.0013499648 
 104570000   1920.4248      3611.2688      5531.6936      298.03342      0.044316564    0.0013499648 
 104580000   1938.9231      3671.1535      5610.0766      302.97563      0.021375459    0.0013499648 
 104590000   1886.3407      3642.8608      5529.2014      300.64066     -0.0062192722   0.0013499648 
 104600000   2024.0339      3624.1792      5648.2132      299.0989       0.028942031    0.0013499648 
 104610000   1947.5901      3695.2319      5642.822       304.96278      0.0093483329   0.0013499648 
 104620000   2008.9999      3612.0795      5621.0794      298.10032      0.0073747351   0.0013499648 
 104630000   1936.349       3595.6891      5532.0381      296.74764     -0.00066638764  0.0013499648 
 104640000   1979.5812      3594.0431      5573.6244      296.61181      0.0054913302   0.0013499648 
 104650000   1974.2766      3668.0963      5642.3729      302.72332     -0.0034299463   0.0013499648 
 104660000   1999.0286      3577.2896      5576.3183      295.22916     -0.02803541     0.0013499648 
 104670000   1903.592       3594.1654      5497.7574      296.62189     -0.02049553     0.0013499648 
 104680000   1969.8489      3582.0003      5551.8492      295.61792      0.0043474747   0.0013499648 
 104690000   1931.3093      3646.0307      5577.34        300.90227     -0.0008542546   0.0013499648 
 104700000   1997.1129      3651.6757      5648.7887      301.36815     -0.0011721499   0.0013499648 
 104710000   1954.2993      3699.6954      5653.9947      305.33116     -0.0037066985   0.0013499648 
 104720000   1934.0598      3614.2409      5548.3007      298.2787       0.023400425    0.0013499648 
 104730000   1961.0433      3512.927       5473.9703      289.9174      -0.014713101    0.0013499648 
 104740000   1917.8934      3609.7823      5527.6758      297.91074      0.016459048    0.0013499648 
 104750000   1951.2034      3629.1618      5580.3652      299.51011      0.033936847    0.0013499648 
 104760000   2008.4085      3658.3285      5666.737       301.9172       0.028432852    0.0013499648 
 104770000   1977.1996      3639.4976      5616.6972      300.36311      0.014136481    0.0013499648 
 104780000   1992.3449      3588.9293      5581.2742      296.18977      0.034234427    0.0013499648 
 104790000   1981.1915      3568.0534      5549.2449      294.4669       0.017019602    0.0013499648 
 104800000   1946.237       3682.9839      5629.2209      303.95197      0.047897467    0.0013499648 
 104810000   2012.929       3693.7667      5706.6958      304.84187      0.01621904     0.0013499648 
 104820000   1927.7204      3562.6503      5490.3707      294.02099     -0.0040829513   0.0013499648 
 104830000   1948.2732      3674.3557      5622.6289      303.2399      -0.018992473    0.0013499648 
 104840000   1931.5469      3662.5284      5594.0753      302.26381      0.029359931    0.0013499648 
 104850000   1933.5033      3657.5698      5591.0731      301.85458      0.0053845741   0.0013499648 
 104860000   1952.5309      3556.3002      5508.8312      293.49693      0.0069516672   0.0013499648 
 104870000   2043.5071      3592.0423      5635.5493      296.44668      0.018981219    0.0013499648 
 104880000   1952.6183      3635.0797      5587.698       299.9985      -0.017561309    0.0013499648 
 104890000   1968.9652      3648.8877      5617.8529      301.13806     -0.0070127675   0.0013499648 
 104900000   1928.5545      3740.087       5668.6415      308.66462      0.020415054    0.0013499648 
 104910000   2035.669       3606.9989      5642.6678      297.68102      0.016009318    0.0013499648 
 104920000   1947.2793      3653.8924      5601.1717      301.55109     -0.010462371    0.0013499648 
 104930000   2003.8335      3637.8016      5641.6352      300.22314      0.020666717    0.0013499648 
 104940000   1967.3732      3662.9709      5630.3441      302.30033      0.0039352913   0.0013499648 
 104950000   2035.5064      3670.8751      5706.3815      302.95265     -0.003571593    0.0013499648 
 104960000   1985.7279      3673.3886      5659.1166      303.16009     -0.0049428946   0.0013499648 
 104970000   1889.5619      3523.7932      5413.3551      290.81417      0.0057817634   0.0013499648 
 104980000   1922.4242      3560.0371      5482.4614      293.80533      0.005553854    0.0013499648 
 104990000   1959.0242      3631.968       5590.9922      299.7417       0.01272312     0.0013499648 
 105000000   2010.0366      3531.9274      5541.9641      291.48548     -0.0097963684   0.0013499648 
Loop time of 5391.94 on 32 procs for 100000000 steps with 4066 atoms

Performance: 16023.911 ns/day, 0.001 hours/ns, 18546.193 timesteps/s, 75.409 Matom-step/s
99.4% CPU use with 32 MPI tasks x 1 OpenMP threads

MPI task timing breakdown:
Section |  min time  |  avg time  |  max time  |%varavg| %total
---------------------------------------------------------------
Pair    | 788.78     | 957.58     | 2198.7     | 893.7 | 17.76
Bond    | 304.48     | 406.82     | 510.07     | 296.6 |  7.55
Neigh   | 17.804     | 17.986     | 18.253     |   3.0 |  0.33
Comm    | 2326.8     | 3602.3     | 4018.4     | 518.3 | 66.81
Output  | 1.0772     | 1.5458     | 3.3489     |  31.6 |  0.03
Modify  | 194.64     | 247.95     | 302.79     | 196.8 |  4.60
Other   |            | 157.7      |            |       |  2.93

Nlocal:        127.062 ave         236 max          41 min
Histogram: 1 2 5 5 6 8 2 1 1 1
Nghost:          91.25 ave         190 max          40 min
Histogram: 2 6 6 7 4 6 0 0 0 1
Neighs:        226.438 ave         491 max          70 min
Histogram: 2 5 7 4 9 2 0 1 1 1

Total # of neighbors = 7246
Ave neighs/atom = 1.7820954
Ave special neighs/atom = 4.8165273
Neighbor list builds = 258181
Dangerous builds = 0

write_data outputs/${tag}_final.data
write_data outputs/7LYJ_aso_n400_final.data
System init for write_data ...
Generated 0 of 6 mixed pair_coeff terms from geometric mixing rule
Total wall time: 1:33:36
