
# --- Force field -------------------------------------------------
bond_style  harmonic
bond_coeff  1 7.5 5.9

angle_style harmonic
angle_coeff 1 5.0 150.0

pair_style  hybrid/overlay lj/cut 10.0 base/rna 18.0
pair_modify shift yes

pair_coeff * * lj/cut 2.0 8.9089871814

pair_coeff 1 1 base/rna 0.00000 3.0 13.8 1.5 0.5 1.8326 0.9425 1.8326 1.1345
pair_coeff 1 2 base/rna 0.00000 3.0 13.8 1.5 0.5 1.8326 0.9425 1.8326 1.1345
pair_coeff 1 3 base/rna 0.00000 3.0 13.8 1.5 0.5 1.8326 0.9425 1.8326 1.1345
pair_coeff 1 4 base/rna 3.33333 3.0 13.8 1.5 0.5 1.8326 0.9425 1.8326 1.1345
pair_coeff 2 2 base/rna 0.00000 3.0 13.8 1.5 0.5 1.8326 0.9425 1.8326 1.1345
pair_coeff 2 3 base/rna 5.00000 3.0 13.8 1.5 0.5 1.8326 0.9425 1.8326 1.1345
pair_coeff 2 4 base/rna 0.00000 3.0 13.8 1.5 0.5 1.8326 0.9425 1.8326 1.1345
pair_coeff 3 3 base/rna 0.00000 3.0 13.8 1.5 0.5 1.8326 0.9425 1.8326 1.1345
pair_coeff 3 4 base/rna 3.33333 3.0 13.8 1.5 0.5 1.8326 0.9425 1.8326 1.1345
pair_coeff 4 4 base/rna 0.00000 3.0 13.8 1.5 0.5 1.8326 0.9425 1.8326 1.1345

# --- Minimization ------------------------------------------------
minimize 1.0e-4 1.0e-6 1000 10000

CITE-CITE-CITE-CITE-CITE-CITE-CITE-CITE-CITE-CITE-CITE-CITE-CITE

Your simulation uses code contributions which should be cited:

- Type Label Framework: https://doi.org/10.1021/acs.jpcb.3c08419

@Article{Gissinger24,
 author = {Jacob R. Gissinger, Ilia Nikiforov, Yaser Afshar, Brendon Waters, Moon-ki Choi, Daniel S. Karls, Alexander Stukowski, Wonpil Im, Hendrik Heinz, Axel Kohlmeyer, and Ellad B. Tadmor},
 title = {Type Label Framework for Bonded Force Fields in LAMMPS},
 journal = {J. Phys. Chem. B},
 year =    2024,
 volume =  128,
 number =  13,
 pages =   {3282–-3297}
}

CITE-CITE-CITE-CITE-CITE-CITE-CITE-CITE-CITE-CITE-CITE-CITE-CITE

Switching to 'neigh_modify every 1 delay 0 check yes' setting during minimization
Generated 0 of 6 mixed pair_coeff terms from geometric mixing rule
Neighbor list info ...
  update: every = 1 steps, delay = 0 steps, check = yes
  max neighbors/atom: 2000, page size: 100000
  master list distance cutoff = 33
  ghost atom cutoff = 33
  binsize = 16.5, bins = 66 66 66
  2 neighbor lists, perpetual/occasional/extra = 2 0 0
  (1) pair lj/cut, perpetual, trim from (2)
      attributes: half, newton on, cut 25
      pair build: trim
      stencil: none
      bin: none
  (2) pair base/rna, perpetual
      attributes: half, newton on
      pair build: half/bin/newton
      stencil: half/bin/3d
      bin: standard
Per MPI rank memory allocation (min/avg/max) = 8.489 | 8.515 | 8.758 Mbytes
   Step          Temp          E_pair         E_mol          TotEng         Press     
         0   0              2323.0705      3341.7984      5664.8689      0.57104456   
        47   0             -103.74392      3265.412       3161.6681     -0.00098809145
Loop time of 0.00558898 on 32 procs for 47 steps with 3066 atoms

82.8% CPU use with 32 MPI tasks x 1 OpenMP threads

Minimization stats:
  Stopping criterion = energy tolerance
  Energy initial, next-to-last, final = 
      5664.86892541293   3161.95126896859   3161.66813055816
  Force two-norm initial, final = 5888.4579 2.6924555
  Force max component initial, final = 2667.2637 0.84445084
  Final line search alpha, max atom move = 0.057921685 0.048912016
  Iterations, force evaluations = 47 57

MPI task timing breakdown:
Section |  min time  |  avg time  |  max time  |%varavg| %total
---------------------------------------------------------------
Pair    | 0.00087268 | 0.0012079  | 0.0020502  |   0.8 | 21.61
Bond    | 9.404e-05  | 0.00018602 | 0.00032933 |   0.0 |  3.33
Neigh   | 0          | 0          | 0          |   0.0 |  0.00
Comm    | 0.0020786  | 0.0027551  | 0.00327    |   0.5 | 49.30
Output  | 0          | 0          | 0          |   0.0 |  0.00
Modify  | 0          | 0          | 0          |   0.0 |  0.00
Other   |            | 0.00144    |            |       | 25.76

Nlocal:        95.8125 ave         172 max          46 min
Histogram: 3 4 4 6 5 3 4 0 2 1
Nghost:        76.0312 ave         151 max          24 min
Histogram: 5 1 5 6 6 2 2 1 1 3
Neighs:        159.531 ave         379 max          53 min
Histogram: 5 6 6 5 5 1 0 1 2 1

Total # of neighbors = 5105
Ave neighs/atom = 1.6650359
Ave special neighs/atom = 4.8219178
Neighbor list builds = 0
Dangerous builds = 0
reset_timestep 0

# --- Output setup ------------------------------------------------
dump d1 all custom 50000 outputs/${tag}.lammpstrj id mol type q xu yu zu
dump d1 all custom 50000 outputs/7LYJ_aso_n300.lammpstrj id mol type q xu yu zu
dump_modify d1 sort id

thermo_style custom step pe ke etotal temp press density
thermo       10000
thermo_modify flush yes

variable vpe equal pe
variable vke equal ke
variable vT  equal temp
variable vE  equal etotal
variable vRg equal gyration(all)

fix favg all ave/time 10000 10 100000 v_vpe v_vke v_vT v_vE v_vRg     file outputs/thermo_${tag}_averaged.dat
fix favg all ave/time 10000 10 100000 v_vpe v_vke v_vT v_vE v_vRg     file outputs/thermo_7LYJ_aso_n300_averaged.dat

# --- NVT equilibration (50 ns) -----------------------------------
velocity all create ${T_target} 60395 rot yes dist gaussian
velocity all create 300 60395 rot yes dist gaussian

fix fxlang all langevin ${T_target} ${T_target} 1000.0 91348
fix fxlang all langevin 300 ${T_target} 1000.0 91348
fix fxlang all langevin 300 300 1000.0 91348
fix fxnve  all nve
fix recenter all momentum 1000 linear 1 1 1

run 5000000
Generated 0 of 6 mixed pair_coeff terms from geometric mixing rule
Per MPI rank memory allocation (min/avg/max) = 7.38 | 7.406 | 7.649 Mbytes
   Step         PotEng         KinEng         TotEng          Temp          Press         Density    
         0   3161.6681      2740.8548      5902.523       300            0.098471717    0.0013275909 
     10000   1435.4382      2796.4754      4231.9136      306.08795      0.029146366    0.0013275909 
     20000   1442.1279      2794.9066      4237.0345      305.91623      0.0084826695   0.0013275909 
     30000   1440.5037      2697.127       4137.6307      295.21377      0.0018331721   0.0013275909 
     40000   1443.9171      2768.4118      4212.3289      303.01625     -0.0019868627   0.0013275909 
     50000   1431.7246      2729.5764      4161.301       298.76552      0.012227572    0.0013275909 
     60000   1476.5114      2719.9452      4196.4566      297.71134      0.013287849    0.0013275909 
     70000   1474.7019      2773.8594      4248.5613      303.61252     -0.0028200911   0.0013275909 
     80000   1446.806       2728.5914      4175.3974      298.65771      0.0011810357   0.0013275909 
     90000   1412.2809      2725.1417      4137.4226      298.28012      0.030412372    0.0013275909 
    100000   1418.8382      2744.4484      4163.2866      300.39333     -0.014244194    0.0013275909 
    110000   1441.5124      2756.7729      4198.2853      301.74231      0.023962804    0.0013275909 
    120000   1475.3942      2659.2402      4134.6344      291.06688      0.0020948422   0.0013275909 
    130000   1543.417       2692.2473      4235.6643      294.67967      0.038414063    0.0013275909 
    140000   1407.3663      2750.3224      4157.6887      301.03627      0.0024981625   0.0013275909 
    150000   1440.8542      2654.4316      4095.2858      290.54055      0.036249716    0.0013275909 
    160000   1437.4232      2790.0882      4227.5114      305.38883     -0.0010264114   0.0013275909 
    170000   1477.5496      2765.6942      4243.2438      302.71879      0.0093984831   0.0013275909 
    180000   1438.8255      2646.4063      4085.2318      289.66215     -0.00022610907  0.0013275909 
    190000   1442.2195      2796.7257      4238.9451      306.11533      0.0077949961   0.0013275909 
    200000   1429.6986      2745.0792      4174.7778      300.46238      0.032008452    0.0013275909 
    210000   1473.7561      2827.4002      4301.1563      309.47281     -0.001804131    0.0013275909 
    220000   1407.431       2798.5155      4205.9466      306.31125      0.0052327687   0.0013275909 
    230000   1459.4453      2704.656       4164.1014      296.03786      0.0068698461   0.0013275909 
    240000   1471.3519      2699.3036      4170.6555      295.45202      0.039137759    0.0013275909 
    250000   1501.0217      2784.7626      4285.7843      304.80592      0.0042334328   0.0013275909 
    260000   1464.4581      2740.1102      4204.5683      299.9185      -0.0038382748   0.0013275909 
    270000   1470.3492      2720.7067      4191.0559      297.79469      0.0028068243   0.0013275909 
    280000   1392.147       2725.4267      4117.5736      298.31131      0.022678546    0.0013275909 
    290000   1409.7301      2756.2295      4165.9596      301.68283      0.029690953    0.0013275909 
    300000   1435.8413      2827.8292      4263.6705      309.51977      0.026871902    0.0013275909 
    310000   1484.8203      2711.19        4196.0103      296.75304      0.0092655372   0.0013275909 
    320000   1500.6587      2762.2097      4262.8683      302.33739      0.027714862    0.0013275909 
    330000   1407.3949      2686.3072      4093.7021      294.0295       0.014442035    0.0013275909 
    340000   1458.2859      2739.9907      4198.2767      299.90542      0.0015016594   0.0013275909 
    350000   1429.9636      2716.9944      4146.958       297.38836     -0.026574506    0.0013275909 
    360000   1422.4697      2700.9952      4123.4649      295.63717      0.0041303952   0.0013275909 
    370000   1513.1047      2661.2095      4174.3142      291.28243     -0.0034730239   0.0013275909 
    380000   1435.6205      2795.5126      4231.1331      305.98256      0.004133607    0.0013275909 
    390000   1455.7323      2735.3116      4191.0438      299.39326     -0.010988674    0.0013275909 
    400000   1417.9473      2733.6057      4151.553       299.20655     -0.010273663    0.0013275909 
    410000   1443.2869      2799.1736      4242.4605      306.38327      0.022604716    0.0013275909 
    420000   1453.5072      2711.9865      4165.4937      296.84022     -0.010415133    0.0013275909 
    430000   1435.2303      2734.3988      4169.6291      299.29336      0.013272651    0.0013275909 
    440000   1422.0398      2704.1703      4126.2101      295.9847       0.0093402487   0.0013275909 
    450000   1477.6687      2745.4024      4223.0712      300.49776      0.02144716     0.0013275909 
    460000   1470.4225      2725.3799      4195.8024      298.30619      0.029815652    0.0013275909 
    470000   1451.5934      2780.3333      4231.9266      304.32111      0.034134153    0.0013275909 
    480000   1445.5268      2712.2811      4157.8079      296.87247      0.051039972    0.0013275909 
    490000   1462.0731      2752.489       4214.562       301.27341      0.034387729    0.0013275909 
    500000   1496.4858      2749.9142      4246.4         300.99159     -0.010955026    0.0013275909 
    510000   1451.3163      2766.2798      4217.5961      302.78289      0.0094572597   0.0013275909 
    520000   1512.8669      2832.4636      4345.3305      310.02703      0.012072267    0.0013275909 
    530000   1492.5079      2766.7812      4259.2891      302.83777     -0.00510544     0.0013275909 
    540000   1379.1387      2772.8589      4151.9976      303.503        0.034509532    0.0013275909 
    550000   1442.2327      2773.2366      4215.4693      303.54434      0.0020228631   0.0013275909 
    560000   1442.044       2771.4391      4213.4831      303.34759     -0.03185781     0.0013275909 
    570000   1424.6252      2696.8132      4121.4384      295.17943      0.023098729    0.0013275909 
    580000   1434.6455      2776.5392      4211.1847      303.90583     -0.022217418    0.0013275909 
    590000   1482.5255      2727.5353      4210.0609      298.54212     -0.0060786592   0.0013275909 
    600000   1464.0426      2679.258       4143.3006      293.25793     -0.0042441535   0.0013275909 
    610000   1447.8082      2728.6811      4176.4893      298.66752     -0.0055103854   0.0013275909 
    620000   1484.2373      2725.0366      4209.2739      298.26862      0.0018159752   0.0013275909 
    630000   1467.0063      2796.1254      4263.1318      306.04964      0.011241098    0.0013275909 
    640000   1463.7717      2697.1814      4160.9531      295.21973     -0.01300446     0.0013275909 
    650000   1437.8422      2671.8848      4109.727       292.45089      0.0071836542   0.0013275909 
    660000   1478.1731      2773.2613      4251.4344      303.54704      0.0074836916   0.0013275909 
    670000   1477.9425      2751.5965      4229.539       301.17572      0.016524235    0.0013275909 
    680000   1408.0497      2781.2692      4189.3189      304.42355      0.025639284    0.0013275909 
    690000   1445.5429      2683.0422      4128.5851      293.67212     -0.012199201    0.0013275909 
    700000   1502.6507      2683.4709      4186.1216      293.71905      0.0045827328   0.0013275909 
    710000   1454.0233      2723.9559      4177.9792      298.15033      0.020263353    0.0013275909 
    720000   1441.3425      2789.5448      4230.8873      305.32936      0.015598318    0.0013275909 
    730000   1420.8469      2713.1638      4134.0107      296.96908      0.041155893    0.0013275909 
    740000   1502.49        2739.3094      4241.7995      299.83085      0.035784563    0.0013275909 
    750000   1483.0362      2767.0568      4250.093       302.86793      0.022684646    0.0013275909 
    760000   1454.0547      2763.9111      4217.9658      302.52362      0.03609869     0.0013275909 
    770000   1462.1702      2759.2141      4221.3842      302.00951     -0.023816808    0.0013275909 
    780000   1519.8466      2806.7437      4326.5903      307.21186      0.004129725    0.0013275909 
    790000   1457.1392      2778.5941      4235.7333      304.13075      0.018253899    0.0013275909 
    800000   1466.7582      2714.7648      4181.523       297.14432     -0.0022811445   0.0013275909 
    810000   1422.3468      2741.8519      4164.1987      300.10913      0.031699683    0.0013275909 
    820000   1478.1655      2757.8204      4235.9859      301.85696      0.014610175    0.0013275909 
    830000   1456.2317      2763.7014      4219.9331      302.50067      0.021915114    0.0013275909 
    840000   1467.8581      2700.402       4168.2601      295.57224      0.012073632    0.0013275909 
    850000   1507.3355      2810.7483      4318.0838      307.65019      0.038737296    0.0013275909 
    860000   1484.0424      2675.1008      4159.1431      292.80289      0.026053331    0.0013275909 
    870000   1433.1423      2772.3014      4205.4437      303.44198      0.019214904    0.0013275909 
    880000   1473.2665      2684.5593      4157.8258      293.83817      0.0074970345   0.0013275909 
    890000   1399.5042      2698.7573      4098.2615      295.39222      0.042346629    0.0013275909 
    900000   1453.2327      2721.6593      4174.892       297.89896      0.010840436    0.0013275909 
    910000   1492.8344      2719.4607      4212.2951      297.65831      0.025964086    0.0013275909 
    920000   1502.617       2706.5565      4209.1734      296.24587      0.0030069231   0.0013275909 
    930000   1444.8772      2766.0665      4210.9437      302.75954     -0.023424927    0.0013275909 
    940000   1485.3327      2717.3784      4202.7111      297.43039     -0.0045810761   0.0013275909 
    950000   1457.9342      2782.7404      4240.6746      304.58458      0.020943076    0.0013275909 
    960000   1473.7973      2740.2943      4214.0916      299.93864     -0.0093812074   0.0013275909 
    970000   1442.4879      2689.0095      4131.4974      294.32527      0.016794363    0.0013275909 
    980000   1486.0007      2702.0119      4188.0125      295.74845      0.025553665    0.0013275909 
    990000   1466.9155      2655.3829      4122.2984      290.64468      0.038281402    0.0013275909 
   1000000   1494.343       2730.6213      4224.9643      298.87989     -0.0014877392   0.0013275909 
   1010000   1508.0692      2795.4353      4303.5045      305.9741       0.017511906    0.0013275909 
   1020000   1451.3774      2760.8141      4212.1915      302.18464      0.027647101    0.0013275909 
   1030000   1486.8687      2737.1886      4224.0573      299.59871      0.01913453     0.0013275909 
   1040000   1535.2013      2764.1105      4299.3117      302.54544      0.029432935    0.0013275909 
   1050000   1473.9802      2750.2839      4224.2641      301.03205      0.006633612    0.0013275909 
   1060000   1486.6083      2749.9208      4236.5291      300.99231      0.010062871    0.0013275909 
   1070000   1501.1345      2785.3225      4286.457       304.86721     -0.016048881    0.0013275909 
   1080000   1450.5766      2800.5045      4251.081       306.52894      0.0094726015   0.0013275909 
   1090000   1481.5447      2726.4708      4208.0155      298.42559      0.012608282    0.0013275909 
   1100000   1498.1851      2790.3203      4288.5054      305.41424      0.01741345     0.0013275909 
   1110000   1465.5301      2714.5094      4180.0395      297.11637      0.029514009    0.0013275909 
   1120000   1508.4429      2646.5806      4155.0234      289.68122      0.013292384    0.0013275909 
   1130000   1472.4485      2703.9064      4176.3549      295.95581     -0.0073938447   0.0013275909 
   1140000   1479.3017      2746.8435      4226.1452      300.65549      0.01806287     0.0013275909 
   1150000   1473.9851      2751.2515      4225.2367      301.13797      0.024885264    0.0013275909 
   1160000   1508.1758      2727.1313      4235.3072      298.4979      -0.0019520779   0.0013275909 
   1170000   1445.3452      2748.5144      4193.8596      300.83838     -0.0028375768   0.0013275909 
   1180000   1514.5094      2736.1958      4250.7052      299.49005     -0.033479753    0.0013275909 
   1190000   1433.768       2779.4698      4213.2378      304.22659      0.015326859    0.0013275909 
   1200000   1454.3085      2712.1342      4166.4427      296.85638      0.025386649    0.0013275909 
   1210000   1496.3913      2713.4701      4209.8614      297.00261      0.002446788    0.0013275909 
   1220000   1462.8213      2779.1034      4241.9247      304.18649     -0.015034115    0.0013275909 
   1230000   1484.3693      2748.8051      4233.1744      300.8702       0.026283836    0.0013275909 
   1240000   1459.7233      2741.8751      4201.5984      300.11167      0.00094223916  0.0013275909 
   1250000   1459.1301      2734.4373      4193.5673      299.29756      0.036528212    0.0013275909 
   1260000   1498.5558      2701.4733      4200.0291      295.6895       0.014428048    0.0013275909 
   1270000   1493.5207      2735.6927      4229.2134      299.43497     -0.0074131586   0.0013275909 
   1280000   1467.4489      2792.5027      4259.9516      305.65311      0.0089428055   0.0013275909 
   1290000   1494.1078      2742.8539      4236.9617      300.21881      0.026267745    0.0013275909 
   1300000   1393.3868      2737.1081      4130.4949      299.5899       0.017537781    0.0013275909 
   1310000   1470.7034      2785.6283      4256.3317      304.90068      0.018948799    0.0013275909 
   1320000   1523.3277      2764.267       4287.5946      302.56257      0.03498673     0.0013275909 
   1330000   1484.2415      2712.3004      4196.5419      296.87458      0.0083509595   0.0013275909 
   1340000   1477.3306      2744.8492      4222.1797      300.4372      -0.0062027847   0.0013275909 
   1350000   1496.3435      2760.942       4257.2855      302.19863      0.038966039    0.0013275909 
   1360000   1493.52        2743.9717      4237.4916      300.34115     -0.0097766333   0.0013275909 
   1370000   1494.9108      2722.8917      4217.8025      298.03385     -0.00054709402  0.0013275909 
   1380000   1469.227       2768.0561      4237.2832      302.97731      0.022958285    0.0013275909 
   1390000   1459.4988      2675.6737      4135.1725      292.8656      -0.015513345    0.0013275909 
   1400000   1458.2541      2762.4884      4220.7425      302.3679       0.019948963    0.0013275909 
   1410000   1468.9495      2801.6643      4270.6138      306.65589      0.0012016775   0.0013275909 
   1420000   1449.8442      2695.162       4145.0062      294.99869     -0.0014578191   0.0013275909 
   1430000   1442.0275      2677.4514      4119.479       293.06019      0.033148573    0.0013275909 
   1440000   1501.2535      2718.1261      4219.3796      297.51223     -0.0074305218   0.0013275909 
   1450000   1480.8836      2701.8402      4182.7238      295.72966      0.022366578    0.0013275909 
   1460000   1453.3563      2809.2504      4262.6066      307.48623      0.028983764    0.0013275909 
   1470000   1498.459       2697.7801      4196.2391      295.28526      0.026230529    0.0013275909 
   1480000   1508.0036      2791.5024      4299.506       305.54362      0.0035748089   0.0013275909 
   1490000   1497.538       2693.6461      4191.1841      294.83277      0.005160916    0.0013275909 
   1500000   1445.1035      2685.8445      4130.948       293.97884     -0.017142413    0.0013275909 
   1510000   1462.0616      2757.6946      4219.7562      301.84319      0.0045468878   0.0013275909 
   1520000   1432.8393      2755.674       4188.5133      301.62203      0.028399193    0.0013275909 
   1530000   1463.8095      2682.0904      4145.8999      293.56794      0.0056076055   0.0013275909 
   1540000   1421.187       2768.4624      4189.6494      303.02179      0.016223447    0.0013275909 
   1550000   1489.8125      2741.2253      4231.0378      300.04055     -0.02451356     0.0013275909 
   1560000   1493.9907      2788.9541      4282.9449      305.2647       0.042195541    0.0013275909 
   1570000   1454.503       2736.6694      4191.1724      299.54189      0.027167191    0.0013275909 
   1580000   1505.5912      2697.1287      4202.72        295.21396      0.043076582    0.0013275909 
   1590000   1497.3656      2801.6466      4299.0123      306.65396      0.017171448    0.0013275909 
   1600000   1523.7343      2737.5647      4261.2991      299.63988      0.0015082333   0.0013275909 
   1610000   1536.4047      2795.4441      4331.8488      305.97507      0.027924688    0.0013275909 
   1620000   1476.2937      2746.319       4222.6127      300.59808     -0.025541682    0.0013275909 
   1630000   1420.1668      2773.307       4193.4738      303.55205      0.024963315    0.0013275909 
   1640000   1432.6311      2745.5897      4178.2208      300.51825      0.031186139    0.0013275909 
   1650000   1494.3267      2745.8003      4240.127       300.5413      -0.01283589     0.0013275909 
   1660000   1477.4676      2714.7037      4192.1714      297.13763      0.0028950474   0.0013275909 
   1670000   1486.3646      2753.0692      4239.4338      301.33692     -0.014914427    0.0013275909 
   1680000   1433.8864      2709.0849      4142.9713      296.52262      0.0097022655   0.0013275909 
   1690000   1420.7565      2694.1767      4114.9332      294.89085     -0.010318847    0.0013275909 
   1700000   1426.5807      2772.7816      4199.3623      303.49454      0.015991978    0.0013275909 
   1710000   1439.959       2742.1762      4182.1352      300.14463      0.021596641    0.0013275909 
   1720000   1449.3845      2709.8689      4159.2534      296.60843      0.025345283    0.0013275909 
   1730000   1470.1685      2793.5657      4263.7343      305.76946      0.020839415    0.0013275909 
   1740000   1528.6834      2721.2266      4249.9101      297.85159      0.015595852    0.0013275909 
   1750000   1478.5303      2719.8521      4198.3824      297.70115      0.010293788    0.0013275909 
   1760000   1428.4647      2666.1401      4094.6048      291.8221      -0.017363666    0.0013275909 
   1770000   1467.7983      2703.068       4170.8663      295.86404      0.0048275234   0.0013275909 
   1780000   1482.4694      2776.5515      4259.0208      303.90717      0.024098183    0.0013275909 
   1790000   1447.0502      2741.7254      4188.7757      300.09529      0.020006266    0.0013275909 
   1800000   1448.2941      2707.104       4155.3981      296.3058       0.02218784     0.0013275909 
   1810000   1454.5901      2811.133       4265.7231      307.69228      0.010158134    0.0013275909 
   1820000   1393.3481      2804.3601      4197.7082      306.95096      0.0045322566   0.0013275909 
   1830000   1408.826       2822.5278      4231.3538      308.9395       0.0049830602   0.0013275909 
   1840000   1442.8182      2731.9996      4174.8178      299.03075      0.0043872664   0.0013275909 
   1850000   1439.3063      2747.2396      4186.5459      300.69884      0.0053727312   0.0013275909 
   1860000   1483.0394      2701.5345      4184.574       295.6962       0.0039329033   0.0013275909 
   1870000   1423.112       2752.5243      4175.6364      301.27728      0.0022482465   0.0013275909 
   1880000   1452.6099      2676.7193      4129.3292      292.98005      0.03012733     0.0013275909 
   1890000   1503.1515      2684.9814      4188.133       293.88438     -0.00296603     0.0013275909 
   1900000   1452.702       2732.5161      4185.2181      299.08729      0.016253498    0.0013275909 
   1910000   1379.4076      2763.9204      4143.3279      302.52463      0.030798597    0.0013275909 
   1920000   1439.2785      2679.3032      4118.5817      293.26287     -0.0010457005   0.0013275909 
   1930000   1469.1659      2836.2658      4305.4317      310.44319     -0.006017796    0.0013275909 
   1940000   1468.191       2777.6084      4245.7994      304.02285      0.0020928345   0.0013275909 
   1950000   1446.2113      2715.8193      4162.0306      297.25974     -0.0080450579   0.0013275909 
   1960000   1446.3725      2792.9976      4239.3701      305.70728      0.0043016378   0.0013275909 
   1970000   1404.7193      2707.7005      4112.4197      296.37109      0.005252033    0.0013275909 
   1980000   1443.9706      2764.8669      4208.8375      302.62824      0.015940937    0.0013275909 
   1990000   1478.8468      2711.6967      4190.5435      296.80849     -0.0021293106   0.0013275909 
   2000000   1441.1328      2732.5671      4173.6999      299.09287      0.01295921     0.0013275909 
   2010000   1468.7392      2720.6815      4189.4207      297.79192     -0.01198223     0.0013275909 
   2020000   1449.7499      2820.408       4270.1579      308.70748      0.024630701    0.0013275909 
   2030000   1471.4374      2692.6627      4164.1001      294.72513      0.0088589763   0.0013275909 
   2040000   1398.4218      2753.5652      4151.987       301.39121      0.054576017    0.0013275909 
   2050000   1493.8929      2736.7153      4230.6082      299.54691     -0.0035197305   0.0013275909 
   2060000   1517.2873      2792.1032      4309.3905      305.60938     -0.010583379    0.0013275909 
   2070000   1442.7131      2776.2861      4218.9992      303.87812     -0.0016508294   0.0013275909 
   2080000   1471.5053      2774.5815      4246.0869      303.69155      0.024713659    0.0013275909 
   2090000   1441.5323      2698.3626      4139.8949      295.34902      0.023706601    0.0013275909 
   2100000   1453.0372      2700.7105      4153.7478      295.60601      0.017332398    0.0013275909 
   2110000   1432.2593      2771.6692      4203.9286      303.37279      0.022090716    0.0013275909 
   2120000   1469.1922      2724.3333      4193.5255      298.19164      0.023460929    0.0013275909 
   2130000   1420.2783      2735.2985      4155.5769      299.39184      0.0065648373   0.0013275909 
   2140000   1413.8154      2706.5061      4120.3215      296.24036      0.024207557    0.0013275909 
   2150000   1425.6469      2756.6916      4182.3384      301.73341      0.046517239    0.0013275909 
   2160000   1478.6043      2758.3092      4236.9135      301.91047     -0.0048131108   0.0013275909 
   2170000   1438.7972      2681.3377      4120.1349      293.48555      0.0037887796   0.0013275909 
   2180000   1453.2139      2727.1883      4180.4022      298.50413      0.0024133186   0.0013275909 
   2190000   1449.3459      2819.0936      4268.4394      308.56361      0.0120946      0.0013275909 
   2200000   1399.3199      2843.1915      4242.5113      311.20125      0.02295222     0.0013275909 
   2210000   1433.7222      2690.2655      4123.9876      294.46275     -0.030287003    0.0013275909 
   2220000   1432.2381      2728.5691      4160.8073      298.65527      0.044414067    0.0013275909 
   2230000   1402.0729      2777.0656      4179.1385      303.96345     -0.00099806353  0.0013275909 
   2240000   1422.5932      2762.3034      4184.8965      302.34765      0.018545288    0.0013275909 
   2250000   1428.6438      2787.6554      4216.2993      305.12255     -0.0047133828   0.0013275909 
   2260000   1431.7994      2725.8078      4157.6072      298.35302      0.019815559    0.0013275909 
   2270000   1467.0571      2661.7042      4128.7614      291.33658      0.028662412    0.0013275909 
   2280000   1487.8654      2757.2089      4245.0743      301.79003      0.017825398    0.0013275909 
   2290000   1429.6499      2709.2142      4138.864       296.53677     -0.00048529505  0.0013275909 
   2300000   1492.8676      2720.2404      4213.108       297.74365     -0.023594382    0.0013275909 
   2310000   1461.2732      2744.4704      4205.7436      300.39575     -0.017451453    0.0013275909 
   2320000   1504.3641      2823.9842      4328.3482      309.09891      0.0016014934   0.0013275909 
   2330000   1428.1239      2765.6323      4193.7562      302.71201      0.024765426    0.0013275909 
   2340000   1485.6659      2683.7199      4169.3858      293.7463       0.015076731    0.0013275909 
   2350000   1424.3403      2660.2906      4084.6309      291.18184      0.012745673    0.0013275909 
   2360000   1489.7021      2752.1236      4241.8257      301.23342      0.017483468    0.0013275909 
   2370000   1534.2763      2789.8404      4324.1167      305.36171      0.010708772    0.0013275909 
   2380000   1426.8837      2687.2345      4114.1182      294.13099      0.01885031     0.0013275909 
   2390000   1462.6879      2780.3182      4243.0061      304.31945      0.022230069    0.0013275909 
   2400000   1478.5307      2720.4303      4198.961       297.76444      0.050644076    0.0013275909 
   2410000   1495.8633      2719.5082      4215.3714      297.6635       0.015478703    0.0013275909 
   2420000   1487.8101      2737.2592      4225.0693      299.60643      0.0022532406   0.0013275909 
   2430000   1453.254       2796.453       4249.7071      306.08549      0.017546941    0.0013275909 
   2440000   1457.1505      2690.0838      4147.2343      294.44286      0.040272539    0.0013275909 
   2450000   1502.9066      2686.9506      4189.8572      294.09991      0.014514673    0.0013275909 
   2460000   1441.1493      2768.5811      4209.7304      303.03478      0.0010050975   0.0013275909 
   2470000   1453.0787      2689.8199      4142.8986      294.41398     -0.028274834    0.0013275909 
   2480000   1461.1627      2721.2171      4182.3798      297.85056     -0.0081132917   0.0013275909 
   2490000   1461.3159      2827.9963      4289.3122      309.53806      0.032567619    0.0013275909 
   2500000   1473.2205      2703.2785      4176.4989      295.88708      0.0046130747   0.0013275909 
   2510000   1446.5571      2771.6582      4218.2153      303.37157      0.006153882    0.0013275909 
   2520000   1441.903       2751.4463      4193.3493      301.15928      0.045345984    0.0013275909 
   2530000   1447.5103      2630.1485      4077.6588      287.88264     -0.029010092    0.0013275909 
   2540000   1435.3561      2776.3667      4211.7228      303.88695      0.016393857    0.0013275909 
   2550000   1484.9457      2723.0514      4207.9971      298.05133      0.013847398    0.0013275909 
   2560000   1503.3895      2790.8682      4294.2577      305.47421      0.017113218    0.0013275909 
   2570000   1470.9052      2731.6604      4202.5656      298.99363      0.0082925556   0.0013275909 
   2580000   1446.032       2746.0605      4192.0925      300.56979      0.014550402    0.0013275909 
   2590000   1461.6155      2717.1873      4178.8028      297.40947      0.0044890192   0.0013275909 
   2600000   1499.1003      2737.8426      4236.9429      299.6703       0.015703945    0.0013275909 
   2610000   1494.4747      2761.3635      4255.8382      302.24478      0.0048077157   0.0013275909 
   2620000   1466.2762      2757.1691      4223.4453      301.78568      0.012096578    0.0013275909 
   2630000   1403.6934      2742.297       4145.9903      300.15785      0.012167082    0.0013275909 
   2640000   1434.8673      2728.2128      4163.0801      298.61626      0.014910009    0.0013275909 
   2650000   1465.7937      2769.6996      4235.4932      303.1572       0.0084582833   0.0013275909 
   2660000   1462.9959      2699.2028      4162.1986      295.44098      0.013071363    0.0013275909 
   2670000   1455.6286      2756.0735      4211.7021      301.66575     -0.00038204926  0.0013275909 
   2680000   1519.8438      2724.116       4243.9598      298.16785      0.0068104115   0.0013275909 
   2690000   1436.2633      2690.2045      4126.4677      294.45607      0.022955056    0.0013275909 
   2700000   1478.5225      2721.7532      4200.2757      297.90923      0.012882193    0.0013275909 
   2710000   1423.4692      2737.687       4161.1562      299.65327      0.027191321    0.0013275909 
   2720000   1461.1531      2720.9171      4182.0702      297.81772      0.0057596517   0.0013275909 
   2730000   1480.8931      2720.0039      4200.8971      297.71776      0.0015433331   0.0013275909 
   2740000   1454.4089      2711.4706      4165.8795      296.78375      0.020985396    0.0013275909 
   2750000   1481.3419      2744.2063      4225.5482      300.36683      0.014594879    0.0013275909 
   2760000   1382.2741      2745.8094      4128.0835      300.5423       0.034986585    0.0013275909 
   2770000   1426.9092      2718.9121      4145.8213      297.59826      0.0074781841   0.0013275909 
   2780000   1459.8363      2714.6512      4174.4874      297.13188     -0.016288991    0.0013275909 
   2790000   1457.143       2710.915       4168.058       296.72294      0.029816707    0.0013275909 
   2800000   1480.9106      2794.6707      4275.5813      305.89041      0.00087728924  0.0013275909 
   2810000   1436.8902      2788.8362      4225.7264      305.25179      0.010133146    0.0013275909 
   2820000   1457.6905      2711.6879      4169.3783      296.80753      0.019082211    0.0013275909 
   2830000   1411.6542      2763.2936      4174.9478      302.45604      0.0011516685   0.0013275909 
   2840000   1479.9076      2740.4675      4220.3751      299.9576       0.032002849    0.0013275909 
   2850000   1442.2278      2719.2337      4161.4615      297.63346      0.017571204    0.0013275909 
   2860000   1470.3105      2652.0731      4122.3837      290.28241     -0.010983711    0.0013275909 
   2870000   1415.9229      2663.4763      4079.3992      291.53054      0.025617215    0.0013275909 
   2880000   1458.0692      2741.2847      4199.3539      300.04705      0.019872276    0.0013275909 
   2890000   1490.2199      2805.5119      4295.7318      307.07703      0.005396088    0.0013275909 
   2900000   1462.8676      2777.8065      4240.6741      304.04454     -0.012405662    0.0013275909 
   2910000   1487.004       2716.8878      4203.8918      297.37669     -0.0060609788   0.0013275909 
   2920000   1397.4466      2728.861       4126.3076      298.68721      0.0077310089   0.0013275909 
   2930000   1438.3111      2715.5183      4153.8294      297.22679      0.010328566    0.0013275909 
   2940000   1448.8464      2701.0958      4149.9422      295.64818      0.004294881    0.0013275909 
   2950000   1451.4766      2773.6372      4225.1138      303.58819     -0.00062429697  0.0013275909 
   2960000   1515.4652      2789.5816      4305.0468      305.33338      0.023059356    0.0013275909 
   2970000   1449.4075      2724.3297      4173.7372      298.19124      0.0038514522   0.0013275909 
   2980000   1386.5642      2698.7085      4085.2726      295.38687      0.0059800071   0.0013275909 
   2990000   1440.7596      2726.5855      4167.3451      298.43815      0.011496284    0.0013275909 
   3000000   1510.9855      2774.7894      4285.7749      303.7143       0.0050206286   0.0013275909 
   3010000   1479.5378      2719.5811      4199.1189      297.67148     -0.0036248975   0.0013275909 
   3020000   1467.7443      2712.7691      4180.5133      296.92588     -0.015103667    0.0013275909 
   3030000   1492.0054      2733.143       4225.1484      299.1559      -0.011008032    0.0013275909 
   3040000   1483.4218      2649.3589      4132.7807      289.98532      0.030141067    0.0013275909 
   3050000   1495.6456      2750.5082      4246.1538      301.05661     -0.0014808226   0.0013275909 
   3060000   1430.2392      2766.5529      4196.7921      302.81278     -0.0087800992   0.0013275909 
   3070000   1463.9062      2749.6485      4213.5547      300.96251      0.023802196    0.0013275909 
   3080000   1465.285       2691.3723      4156.6574      294.5839      -0.0080667681   0.0013275909 
   3090000   1445.9909      2745.5854      4191.5763      300.51778      0.016524403    0.0013275909 
   3100000   1521.9356      2764.1449      4286.0805      302.54921      0.035739943    0.0013275909 
   3110000   1469.443       2702.0162      4171.4592      295.74892     -0.002531322    0.0013275909 
   3120000   1468.7659      2734.4492      4203.2151      299.29887      0.018933817    0.0013275909 
   3130000   1459.8456      2807.807       4267.6525      307.32824     -0.028031272    0.0013275909 
   3140000   1489.7335      2836.946       4326.6795      310.51765      0.030024916    0.0013275909 
   3150000   1398.674       2758.7174      4157.3914      301.95515      5.6865535e-05  0.0013275909 
   3160000   1457.0778      2677.2338      4134.3116      293.03636     -0.0017334778   0.0013275909 
   3170000   1479.2191      2672.004       4151.2231      292.46394      0.0025002023   0.0013275909 
   3180000   1447.8192      2760.4452      4208.2645      302.14427      0.0054512378   0.0013275909 
   3190000   1427.0501      2811.1852      4238.2353      307.698       -0.0093342235   0.0013275909 
   3200000   1489.6707      2724.7744      4214.4451      298.23992      0.023023253    0.0013275909 
   3210000   1448.0631      2660.0144      4108.0774      291.15161      0.0029504899   0.0013275909 
   3220000   1506.5898      2726.1462      4232.7361      298.39007     -0.021145094    0.0013275909 
   3230000   1420.647       2723.8668      4144.5138      298.14058     -0.0067146511   0.0013275909 
   3240000   1475.8335      2745.5638      4221.3973      300.51542      0.028289812    0.0013275909 
   3250000   1444.8882      2745.7482      4190.6364      300.53561      0.0080455384   0.0013275909 
   3260000   1546.7286      2734.6124      4281.3409      299.31673      0.0030963361   0.0013275909 
   3270000   1462.7507      2682.203       4144.9537      293.58027      0.02524618     0.0013275909 
   3280000   1420.5968      2789.3762      4209.973       305.3109       0.0098460058   0.0013275909 
   3290000   1438.0071      2730.4998      4168.507       298.86659     -0.0042493205   0.0013275909 
   3300000   1460.1416      2755.7634      4215.905       301.63182     -0.017848392    0.0013275909 
   3310000   1467.5669      2793.3796      4260.9465      305.74909      0.026050796    0.0013275909 
   3320000   1398.828       2758.4219      4157.2499      301.9228       0.011192316    0.0013275909 
   3330000   1457.2939      2749.4598      4206.7537      300.94186      0.016249595    0.0013275909 
   3340000   1474.8879      2753.386       4228.2739      301.3716       0.01675856     0.0013275909 
   3350000   1534.0734      2763.5496      4297.623       302.48405      0.028670976    0.0013275909 
   3360000   1474.4946      2668.7506      4143.2452      292.10784      0.020481292    0.0013275909 
   3370000   1462.9698      2722.945       4185.9148      298.03968     -0.015159613    0.0013275909 
   3380000   1551.9975      2789.1444      4341.1419      305.28553      0.016231215    0.0013275909 
   3390000   1420.5613      2772.7905      4193.3518      303.49551      0.044624628    0.0013275909 
   3400000   1477.9046      2779.1284      4257.033       304.18923      0.0093592219   0.0013275909 
   3410000   1471.9294      2730.6228      4202.5522      298.88005      0.051091591    0.0013275909 
   3420000   1423.1135      2742.3059      4165.4194      300.15882      0.0061410597   0.0013275909 
   3430000   1430.9334      2746.9911      4177.9244      300.67164      0.0017779155   0.0013275909 
   3440000   1484.8602      2829.3026      4314.1628      309.68104      0.030471312    0.0013275909 
   3450000   1434.8347      2758.7956      4193.6303      301.96371     -0.00088434871  0.0013275909 
   3460000   1413.309       2677.8377      4091.1468      293.10247      0.029084585    0.0013275909 
   3470000   1494.1411      2697.7402      4191.8813      295.28089      0.0050954794   0.0013275909 
   3480000   1463.5168      2724.8171      4188.3339      298.24459     -0.0051466853   0.0013275909 
   3490000   1416.4277      2777.5419      4193.9696      304.01558      0.0240389      0.0013275909 
   3500000   1512.167       2727.2151      4239.3821      298.50706      0.0057849693   0.0013275909 
   3510000   1444.2021      2767.7573      4211.9595      302.94461      0.041402215    0.0013275909 
   3520000   1437.8268      2752.7806      4190.6074      301.30533     -0.0026163899   0.0013275909 
   3530000   1499.1299      2733.4236      4232.5535      299.18661     -0.020773694    0.0013275909 
   3540000   1504.4068      2667.3224      4171.7291      291.95151      0.013931861    0.0013275909 
   3550000   1457.2792      2690.7198      4147.999       294.51248      0.0038619891   0.0013275909 
   3560000   1500.0564      2791.4835      4291.5399      305.54156     -0.0011582223   0.0013275909 
   3570000   1483.2682      2718.2592      4201.5274      297.5268       0.024841505    0.0013275909 
   3580000   1493.0434      2749.5467      4242.5901      300.95136      0.031642626    0.0013275909 
   3590000   1456.3391      2736.8901      4193.2292      299.56604      0.027501279    0.0013275909 
   3600000   1432.9751      2752.5704      4185.5456      301.28233      0.026265653    0.0013275909 
   3610000   1460.221       2802.3657      4262.5868      306.73267      0.0045467649   0.0013275909 
   3620000   1455.5217      2691.2841      4146.8058      294.57423      0.016480541    0.0013275909 
   3630000   1465.7746      2740.3405      4206.1151      299.9437       0.022553183    0.0013275909 
   3640000   1440.5798      2771.4083      4211.9881      303.34422      0.015211526    0.0013275909 
   3650000   1391.2323      2710.7449      4101.9772      296.70432      0.017997722    0.0013275909 
   3660000   1420.3785      2720.4071      4140.7857      297.7619       0.0083792111   0.0013275909 
   3670000   1490.1419      2784.5569      4274.6988      304.7834      -0.0052921028   0.0013275909 
   3680000   1451.5797      2748.9803      4200.56        300.88937      0.025039983    0.0013275909 
   3690000   1476.7465      2708.5368      4185.2833      296.46263     -0.0026483042   0.0013275909 
   3700000   1462.8842      2780.2244      4243.1086      304.30919      0.0011074969   0.0013275909 
   3710000   1474.7011      2766.1264      4240.8275      302.76609      0.0039855875   0.0013275909 
   3720000   1463.8113      2672.0507      4135.862       292.46905      0.02119681     0.0013275909 
   3730000   1451.0528      2697.1715      4148.2243      295.21865     -0.0080914854   0.0013275909 
   3740000   1417.5365      2823.0926      4240.6291      309.00133      0.0073209904   0.0013275909 
   3750000   1438.0499      2774.0119      4212.0618      303.6292       0.04362977     0.0013275909 
   3760000   1465.9915      2711.4223      4177.4138      296.77847      0.034713375    0.0013275909 
   3770000   1455.3947      2745.7795      4201.1742      300.53903     -0.013682989    0.0013275909 
   3780000   1425.4099      2738.5789      4163.9888      299.75089      0.027119495    0.0013275909 
   3790000   1459.3577      2749.0468      4208.4045      300.89665      0.011988302    0.0013275909 
   3800000   1465.8308      2801.4313      4267.2622      306.63039      0.0062773644   0.0013275909 
   3810000   1491.8007      2721.8147      4213.6154      297.91596      0.0079196615   0.0013275909 
   3820000   1412.2517      2759.9779      4172.2297      302.09312      0.01695389     0.0013275909 
   3830000   1453.6033      2789.8256      4243.429       305.36009      0.012252702    0.0013275909 
   3840000   1449.4282      2677.9912      4127.4194      293.11927      0.011214994    0.0013275909 
   3850000   1448.0567      2787.8893      4235.946       305.14815      0.0089292592   0.0013275909 
   3860000   1428.437       2780.4107      4208.8477      304.32958      0.019684034    0.0013275909 
   3870000   1462.384       2719.1014      4181.4854      297.61898      0.016206106    0.0013275909 
   3880000   1436.2265      2728.9189      4165.1454      298.69356     -0.027472203    0.0013275909 
   3890000   1483.9616      2688.3236      4172.2851      294.2502       0.0027901483   0.0013275909 
   3900000   1485.3655      2778.7389      4264.1045      304.1466       0.0083286803   0.0013275909 
   3910000   1459.4413      2799.283       4258.7243      306.39525      0.020188959    0.0013275909 
   3920000   1505.8114      2699.5482      4205.3596      295.47878     -0.010690389    0.0013275909 
   3930000   1462.7458      2690.5062      4153.2519      294.48909      0.05341281     0.0013275909 
   3940000   1423.3582      2754.3308      4177.6891      301.47501      0.0047836261   0.0013275909 
   3950000   1496.4801      2786.9722      4283.4523      305.04777      0.0051765351   0.0013275909 
   3960000   1499.6758      2697.3026      4196.9784      295.23299      0.023403699    0.0013275909 
   3970000   1459.4166      2721.1114      4180.528       297.83898      0.0019036657   0.0013275909 
   3980000   1459.436       2708.0317      4167.4677      296.40735     -0.018120072    0.0013275909 
   3990000   1472.9889      2749.4734      4222.4623      300.94334      0.0079124869   0.0013275909 
   4000000   1416.0605      2806.0719      4222.1325      307.13833      0.001409515    0.0013275909 
   4010000   1495.5215      2695.4935      4191.015       295.03498      0.0013745737   0.0013275909 
   4020000   1514.406       2784.4175      4298.8235      304.76814      0.0038822328   0.0013275909 
   4030000   1420.3844      2780.3278      4200.7123      304.32051      0.043048549    0.0013275909 
   4040000   1411.4058      2687.9216      4099.3273      294.20619     -0.012543705    0.0013275909 
   4050000   1466.3088      2706.4768      4172.7856      296.23715      0.0049125594   0.0013275909 
   4060000   1486.0139      2721.257       4207.2709      297.85492     -0.0082923305   0.0013275909 
   4070000   1495.7474      2733.9996      4229.747       299.24966      0.005110748    0.0013275909 
   4080000   1441.9694      2823.8765      4265.8459      309.08712     -0.0078631418   0.0013275909 
   4090000   1484.3957      2704.5101      4188.9058      296.02189      0.028437259    0.0013275909 
   4100000   1492.5897      2783.8455      4276.4352      304.70554      0.0086901745   0.0013275909 
   4110000   1465.6954      2748.7151      4214.4104      300.86034     -0.029460997    0.0013275909 
   4120000   1489.4036      2755.0399      4244.4436      301.55263      0.017454899    0.0013275909 
   4130000   1419.366       2764.0052      4183.3711      302.53392      0.022686658    0.0013275909 
   4140000   1453.3674      2785.1606      4238.528       304.84948     -0.0054722998   0.0013275909 
   4150000   1487.61        2770.2707      4257.8807      303.21971      0.0027403218   0.0013275909 
   4160000   1476.596       2759.3345      4235.9305      302.02269     -0.019184599    0.0013275909 
   4170000   1463.8633      2733.1967      4197.06        299.16178      0.0034248762   0.0013275909 
   4180000   1490.5818      2697.1029      4187.6847      295.21113      0.0098758876   0.0013275909 
   4190000   1490.6081      2739.8236      4230.4317      299.88713      0.049615135    0.0013275909 
   4200000   1462.5893      2757.1965      4219.7858      301.78868     -0.01007796     0.0013275909 
   4210000   1461.0144      2736.1011      4197.1155      299.47968      0.01118773     0.0013275909 
   4220000   1441.6957      2753.3643      4195.06        301.36922      0.030327732    0.0013275909 
   4230000   1454.9669      2738.4604      4193.4273      299.73792      0.042757278    0.0013275909 
   4240000   1450.2554      2811.1715      4261.4269      307.69651      0.016947801    0.0013275909 
   4250000   1454.2087      2803.1026      4257.3113      306.81332      0.032238766    0.0013275909 
   4260000   1466.6573      2743.5771      4210.2345      300.29797      0.04770058     0.0013275909 
   4270000   1472.9471      2746.862       4219.8091      300.65752      0.020541756    0.0013275909 
   4280000   1488.1859      2751.9344      4240.1203      301.21271      0.018169903    0.0013275909 
   4290000   1486.0335      2710.8087      4196.8422      296.71131      0.0029582448   0.0013275909 
   4300000   1500.534       2713.5944      4214.1284      297.01622      0.004643248    0.0013275909 
   4310000   1455.4838      2728.4921      4183.9759      298.64684      0.030429712    0.0013275909 
   4320000   1492.9561      2703.362       4196.3181      295.89623      0.0051866131   0.0013275909 
   4330000   1476.4899      2797.5464      4274.0363      306.20517      0.039437173    0.0013275909 
   4340000   1496.8294      2702.7155      4199.5449      295.82546      0.015761669    0.0013275909 
   4350000   1482.9792      2788.7767      4271.7559      305.24528      0.019581517    0.0013275909 
   4360000   1482.3918      2786.9412      4269.333       305.04438      0.018816962    0.0013275909 
   4370000   1514.7074      2771.3552      4286.0627      303.33842      0.013122372    0.0013275909 
   4380000   1494.7115      2718.2206      4212.9321      297.52257      0.0038870135   0.0013275909 
   4390000   1473.0153      2686.7078      4159.7231      294.07334      0.022145697    0.0013275909 
   4400000   1519.7573      2718.6722      4238.4295      297.572        0.0068887016   0.0013275909 
   4410000   1413.885       2756.6762      4170.5612      301.73173     -0.015733518    0.0013275909 
   4420000   1510.5414      2758.2017      4268.7431      301.8987      -0.0028769021   0.0013275909 
   4430000   1431.0086      2726.1668      4157.1754      298.39232      0.0003762151   0.0013275909 
   4440000   1433.3864      2813.0378      4246.4242      307.90077      0.012544942    0.0013275909 
   4450000   1456.3778      2722.122       4178.4998      297.9496       0.0047358203   0.0013275909 
   4460000   1436.5779      2687.6551      4124.2331      294.17703      0.023671802    0.0013275909 
   4470000   1422.5415      2714.9595      4137.501       297.16563     -0.0091160904   0.0013275909 
   4480000   1429.6472      2716.1156      4145.7628      297.29217      0.043151751    0.0013275909 
   4490000   1489.5413      2765.9595      4255.5008      302.74782     -0.022561618    0.0013275909 
   4500000   1451.9571      2823.6127      4275.5698      309.05825     -0.0061662293   0.0013275909 
   4510000   1380.6178      2840.8262      4221.444       310.94235      0.02314537     0.0013275909 
   4520000   1422.0938      2765.2677      4187.3616      302.67211      0.0042923189   0.0013275909 
   4530000   1471.7718      2684.593       4156.3648      293.84186      0.013259822    0.0013275909 
   4540000   1408.5284      2761.5031      4170.0315      302.26005     -0.019226636    0.0013275909 
   4550000   1430.685       2714.9136      4145.5987      297.16061     -0.0033951488   0.0013275909 
   4560000   1452.8173      2744.8715      4197.6887      300.43964      0.0019118679   0.0013275909 
   4570000   1422.9913      2794.7749      4217.7662      305.90181      0.017769768    0.0013275909 
   4580000   1422.5582      2767.6468      4190.2049      302.93251      0.020424355    0.0013275909 
   4590000   1392.8162      2746.5574      4139.3736      300.62418      0.020542101    0.0013275909 
   4600000   1410.0632      2726.2758      4136.3391      298.40426      0.023615185    0.0013275909 
   4610000   1462.825       2767.3073      4230.1323      302.89535      0.029500001    0.0013275909 
   4620000   1471.6221      2761.2715      4232.8936      302.2347      -0.0018140007   0.0013275909 
   4630000   1478.957       2742.8878      4221.8447      300.22252     -0.0045499725   0.0013275909 
   4640000   1431.2418      2762.8237      4194.0655      302.4046       0.051307475    0.0013275909 
   4650000   1432.5552      2757.4554      4190.0106      301.81701      0.0090135201   0.0013275909 
   4660000   1467.4484      2770.1543      4237.6028      303.20697      0.032852293    0.0013275909 
   4670000   1450.5365      2700.7853      4151.3218      295.61419      0.01021022     0.0013275909 
   4680000   1414.0328      2786.5387      4200.5715      305.00033      0.031604807    0.0013275909 
   4690000   1423.102       2775.2982      4198.4002      303.76999      0.0054404852   0.0013275909 
   4700000   1430.9875      2740.8808      4171.8683      300.00284      0.0026793244   0.0013275909 
   4710000   1487.511       2770.165       4257.6759      303.20814      0.018765512    0.0013275909 
   4720000   1502.5287      2680.6241      4183.1529      293.40745      0.0054658027   0.0013275909 
   4730000   1462.813       2722.4382      4185.2512      297.98421      0.014566013    0.0013275909 
   4740000   1456.4309      2722.2656      4178.6965      297.96531     -0.022104834    0.0013275909 
   4750000   1458.4151      2806.0543      4264.4694      307.13641      0.007853299    0.0013275909 
   4760000   1457.1421      2696.3228      4153.4649      295.12575      0.012888552    0.0013275909 
   4770000   1450.6361      2711.5647      4162.2008      296.79405      0.010441426    0.0013275909 
   4780000   1526.6097      2697.2408      4223.8505      295.22623     -0.024445488    0.0013275909 
   4790000   1464.0939      2748.4959      4212.5898      300.83635     -0.0029451523   0.0013275909 
   4800000   1508.0377      2755.825       4263.8626      301.63856      0.027941089    0.0013275909 
   4810000   1504.592       2783.2244      4287.8164      304.63756      0.0011894101   0.0013275909 
   4820000   1496.2372      2759.8286      4256.0658      302.07677     -0.0012816918   0.0013275909 
   4830000   1427.7373      2745.7098      4173.4471      300.5314       0.0089015198   0.0013275909 
   4840000   1466.5472      2823.339       4289.8862      309.02829      0.042604987    0.0013275909 
   4850000   1472.7995      2755.068       4227.8675      301.5557       0.011734835    0.0013275909 
   4860000   1400.2426      2676.9379      4077.1805      293.00398      0.012652416    0.0013275909 
   4870000   1377.8915      2753.6477      4131.5392      301.40025     -0.0015169698   0.0013275909 
   4880000   1451.1795      2717.3118      4168.4913      297.4231      -0.0061559821   0.0013275909 
   4890000   1433.6617      2717.9758      4151.6375      297.49577      0.026783059    0.0013275909 
   4900000   1438.4147      2715.5979      4154.0126      297.23551      0.0033079338   0.0013275909 
   4910000   1451.602       2773.653       4225.255       303.58992      0.019445642    0.0013275909 
   4920000   1419.5583      2729.5602      4149.1184      298.76374      0.031823352    0.0013275909 
   4930000   1442.9137      2745.6836      4188.5972      300.52853      0.036676533    0.0013275909 
   4940000   1459.7209      2763.3405      4223.0614      302.46117      0.03291866     0.0013275909 
   4950000   1471.1047      2712.7373      4183.8419      296.92239      0.012705174    0.0013275909 
   4960000   1492.4407      2775.9064      4268.3471      303.83657     -0.0017514796   0.0013275909 
   4970000   1477.9213      2744.9198      4222.8411      300.44493     -0.0020664863   0.0013275909 
   4980000   1442.4015      2736.6907      4179.0922      299.54421      0.014204582    0.0013275909 
   4990000   1455.0904      2740.6207      4195.7111      299.97437     -0.011610585    0.0013275909 
   5000000   1447.741       2677.8377      4125.5787      293.10246     -0.00080725659  0.0013275909 
Loop time of 258.23 on 32 procs for 5000000 steps with 3066 atoms

Performance: 16729.258 ns/day, 0.001 hours/ns, 19362.568 timesteps/s, 59.366 Matom-step/s
99.3% CPU use with 32 MPI tasks x 1 OpenMP threads

MPI task timing breakdown:
Section |  min time  |  avg time  |  max time  |%varavg| %total
---------------------------------------------------------------
Pair    | 39.349     | 51.836     | 115.88     | 211.7 | 20.07
Bond    | 7.1772     | 16.794     | 29.225     | 134.6 |  6.50
Neigh   | 0.81876    | 0.84889    | 0.87065    |   1.6 |  0.33
Comm    | 109.29     | 170.9      | 195.52     | 152.0 | 66.18
Output  | 0.057132   | 0.075248   | 0.17394    |   7.2 |  0.03
Modify  | 5.7562     | 10.363     | 17.829     |  94.6 |  4.01
Other   |            | 7.415      |            |       |  2.87

Nlocal:        95.8125 ave         158 max          25 min
Histogram: 2 2 5 2 4 1 5 5 3 3
Nghost:         77.625 ave         128 max          34 min
Histogram: 3 1 8 3 6 1 2 1 5 2
Neighs:         179.75 ave         593 max          37 min
Histogram: 4 10 7 4 5 1 0 0 0 1

Total # of neighbors = 5752
Ave neighs/atom = 1.87606
Ave special neighs/atom = 4.8219178
Neighbor list builds = 12487
Dangerous builds = 0

# --- Production (1 µs) -------------------------------------------
unfix favg
fix favg all ave/time 10000 10 100000 v_vpe v_vke v_vT v_vE v_vRg     file outputs/thermo_${tag}_production.dat
fix favg all ave/time 10000 10 100000 v_vpe v_vke v_vT v_vE v_vRg     file outputs/thermo_7LYJ_aso_n300_production.dat

restart 10000000 outputs/backup_${tag}.*.restart
restart 10000000 outputs/backup_7LYJ_aso_n300.*.restart
run 100000000
Generated 0 of 6 mixed pair_coeff terms from geometric mixing rule
Per MPI rank memory allocation (min/avg/max) = 8.65 | 8.76 | 8.921 Mbytes
   Step         PotEng         KinEng         TotEng          Temp          Press         Density    
   5000000   1447.741       2677.8377      4125.5787      293.10246     -0.00080725659  0.0013275909 
   5010000   1439.0829      2805.4878      4244.5707      307.07439      0.010227126    0.0013275909 
   5020000   1440.689       2715.2349      4155.9239      297.19578      0.029703719    0.0013275909 
   5030000   1465.2484      2720.6843      4185.9327      297.79223      0.036290357    0.0013275909 
   5040000   1462.6084      2742.6158      4205.2241      300.19274     -0.00088476498  0.0013275909 
   5050000   1405.6425      2742.4194      4148.062       300.17125      0.022507504    0.0013275909 
   5060000   1506.713       2772.2571      4278.9701      303.43713      0.016177459    0.0013275909 
   5070000   1428.7918      2775.7742      4204.566       303.8221       0.002268342    0.0013275909 
   5080000   1418.4679      2802.5291      4220.9971      306.75055      0.025689873    0.0013275909 
   5090000   1475.0558      2679.032       4154.0878      293.23319      0.019605315    0.0013275909 
   5100000   1455.3305      2781.5787      4236.9092      304.45743      0.014631699    0.0013275909 
   5110000   1510.4945      2707.2664      4217.7609      296.32358      0.0032007406   0.0013275909 
   5120000   1450.1992      2790.8976      4241.0968      305.47743      0.012900177    0.0013275909 
   5130000   1463.106       2786.1976      4249.3036      304.96299      0.014639826    0.0013275909 
   5140000   1447.7295      2798.7445      4246.474       306.33631      0.028911178    0.0013275909 
   5150000   1496.8867      2707.9899      4204.8766      296.40278      0.017979684    0.0013275909 
   5160000   1382.5169      2766.9353      4149.4521      302.85463      0.010442618    0.0013275909 
   5170000   1445.4475      2755.2079      4200.6555      301.57102      0.016188575    0.0013275909 
   5180000   1486.079       2742.2686      4228.3476      300.15474     -0.011078797    0.0013275909 
   5190000   1422.7086      2792.4501      4215.1586      305.64735     -0.0027563379   0.0013275909 
   5200000   1429.7529      2785.6227      4215.3756      304.90006      0.032857619    0.0013275909 
   5210000   1451.8473      2644.9791      4096.8264      289.50593      0.017872234    0.0013275909 
   5220000   1470.0297      2754.5462      4224.5759      301.49859      0.021503304    0.0013275909 
   5230000   1443.6294      2766.35        4209.9794      302.79057      0.0073317977   0.0013275909 
   5240000   1386.9226      2730.2         4117.1226      298.83377      0.018598605    0.0013275909 
   5250000   1455.5659      2786.7065      4242.2725      305.01869      0.00093256845  0.0013275909 
   5260000   1476.9913      2742.0643      4219.0556      300.13238     -0.020841927    0.0013275909 
   5270000   1456.8885      2737.3978      4194.2864      299.62161     -0.014500848    0.0013275909 
   5280000   1446.2909      2766.4064      4212.6973      302.79674      0.036641032    0.0013275909 
   5290000   1460.4067      2706.9363      4167.343       296.28745      0.029537094    0.0013275909 
   5300000   1477.1931      2787.3124      4264.5055      305.085        0.0023691327   0.0013275909 
   5310000   1428.9281      2835.8405      4264.7685      310.39664     -0.00041962266  0.0013275909 
   5320000   1452.2062      2758.0158      4210.222       301.87835     -0.020748986    0.0013275909 
   5330000   1477.2898      2825.707       4302.9969      309.28749      0.033024715    0.0013275909 
   5340000   1505.28        2693.0967      4198.3768      294.77264      0.016351904    0.0013275909 
   5350000   1468.1267      2758.9447      4227.0714      301.98002      0.014702933    0.0013275909 
   5360000   1520.5613      2736.012       4256.5734      299.46993     -0.015990025    0.0013275909 
   5370000   1461.9811      2642.3457      4104.3268      289.21769      0.0069698926   0.0013275909 
   5380000   1463.3164      2741.4224      4204.7388      300.06212      0.010563303    0.0013275909 
   5390000   1442.1093      2691.311       4133.4203      294.57718      0.014212789    0.0013275909 
   5400000   1495.9461      2802.4469      4298.393       306.74155      0.034629129    0.0013275909 
   5410000   1460.5329      2750.341       4210.8739      301.0383      -0.0060879953   0.0013275909 
   5420000   1461.5057      2741.692       4203.1978      300.09163      0.021152927    0.0013275909 
   5430000   1460.5106      2785.7091      4246.2197      304.90952      0.046094087    0.0013275909 
   5440000   1433.7872      2699.6504      4133.4376      295.48998      0.0046479987   0.0013275909 
   5450000   1555.8835      2746.0573      4301.9409      300.56944      0.0070401683   0.0013275909 
   5460000   1473.3565      2733.8739      4207.2304      299.2359       0.020356315    0.0013275909 
   5470000   1449.6795      2775.9175      4225.597       303.83778      0.018211717    0.0013275909 
   5480000   1481.2857      2699.4127      4180.6983      295.46395     -0.0059320413   0.0013275909 
   5490000   1459.4573      2670.388       4129.8454      292.28706      0.0075013249   0.0013275909 
   5500000   1462.5031      2749.1595      4211.6626      300.90899      0.019206759    0.0013275909 
   5510000   1418.9463      2679.2354      4098.1816      293.25545     -0.0059325576   0.0013275909 
   5520000   1489.998       2750.4334      4240.4314      301.04842     -0.015571659    0.0013275909 
   5530000   1447.3064      2755.303       4202.6094      301.58142      0.01672789     0.0013275909 
   5540000   1450.1908      2728.0693      4178.2601      298.60056      0.040844309    0.0013275909 
   5550000   1531.5722      2671.6066      4203.1787      292.42044     -0.0046531704   0.0013275909 
   5560000   1409.5897      2710.1657      4119.7554      296.64093      0.0078071143   0.0013275909 
   5570000   1500.58        2730.6057      4231.1857      298.87818      0.028372483    0.0013275909 
   5580000   1430.272       2791.8229      4222.095       305.57871      0.012238905    0.0013275909 
   5590000   1426.7687      2705.8975      4132.6661      296.17374      0.017156027    0.0013275909 
   5600000   1459.0006      2733.9553      4192.9558      299.24481     -0.020221756    0.0013275909 
   5610000   1456.2593      2676.5532      4132.8125      292.96187      0.018301146    0.0013275909 
   5620000   1468.4207      2776.2101      4244.6308      303.86981      0.008618677    0.0013275909 
   5630000   1482.9964      2732.8         4215.7965      299.11836      0.0046187767   0.0013275909 
   5640000   1424.5745      2699.5884      4124.1628      295.48318      0.019384616    0.0013275909 
   5650000   1450.4188      2754.6452      4205.064       301.50942     -0.013883895    0.0013275909 
   5660000   1486.944       2793.0169      4279.9608      305.70939      0.015763282    0.0013275909 
   5670000   1482.7825      2827.9026      4310.6851      309.5278       0.0093045074   0.0013275909 
   5680000   1420.861       2706.8761      4127.7371      296.28086     -0.021138734    0.0013275909 
   5690000   1441.0174      2747.0588      4188.0761      300.67905      0.005404883    0.0013275909 
   5700000   1517.0924      2731.8327      4248.9252      299.01249      0.011817183    0.0013275909 
   5710000   1493.1449      2816.1724      4309.3173      308.24387      0.024373103    0.0013275909 
   5720000   1481.2676      2721.8299      4203.0975      297.91763      0.0049663787   0.0013275909 
   5730000   1492.86        2772.1375      4264.9975      303.42404     -0.00065043245  0.0013275909 
   5740000   1441.3854      2720.7049      4162.0903      297.79449     -0.014507487    0.0013275909 
   5750000   1480.1574      2771.0206      4251.178       303.30179      0.020761761    0.0013275909 
   5760000   1450.5693      2721.4732      4172.0424      297.87858      0.028096629    0.0013275909 
   5770000   1441.0468      2736.5788      4177.6255      299.53197     -0.00047854627  0.0013275909 
   5780000   1460.0969      2689.5987      4149.6956      294.38976     -0.0099356307   0.0013275909 
   5790000   1425.6698      2727.0125      4152.6823      298.48488      0.015507556    0.0013275909 
   5800000   1450.1516      2754.3381      4204.4897      301.47581      0.0076214626   0.0013275909 
   5810000   1462.3421      2732.0871      4194.4292      299.04033      0.0016037205   0.0013275909 
   5820000   1430.1131      2660.8962      4091.0093      291.24814      0.018066905    0.0013275909 
   5830000   1515.982       2737.6875      4253.6695      299.65332      0.025134328    0.0013275909 
   5840000   1483.1619      2719.6881      4202.85        297.6832       0.010360465    0.0013275909 
   5850000   1442.2687      2725.8407      4168.1093      298.35663      0.0013641703   0.0013275909 
   5860000   1480.9825      2784.6001      4265.5826      304.78813      0.017870456    0.0013275909 
   5870000   1456.4015      2696.2406      4152.6422      295.11676      0.038066964    0.0013275909 
   5880000   1458.4494      2784.7582      4243.2076      304.80544      0.036034145    0.0013275909 
   5890000   1424.4669      2747.1247      4171.5916      300.68627     -0.0050753646   0.0013275909 
   5900000   1458.4415      2693.4631      4151.9046      294.81274      0.021720126    0.0013275909 
   5910000   1455.052       2758.4696      4213.5216      301.92802     -0.0034241662   0.0013275909 
   5920000   1433.9917      2728.8166      4162.8082      298.68235      0.021508147    0.0013275909 
   5930000   1454.4117      2720.7995      4175.2112      297.80484      0.025644062    0.0013275909 
   5940000   1499.2741      2670.1138      4169.388       292.25705      0.0042675205   0.0013275909 
   5950000   1456.3573      2778.4454      4234.8027      304.11447      0.017036665    0.0013275909 
   5960000   1413.9557      2751.1527      4165.1083      301.12715      0.01801627     0.0013275909 
   5970000   1501.5429      2682.3387      4183.8816      293.59512      0.022783123    0.0013275909 
   5980000   1422.2668      2809.1942      4231.4611      307.48008     -0.017225477    0.0013275909 
   5990000   1502.5219      2727.3145      4229.8364      298.51794      0.045200005    0.0013275909 
   6000000   1456.3773      2739.1753      4195.5525      299.81617     -0.030419533    0.0013275909 
   6010000   1406.1925      2760.7724      4166.965       302.18008      0.017470061    0.0013275909 
   6020000   1469.8641      2790.9802      4260.8443      305.48646      0.028906339    0.0013275909 
   6030000   1479.5182      2731.2936      4210.8117      298.95347     -0.0012139906   0.0013275909 
   6040000   1392.3381      2690.6371      4082.9752      294.50342      0.015019271    0.0013275909 
   6050000   1450.7511      2756.2519      4207.003       301.68528      0.029055992    0.0013275909 
   6060000   1474.6077      2772.8164      4247.4241      303.49835      0.024495185    0.0013275909 
   6070000   1459.0473      2703.5302      4162.5775      295.91464      0.0059393468   0.0013275909 
   6080000   1467.1134      2671.7645      4138.8779      292.43772      0.0099270642   0.0013275909 
   6090000   1437.0899      2738.2631      4175.353       299.71632     -0.019171663    0.0013275909 
   6100000   1460.9395      2752.9785      4213.918       301.327        0.0021517726   0.0013275909 
   6110000   1416.0014      2766.9573      4182.9587      302.85704      0.012051547    0.0013275909 
   6120000   1478.8183      2724.6798      4203.4981      298.22957     -0.0079598387   0.0013275909 
   6130000   1445.0551      2720.3958      4165.451       297.76066      0.026002618    0.0013275909 
   6140000   1527.1867      2699.1368      4226.3235      295.43375      0.040004228    0.0013275909 
   6150000   1474.9489      2797.5822      4272.5311      306.20909      0.020120262    0.0013275909 
   6160000   1441.4065      2745.6083      4187.0149      300.52029     -0.01589876     0.0013275909 
   6170000   1440.2417      2696.3565      4136.5982      295.12944     -0.026375916    0.0013275909 
   6180000   1410.2928      2741.6556      4151.9483      300.08764      0.0078086804   0.0013275909 
   6190000   1450.9883      2689.7459      4140.7342      294.40588     -0.012764621    0.0013275909 
   6200000   1473.8775      2712.0272      4185.9047      296.84467      0.0049420056   0.0013275909 
   6210000   1435.6692      2721.859       4157.5282      297.92082     -0.0065065302   0.0013275909 
   6220000   1455.2083      2671.75        4126.9583      292.43613     -0.019368066    0.0013275909 
   6230000   1445.2975      2707.051       4152.3485      296.3          0.021790909    0.0013275909 
   6240000   1459.7977      2705.4836      4165.2814      296.12845      0.025220894    0.0013275909 
   6250000   1469.9745      2731.3113      4201.2859      298.95542      0.022536802    0.0013275909 
   6260000   1491.3875      2674.2919      4165.6795      292.71436     -0.013697795    0.0013275909 
   6270000   1407.0427      2755.1398      4162.1825      301.56355      0.0024356888   0.0013275909 
   6280000   1412.6316      2715.2651      4127.8968      297.19908     -0.0032565935   0.0013275909 
   6290000   1439.8463      2739.2564      4179.1027      299.82505      0.063773888    0.0013275909 
   6300000   1447.0493      2743.5908      4190.6401      300.29946      0.033770345    0.0013275909 
   6310000   1474.9683      2732.4683      4207.4367      299.08206     -0.0054498109   0.0013275909 
   6320000   1462.769       2734.3817      4197.1507      299.29148      0.0053519004   0.0013275909 
   6330000   1434.2547      2820.2246      4254.4793      308.68741     -0.0089362945   0.0013275909 
   6340000   1481.3278      2726.3737      4207.7015      298.41496      0.0018350223   0.0013275909 
   6350000   1423.9946      2731.6649      4155.6595      298.99412     -0.0022129792   0.0013275909 
   6360000   1482.1859      2756.5503      4238.7362      301.71794      0.0066578131   0.0013275909 
   6370000   1444.1976      2719.8146      4164.0123      297.69704      0.04673115     0.0013275909 
   6380000   1490.4756      2776.6679      4267.1435      303.91992      0.017852879    0.0013275909 
   6390000   1463.5509      2844.51        4308.0609      311.34556      0.03817294     0.0013275909 
   6400000   1421.5842      2730.3645      4151.9487      298.85178      0.0046172461   0.0013275909 
   6410000   1452.2029      2737.6598      4189.8627      299.65029      0.0052085993   0.0013275909 
   6420000   1488.1019      2693.7741      4181.876       294.84679     -0.025780351    0.0013275909 
   6430000   1429.132       2753.9731      4183.1051      301.43586     -0.012636561    0.0013275909 
   6440000   1485.2901      2732.1098      4217.3999      299.04281      0.020348921    0.0013275909 
   6450000   1458.3759      2741.0947      4199.4705      300.02625     -3.7989863e-05  0.0013275909 
   6460000   1460.2663      2736.7555      4197.0218      299.55131     -0.01674611     0.0013275909 
   6470000   1474.5627      2697.1065      4171.6692      295.21153     -0.020647292    0.0013275909 
   6480000   1460.2059      2736.8703      4197.0762      299.56387      0.022823991    0.0013275909 
   6490000   1521.5585      2758.4081      4279.9666      301.92129     -0.00909314     0.0013275909 
   6500000   1428.7979      2639.9071      4068.705       288.95077     -0.017758802    0.0013275909 
   6510000   1464.4238      2737.5347      4201.9585      299.6366      -0.017810218    0.0013275909 
   6520000   1488.4313      2759.2939      4247.7253      302.01825     -0.0019035005   0.0013275909 
   6530000   1506.5153      2794.2169      4300.7322      305.84074     -0.015758009    0.0013275909 
   6540000   1455.3417      2779.8527      4235.1943      304.2685       0.00038208421  0.0013275909 
   6550000   1442.5366      2767.5675      4210.1041      302.92383      0.00059373588  0.0013275909 
   6560000   1443.9491      2756.3687      4200.3179      301.69807     -0.011504331    0.0013275909 
   6570000   1510.8688      2681.1163      4191.9851      293.46133     -0.0040208084   0.0013275909 
   6580000   1493.8865      2777.8458      4271.7323      304.04884      0.045563       0.0013275909 
   6590000   1441.5758      2685.7996      4127.3754      293.97393      0.02197241     0.0013275909 
   6600000   1417.9299      2711.8271      4129.757       296.82277     -0.0089768587   0.0013275909 
   6610000   1479.2212      2729.5241      4208.7452      298.75979      0.016481291    0.0013275909 
   6620000   1505.437       2757.5655      4263.0025      301.82907      0.0032531802   0.0013275909 
   6630000   1482.5668      2731.3423      4213.9091      298.95881      0.0014126167   0.0013275909 
   6640000   1470.0273      2722.6951      4192.7225      298.01233      0.0046414084   0.0013275909 
   6650000   1419.1514      2707.8559      4127.0072      296.3881      -0.014907582    0.0013275909 
   6660000   1510.5807      2765.9287      4276.5094      302.74445     -0.016729882    0.0013275909 
   6670000   1504.5437      2741.9884      4246.5321      300.12407      0.014348868    0.0013275909 
   6680000   1514.1576      2660.7254      4174.883       291.22944      0.014512322    0.0013275909 
   6690000   1437.4018      2713.802       4151.2038      297.03893      0.0026284276   0.0013275909 
   6700000   1480.6943      2757.1304      4237.8246      301.78143     -0.0065540503   0.0013275909 
   6710000   1466.4497      2704.6964      4171.1461      296.04228      0.0099679844   0.0013275909 
   6720000   1493.7529      2688.8597      4182.6126      294.30888      0.024486767    0.0013275909 
   6730000   1459.1061      2729.924       4189.0301      298.80357      0.002928283    0.0013275909 
   6740000   1455.3198      2713.3395      4168.6592      296.98831      0.042270231    0.0013275909 
   6750000   1485.3828      2718.5422      4203.925       297.55777     -0.000376625    0.0013275909 
   6760000   1474.5039      2711.7142      4186.218       296.81041      0.032970155    0.0013275909 
   6770000   1496.1936      2736.2899      4232.4834      299.50034      0.010764494    0.0013275909 
   6780000   1481.8628      2724.3273      4206.1901      298.19098     -0.010274983    0.0013275909 
   6790000   1478.4601      2730.1526      4208.6127      298.82859      0.0010016752   0.0013275909 
   6800000   1447.2172      2720.1491      4167.3663      297.73365      0.0056652226   0.0013275909 
   6810000   1438.3488      2731.4946      4169.8434      298.97548      0.0051093572   0.0013275909 
   6820000   1516.4055      2754.3433      4270.7488      301.47637     -0.018765102    0.0013275909 
   6830000   1500.7456      2814.589       4315.3346      308.07057      0.025690238    0.0013275909 
   6840000   1428.4996      2725.4682      4153.9679      298.31586      0.039794128    0.0013275909 
   6850000   1497.2442      2703.8861      4201.1303      295.95359     -0.0059899135   0.0013275909 
   6860000   1443.2091      2746.4795      4189.6885      300.61564     -0.0043485022   0.0013275909 
   6870000   1476.806       2706.3005      4183.1065      296.21786      0.017015674    0.0013275909 
   6880000   1448.4702      2711.5475      4160.0178      296.79217      0.014080729    0.0013275909 
   6890000   1444.5347      2748.44        4192.9748      300.83024      0.027116527    0.0013275909 
   6900000   1468.4895      2720.3075      4188.797       297.75099      0.025108811    0.0013275909 
   6910000   1534.8114      2760.3692      4295.1806      302.13594     -0.00017910895  0.0013275909 
   6920000   1450.6713      2806.1307      4256.8021      307.14477      0.018709495    0.0013275909 
   6930000   1433.2388      2721.9696      4155.2084      297.93292      0.0043047168   0.0013275909 
   6940000   1460.0686      2711.2842      4171.3528      296.76335     -0.021124962    0.0013275909 
   6950000   1448.5091      2764.9386      4213.4477      302.63609      0.018199923    0.0013275909 
   6960000   1439.6488      2722.6527      4162.3015      298.00769      0.044888252    0.0013275909 
   6970000   1473.6642      2748.428       4222.0921      300.82892     -0.022034647    0.0013275909 
   6980000   1497.9262      2752.9672      4250.8934      301.32576      0.0028546222   0.0013275909 
   6990000   1493.3634      2685.8861      4179.2495      293.9834       0.010689616    0.0013275909 
   7000000   1463.1562      2755.7491      4218.9052      301.63025     -0.01026873     0.0013275909 
   7010000   1491.3103      2752.318       4243.6283      301.2547       0.052792634    0.0013275909 
   7020000   1417.675       2694.0011      4111.6761      294.87163      0.00039073233  0.0013275909 
   7030000   1473.4678      2755.5732      4229.041       301.61099      0.01449569     0.0013275909 
   7040000   1464.7741      2664.2628      4129.0369      291.61663     -0.011468317    0.0013275909 
   7050000   1434.7198      2807.2228      4241.9427      307.2643       0.0081964724   0.0013275909 
   7060000   1453.3253      2704.6012      4157.9265      296.03186      0.01001698     0.0013275909 
   7070000   1504.1312      2712.2783      4216.4095      296.87216      0.032646419    0.0013275909 
[...]
 103190000   1498.3199      2772.8843      4271.2041      303.50578     -0.0087302229   0.0013275909 
 103200000   1445.4102      2767.8662      4213.2764      302.95653      0.051745061    0.0013275909 
 103210000   1546.215       2699.7665      4245.9815      295.50268      0.011212455    0.0013275909 
 103220000   1533.3546      2731.9806      4265.3352      299.02867      0.0049064036   0.0013275909 
 103230000   1465.0727      2734.8426      4199.9154      299.34193      0.035846072    0.0013275909 
 103240000   1463.3777      2724.6449      4188.0226      298.22574      0.021538208    0.0013275909 
 103250000   1498.4573      2798.3231      4296.7804      306.29018      0.0074650104   0.0013275909 
 103260000   1466.9031      2729.8491      4196.7522      298.79536      0.00010944029  0.0013275909 
 103270000   1482.1716      2642.2765      4124.4481      289.21011      0.0092895546   0.0013275909 
 103280000   1476.0471      2713.4051      4189.4522      296.99549      0.0088077941   0.0013275909 
 103290000   1454.5937      2740.2046      4194.7983      299.92883     -0.0082441648   0.0013275909 
 103300000   1392.4047      2713.8419      4106.2466      297.0433      -0.021956716    0.0013275909 
 103310000   1492.134       2664.0178      4156.1518      291.58981      0.0076508945   0.0013275909 
 103320000   1442.0694      2760.8568      4202.9262      302.18931      0.043867465    0.0013275909 
 103330000   1466.9094      2667.8787      4134.788       292.0124       0.012984861    0.0013275909 
 103340000   1441.4155      2740.3825      4181.7979      299.9483       0.0057704463   0.0013275909 
 103350000   1478.0918      2678.4908      4156.5826      293.17395     -0.0044413468   0.0013275909 
 103360000   1444.7646      2758.9496      4203.7141      301.98056      0.016586292    0.0013275909 
 103370000   1471.5734      2720.7568      4192.3301      297.80017      0.003788337    0.0013275909 
 103380000   1467.1678      2730.746       4197.9138      298.89353      0.0012923637   0.0013275909 
 103390000   1493.3704      2697.8794      4191.2498      295.29613      0.008783272    0.0013275909 
 103400000   1444.0329      2725.8301      4169.8629      298.35546      0.0025595371   0.0013275909 
 103410000   1439.8154      2727.1185      4166.9339      298.49649      0.031200579    0.0013275909 
 103420000   1527.3432      2790.1442      4317.4873      305.39496      0.028453165    0.0013275909 
 103430000   1465.3916      2714.128       4179.5195      297.07461     -0.0063405682   0.0013275909 
 103440000   1461.049       2689.2791      4150.3281      294.35478      0.020461514    0.0013275909 
 103450000   1479.4349      2641.8224      4121.2573      289.16042      0.043512946    0.0013275909 
 103460000   1438.7056      2722.5321      4161.2378      297.99449      0.0054931009   0.0013275909 
 103470000   1442.2276      2804.7184      4246.946       306.99018      0.019673556    0.0013275909 
 103480000   1472.1357      2750.5733      4222.709       301.06374      0.002976375    0.0013275909 
 103490000   1482.1948      2756.6047      4238.7995      301.7239       0.013542132    0.0013275909 
 103500000   1454.2218      2759.8777      4214.0994      302.08214      0.020204922    0.0013275909 
 103510000   1465.9767      2716.5539      4182.5305      297.34014     -0.00024942758  0.0013275909 
 103520000   1431.644       2706.2642      4137.9082      296.21388      0.0046011615   0.0013275909 
 103530000   1462.4531      2758.4175      4220.8706      301.92232     -0.011239096    0.0013275909 
 103540000   1483.3741      2695.5691      4178.9431      295.04325      0.021425879    0.0013275909 
 103550000   1467.4339      2821.3612      4288.7951      308.81181      0.024357851    0.0013275909 
 103560000   1500.3696      2734.6519      4235.0215      299.32106      0.015752145    0.0013275909 
 103570000   1481.5649      2796.81        4278.375       306.12457      0.0080158857   0.0013275909 
 103580000   1474.3115      2757.3535      4231.665       301.80585     -0.020535834    0.0013275909 
 103590000   1468.7763      2724.965       4193.7412      298.26077      0.028984029    0.0013275909 
 103600000   1432.1648      2684.8444      4117.0093      293.86939      0.0028632256   0.0013275909 
 103610000   1440.3683      2747.9796      4188.3479      300.77984     -0.0084481435   0.0013275909 
 103620000   1528.249       2706.2057      4234.4547      296.20748      0.01390963     0.0013275909 
 103630000   1459.8422      2744.1192      4203.9613      300.3573       0.014247629    0.0013275909 
 103640000   1554.3081      2739.5154      4293.8235      299.85339     -0.018067445    0.0013275909 
 103650000   1466.1965      2722.2582      4188.4547      297.96451      0.014601456    0.0013275909 
 103660000   1431.781       2722.972       4154.753       298.04264     -0.018121349    0.0013275909 
 103670000   1486.5262      2653.7477      4140.2738      290.46569      0.013240385    0.0013275909 
 103680000   1417.9587      2783.0286      4200.9873      304.61613      0.017257466    0.0013275909 
 103690000   1447.1527      2824.7914      4271.944       309.18726      0.0073151132   0.0013275909 
 103700000   1457.6703      2711.4451      4169.1154      296.78096      0.011694407    0.0013275909 
 103710000   1464.8358      2771.7747      4236.6105      303.38433      0.0050595941   0.0013275909 
 103720000   1433.4858      2687.4966      4120.9824      294.15968     -0.010699465    0.0013275909 
 103730000   1543.0108      2746.6041      4289.6149      300.62928      0.017285955    0.0013275909 
 103740000   1465.8686      2764.6045      4230.4732      302.59952      0.027600866    0.0013275909 
 103750000   1456.8807      2735.1934      4192.0741      299.38033     -0.0032292007   0.0013275909 
 103760000   1471.4899      2805.0124      4276.5022      307.02235      0.037372914    0.0013275909 
 103770000   1452.5151      2781.7036      4234.2187      304.4711       0.011620713    0.0013275909 
 103780000   1506.5392      2728.0099      4234.5492      298.59406     -0.008358507    0.0013275909 
 103790000   1425.7714      2738.2635      4164.0348      299.71636      0.021594641    0.0013275909 
 103800000   1424.8323      2700.8039      4125.6363      295.61623      0.0072573099   0.0013275909 
 103810000   1424.5068      2702.0558      4126.5626      295.75325      0.018354229    0.0013275909 
 103820000   1559.8882      2684.047       4243.9352      293.7821       0.0026311028   0.0013275909 
 103830000   1465.8357      2780.8278      4246.6635      304.37524      0.022694662    0.0013275909 
 103840000   1506.5281      2736.9943      4243.5225      299.57745      0.028969834    0.0013275909 
 103850000   1501.6802      2754.7456      4256.4258      301.52041      0.011300967    0.0013275909 
 103860000   1489.3331      2735.3999      4224.733       299.40293      0.015620471    0.0013275909 
 103870000   1482.4919      2685.9836      4168.4755      293.99407      0.0090926362   0.0013275909 
 103880000   1486.8201      2779.9         4266.7201      304.27368     -0.00077763911  0.0013275909 
 103890000   1445.3532      2710.4867      4155.8398      296.67606      0.019700297    0.0013275909 
 103900000   1506.6377      2748.2629      4254.9007      300.81085      0.014808096    0.0013275909 
 103910000   1472.5974      2733.5073      4206.1047      299.19577     -0.0012405322   0.0013275909 
 103920000   1492.483       2690.6559      4183.1389      294.50548     -0.0022382121   0.0013275909 
 103930000   1487.999       2784.3664      4272.3654      304.76255      0.0022424061   0.0013275909 
 103940000   1450.8097      2736.3943      4187.204       299.51177      0.0021653634   0.0013275909 
 103950000   1491.5825      2703.613       4195.1955      295.9237       0.016297701    0.0013275909 
 103960000   1470.9213      2686.5386      4157.4599      294.05482      0.0026652645   0.0013275909 
 103970000   1485.4976      2765.2776      4250.7752      302.67319      0.0075697147   0.0013275909 
 103980000   1487.3705      2720.2779      4207.6484      297.74775      0.008217518    0.0013275909 
 103990000   1481.3414      2675.4746      4156.8159      292.84381      0.011617358    0.0013275909 
 104000000   1442.3327      2763.8735      4206.2062      302.51951     -0.0040180769   0.0013275909 
 104010000   1458.0461      2823.2901      4281.3363      309.02295      0.023952599    0.0013275909 
 104020000   1417.8475      2681.9838      4099.8313      293.55627     -0.017689467    0.0013275909 
 104030000   1418.4143      2784.8251      4203.2394      304.81276      0.019363358    0.0013275909 
 104040000   1431.5949      2788.3634      4219.9584      305.20005      0.021126629    0.0013275909 
 104050000   1539.393       2695.3088      4234.7018      295.01476      0.024972636    0.0013275909 
 104060000   1453.8059      2737.4889      4191.2948      299.63158      0.010712807    0.0013275909 
 104070000   1454.3494      2760.1005      4214.4499      302.10653      0.020503711    0.0013275909 
 104080000   1502.6493      2734.9748      4237.624       299.3564      -0.014503946    0.0013275909 
 104090000   1515.0382      2705.3411      4220.3793      296.11285     -0.00021422681  0.0013275909 
 104100000   1447.2808      2689.9406      4137.2215      294.42719      0.020242308    0.0013275909 
 104110000   1477.1603      2756.345       4233.5053      301.69547      0.019635382    0.0013275909 
 104120000   1511.5164      2749.1524      4260.6688      300.9082       0.012229704    0.0013275909 
 104130000   1498.6434      2675.8224      4174.4658      292.88188      0.026258314    0.0013275909 
 104140000   1485.6032      2838.4259      4324.0291      310.67963      0.016253503    0.0013275909 
 104150000   1459.6596      2682.7558      4142.4153      293.64077      0.020196631    0.0013275909 
 104160000   1486.2829      2736.9075      4223.1903      299.56794      0.030088708    0.0013275909 
 104170000   1457.9426      2796.3576      4254.3002      306.07505      0.024643216    0.0013275909 
 104180000   1472.4088      2737.1208      4209.5296      299.5913      -0.0061471067   0.0013275909 
 104190000   1480.635       2735.1636      4215.7986      299.37706      0.017028368    0.0013275909 
 104200000   1452.7647      2770.2807      4223.0455      303.22081      0.025784688    0.0013275909 
 104210000   1475.2551      2792.4727      4267.7278      305.64983      0.0088586765   0.0013275909 
 104220000   1463.1733      2764.3091      4227.4824      302.56718     -0.011822102    0.0013275909 
 104230000   1495.8842      2783.5467      4279.4309      304.67283      0.021128802    0.0013275909 
 104240000   1470.1042      2769.3464      4239.4505      303.11854      0.031521188    0.0013275909 
 104250000   1474.653       2760.1653      4234.8183      302.11362      0.0046046334   0.0013275909 
 104260000   1520.1178      2742.6194      4262.7372      300.19314      0.029777247    0.0013275909 
 104270000   1453.6192      2793.1911      4246.8103      305.72846      0.0021117524   0.0013275909 
 104280000   1475.6784      2743.7369      4219.4153      300.31545      0.029911318    0.0013275909 
 104290000   1461.8968      2659.1215      4121.0183      291.05388      0.0046088122   0.0013275909 
 104300000   1483.8664      2649.1503      4133.0167      289.96249      0.021222331    0.0013275909 
 104310000   1456.1447      2726.0316      4182.1764      298.37752     -0.025943882    0.0013275909 
 104320000   1478.2587      2737.7173      4215.9761      299.65658      0.020683424    0.0013275909 
 104330000   1450.3742      2742.2573      4192.6315      300.1535       0.037839174    0.0013275909 
 104340000   1514.53        2778.1532      4292.6832      304.08249      0.0029325291   0.0013275909 
 104350000   1422.4553      2776.3749      4198.8302      303.88784      0.010993713    0.0013275909 
 104360000   1425.054       2672.8356      4097.8895      292.55496      0.029958137    0.0013275909 
 104370000   1497.2451      2700.93        4198.1751      295.63003      0.010310607    0.0013275909 
 104380000   1481.2234      2763.8549      4245.0783      302.51747     -7.5140925e-05  0.0013275909 
 104390000   1455.5594      2690.5308      4146.0902      294.49179      0.011729358    0.0013275909 
 104400000   1474.4813      2793.5951      4268.0764      305.77268      0.011159988    0.0013275909 
 104410000   1476.6652      2741.257       4217.9222      300.04402      0.040965463    0.0013275909 
 104420000   1463.8584      2702.6128      4166.4711      295.81422     -0.0057304037   0.0013275909 
 104430000   1472.9945      2744.7209      4217.7154      300.42316      0.019685963    0.0013275909 
 104440000   1451.6014      2799.1086      4250.71        306.37616     -0.01228312     0.0013275909 
 104450000   1428.464       2669.7227      4098.1867      292.21424      0.013767652    0.0013275909 
 104460000   1448.2004      2756.3513      4204.5516      301.69616      0.008034234    0.0013275909 
 104470000   1423.7531      2728.1848      4151.9378      298.6132       0.021688281    0.0013275909 
 104480000   1497.368       2754.0639      4251.4319      301.4458       0.018343454    0.0013275909 
 104490000   1435.7017      2766.8187      4202.5203      302.84187      0.017258243    0.0013275909 
 104500000   1458.9998      2717.8874      4176.8872      297.4861      -0.0056272897   0.0013275909 
 104510000   1491.8795      2738.0164      4229.8959      299.68932      0.0013526196   0.0013275909 
 104520000   1449.5983      2775.0931      4224.6914      303.74755      0.039478726    0.0013275909 
 104530000   1431.6696      2723.9069      4155.5765      298.14496     -0.0040732004   0.0013275909 
 104540000   1481.2137      2718.0158      4199.2295      297.50016      0.031654853    0.0013275909 
 104550000   1515.5494      2762.1913      4277.7407      302.33538     -0.0067397963   0.0013275909 
 104560000   1476.4407      2749.1813      4225.6219      300.91137      0.030849116    0.0013275909 
 104570000   1439.2829      2680.8505      4120.1334      293.43223      0.0062434457   0.0013275909 
 104580000   1517.5045      2650.3983      4167.9027      290.09909      0.016369964    0.0013275909 
 104590000   1459.3193      2769.2406      4228.5599      303.10696      0.0034000664   0.0013275909 
 104600000   1494.9446      2763.3244      4258.269       302.4594       0.02553965     0.0013275909 
 104610000   1498.2262      2664.9247      4163.1509      291.68908      0.021620458    0.0013275909 
 104620000   1474.699       2794.0111      4268.7101      305.81821      0.024549175    0.0013275909 
 104630000   1502.1133      2775.1311      4277.2444      303.7517       0.01548439     0.0013275909 
 104640000   1441.4337      2738.3227      4179.7564      299.72284     -0.00092581687  0.0013275909 
 104650000   1447.9082      2696.4098      4144.318       295.13527      0.037291404    0.0013275909 
 104660000   1447.9212      2738.9637      4186.8848      299.793        0.00087087764  0.0013275909 
 104670000   1450.9049      2707.9395      4158.8443      296.39725     -0.0046314336   0.0013275909 
 104680000   1457.893       2723.1694      4181.0624      298.06425     -0.0017479671   0.0013275909 
 104690000   1575.7785      2738.1729      4313.9515      299.70645     -0.020865967    0.0013275909 
 104700000   1455.6073      2767.0069      4222.6142      302.86247      0.023587352    0.0013275909 
 104710000   1439.438       2729.4947      4168.9327      298.75658      0.00666677     0.0013275909 
 104720000   1512.3565      2660.5544      4172.9109      291.21072     -0.0067850776   0.0013275909 
 104730000   1458.2326      2778.1722      4236.4048      304.08457      0.0061808254   0.0013275909 
 104740000   1505.7703      2817.3586      4323.129       308.37371      0.047287077    0.0013275909 
 104750000   1471.1912      2724.0448      4195.236       298.16005      0.020512723    0.0013275909 
 104760000   1485.5041      2689.8532      4175.3573      294.41762     -0.0061520045   0.0013275909 
 104770000   1473.5777      2778.1952      4251.7729      304.08709     -0.0014025239   0.0013275909 
 104780000   1424.5056      2770.1322      4194.6378      303.20455      0.0031890193   0.0013275909 
 104790000   1456.2576      2697.8474      4154.1049      295.29262      0.0001017872   0.0013275909 
 104800000   1457.8268      2772.1214      4229.9482      303.42228      0.010269836    0.0013275909 
 104810000   1503.9124      2710.2497      4214.1621      296.65012      0.014951822    0.0013275909 
 104820000   1444.2139      2654.8788      4099.0927      290.5895      -0.0002126498   0.0013275909 
 104830000   1434.8342      2760.4015      4195.2357      302.13948     -0.0064771264   0.0013275909 
 104840000   1512.0456      2784.3867      4296.4324      304.76478     -0.013457153    0.0013275909 
 104850000   1497.7338      2756.8419      4254.5757      301.74986      0.021860173    0.0013275909 
 104860000   1477.2003      2762.8224      4240.0227      302.40446      0.010551894    0.0013275909 
 104870000   1480.5043      2736.6706      4217.175       299.54202      0.00082480491  0.0013275909 
 104880000   1435.6499      2701.3051      4136.955       295.67108      0.017718282    0.0013275909 
 104890000   1443.7749      2710.2036      4153.9785      296.64507      0.011648552    0.0013275909 
 104900000   1501.1149      2684.2064      4185.3213      293.79955     -0.0022581569   0.0013275909 
 104910000   1476.735       2811.276       4288.011       307.70794      0.029145325    0.0013275909 
 104920000   1452.3791      2710.8195      4163.1986      296.71249      0.011940069    0.0013275909 
 104930000   1438.5342      2735.634       4174.1683      299.42856      0.009678346    0.0013275909 
 104940000   1484.9202      2830.7897      4315.71        309.84382      0.005529091    0.0013275909 
 104950000   1475.9786      2728.0799      4204.0585      298.60172      0.027660972    0.0013275909 
 104960000   1481.9727      2796.9329      4278.9057      306.13802     -0.011432411    0.0013275909 
 104970000   1525.6245      2802.6669      4328.2914      306.76563     -0.0012057254   0.0013275909 
 104980000   1464.3065      2734.1136      4198.4201      299.26213      0.0055131307   0.0013275909 
 104990000   1456.8669      2766.0093      4222.8762      302.75327      0.0055728604   0.0013275909 
 105000000   1458.89        2709.4793      4168.3694      296.5658       0.017649627    0.0013275909 
Loop time of 5963.92 on 32 procs for 100000000 steps with 3066 atoms

Performance: 14487.110 ns/day, 0.002 hours/ns, 16767.488 timesteps/s, 51.409 Matom-step/s
99.4% CPU use with 32 MPI tasks x 1 OpenMP threads

MPI task timing breakdown:
Section |  min time  |  avg time  |  max time  |%varavg| %total
---------------------------------------------------------------
Pair    | 785.23     | 961.41     | 3605.9     |1549.2 | 16.12
Bond    | 245.57     | 333.31     | 521.46     | 317.7 |  5.59
Neigh   | 17.764     | 18.125     | 18.571     |   5.8 |  0.30
Comm    | 1464.6     | 4253.1     | 4696.8     | 807.7 | 71.31
Output  | 1.2268     | 1.5082     | 3.3528     |  28.6 |  0.03
Modify  | 153.45     | 206.61     | 299.12     | 201.6 |  3.46
Other   |            | 189.8      |            |       |  3.18

Nlocal:        95.8125 ave         173 max          44 min
Histogram: 2 4 5 6 5 5 2 2 0 1
Nghost:        79.3438 ave         143 max          40 min
Histogram: 3 7 3 4 4 6 1 2 0 2
Neighs:        169.156 ave         670 max          79 min
Histogram: 13 14 3 1 0 0 0 0 0 1

Total # of neighbors = 5413
Ave neighs/atom = 1.7654925
Ave special neighs/atom = 4.8219178
Neighbor list builds = 249888
Dangerous builds = 0

write_data outputs/${tag}_final.data
write_data outputs/7LYJ_aso_n300_final.data
System init for write_data ...
Generated 0 of 6 mixed pair_coeff terms from geometric mixing rule
Total wall time: 1:43:42
