
# --- Force field (RNA) -------------------------------------------
bond_style  harmonic
bond_coeff  1 7.5 5.9

angle_style harmonic
angle_coeff 1 5.0 150.0

pair_style  hybrid/overlay lj/cut 10.0 base/rna 18.0
pair_modify shift yes

pair_coeff * * lj/cut 2.0 8.9089871814

pair_coeff 1 1 base/rna 0.00000 3.0 13.8 1.5 0.5 1.8326 0.9425 1.8326 1.1345
pair_coeff 1 2 base/rna 0.00000 3.0 13.8 1.5 0.5 1.8326 0.9425 1.8326 1.1345
pair_coeff 1 3 base/rna 0.00000 3.0 13.8 1.5 0.5 1.8326 0.9425 1.8326 1.1345
pair_coeff 1 4 base/rna 3.33333 3.0 13.8 1.5 0.5 1.8326 0.9425 1.8326 1.1345
pair_coeff 2 2 base/rna 0.00000 3.0 13.8 1.5 0.5 1.8326 0.9425 1.8326 1.1345
pair_coeff 2 3 base/rna 5.00000 3.0 13.8 1.5 0.5 1.8326 0.9425 1.8326 1.1345
pair_coeff 2 4 base/rna 0.00000 3.0 13.8 1.5 0.5 1.8326 0.9425 1.8326 1.1345
pair_coeff 3 3 base/rna 0.00000 3.0 13.8 1.5 0.5 1.8326 0.9425 1.8326 1.1345
pair_coeff 3 4 base/rna 3.33333 3.0 13.8 1.5 0.5 1.8326 0.9425 1.8326 1.1345
pair_coeff 4 4 base/rna 0.00000 3.0 13.8 1.5 0.5 1.8326 0.9425 1.8326 1.1345

# --- ASO force field note ----------------------------------------
# Unmodified ASO: no additional pair_coeff needed.
# The base/rna scheme covers all A/C/G/U × A/C/G/U pairs for both molecules.
# If chemically modified ASO is used later, add new atom types here.

# --- Minimization ------------------------------------------------
minimize 1.0e-4 1.0e-6 1000 10000

CITE-CITE-CITE-CITE-CITE-CITE-CITE-CITE-CITE-CITE-CITE-CITE-CITE

Your simulation uses code contributions which should be cited:

- Type Label Framework: https://doi.org/10.1021/acs.jpcb.3c08419

@Article{Gissinger24,
 author = {Jacob R. Gissinger, Ilia Nikiforov, Yaser Afshar, Brendon Waters, Moon-ki Choi, Daniel S. Karls, Alexander Stukowski, Wonpil Im, Hendrik Heinz, Axel Kohlmeyer, and Ellad B. Tadmor},
 title = {Type Label Framework for Bonded Force Fields in LAMMPS},
 journal = {J. Phys. Chem. B},
 year =    2024,
 volume =  128,
 number =  13,
 pages =   {3282–-3297}
}

CITE-CITE-CITE-CITE-CITE-CITE-CITE-CITE-CITE-CITE-CITE-CITE-CITE

Switching to 'neigh_modify every 1 delay 0 check yes' setting during minimization
Generated 0 of 6 mixed pair_coeff terms from geometric mixing rule
Neighbor list info ...
  update: every = 1 steps, delay = 0 steps, check = yes
  max neighbors/atom: 2000, page size: 100000
  master list distance cutoff = 33
  ghost atom cutoff = 33
  binsize = 16.5, bins = 10 10 10
  2 neighbor lists, perpetual/occasional/extra = 2 0 0
  (1) pair lj/cut, perpetual, trim from (2)
      attributes: half, newton on, cut 25
      pair build: trim
      stencil: none
      bin: none
  (2) pair base/rna, perpetual
      attributes: half, newton on
      pair build: half/bin/newton
      stencil: half/bin/3d
      bin: standard
Per MPI rank memory allocation (min/avg/max) = 8.403 | 8.403 | 8.403 Mbytes
   Step          Temp          E_pair         E_mol          TotEng         Press     
         0   0              2323.8455      62.896544      2386.7421      175.57376    
       119   0             -113.61682      8.0881943     -105.52862     -0.0070420022 
Loop time of 0.00996257 on 4 procs for 119 steps with 76 atoms

94.7% CPU use with 4 MPI tasks x 1 OpenMP threads

Minimization stats:
  Stopping criterion = energy tolerance
  Energy initial, next-to-last, final = 
      2386.74205296367  -105.519109515063  -105.528624772665
  Force two-norm initial, final = 5888.4578 0.67989552
  Force max component initial, final = 2667.2637 0.17067354
  Final line search alpha, max atom move = 0.19519094 0.033313929
  Iterations, force evaluations = 119 183

MPI task timing breakdown:
Section |  min time  |  avg time  |  max time  |%varavg| %total
---------------------------------------------------------------
Pair    | 0.0045661  | 0.0054841  | 0.0060341  |   0.7 | 55.05
Bond    | 0.00022025 | 0.00033769 | 0.00054809 |   0.0 |  3.39
Neigh   | 0          | 0          | 0          |   0.0 |  0.00
Comm    | 0.0024131  | 0.0029736  | 0.0040003  |   1.1 | 29.85
Output  | 0          | 0          | 0          |   0.0 |  0.00
Modify  | 0          | 0          | 0          |   0.0 |  0.00
Other   |            | 0.001167   |            |       | 11.72

Nlocal:             19 ave          27 max          16 min
Histogram: 3 0 0 0 0 0 0 0 0 1
Nghost:             62 ave          65 max          54 min
Histogram: 1 0 0 0 0 0 0 0 0 3
Neighs:          242.5 ave         280 max         191 min
Histogram: 1 0 0 0 0 1 0 1 0 1

Total # of neighbors = 970
Ave neighs/atom = 12.763158
Ave special neighs/atom = 5.6842105
Neighbor list builds = 0
Dangerous builds = 0
reset_timestep 0

# --- Output setup ------------------------------------------------
dump d1 all custom 50000 outputs/${tag}.lammpstrj id mol type q xu yu zu
dump d1 all custom 50000 outputs/7LYJ_aso_bind.lammpstrj id mol type q xu yu zu
dump_modify d1 sort id

thermo_style custom step pe ke etotal temp press density
thermo       10000
thermo_modify flush yes

variable vpe equal pe
variable vke equal ke
variable vT  equal temp
variable vE  equal etotal
variable vRg equal gyration(all)

fix favg all ave/time 10000 10 100000 v_vpe v_vke v_vT v_vE v_vRg     file outputs/thermo_${tag}_averaged.dat
fix favg all ave/time 10000 10 100000 v_vpe v_vke v_vT v_vE v_vRg     file outputs/thermo_7LYJ_aso_bind_averaged.dat

# --- NVT equilibration (50 ns) -----------------------------------
velocity all create ${T_target} 98765 rot yes dist gaussian
velocity all create 300 98765 rot yes dist gaussian

fix fxlang all langevin ${T_target} ${T_target} 1000.0 43210
fix fxlang all langevin 300 ${T_target} 1000.0 43210
fix fxlang all langevin 300 300 1000.0 43210
fix fxnve  all nve
fix recenter all momentum 1000 linear 1 1 1

run 5000000
Generated 0 of 6 mixed pair_coeff terms from geometric mixing rule
Per MPI rank memory allocation (min/avg/max) = 7.294 | 7.294 | 7.294 Mbytes
   Step         PotEng         KinEng         TotEng          Temp          Press         Density    
         0  -105.52862      67.068226     -38.460399      300            0.74145441     0.0099803416 
     10000  -54.212378      76.688083      22.475705      343.03017      0.034604274    0.0099803416 
     20000  -50.195397      57.056673      6.8612765      255.21775      0.16340443     0.0099803416 
     30000  -31.656042      61.099724      29.443682      273.30255      0.46389431     0.0099803416 
     40000  -44.298263      64.734691      20.436429      289.56197      0.81195858     0.0099803416 
     50000  -26.695502      63.599813      36.904311      284.48559     -1.3195506      0.0099803416 
     60000  -29.880597      71.488419      41.607822      319.77178     -0.89563075     0.0099803416 
     70000  -21.448039      54.244226      32.796187      242.63752      0.87408981     0.0099803416 
     80000  -27.408768      60.085565      32.676797      268.76616      1.9148727      0.0099803416 
     90000  -31.535225      77.422603      45.887378      346.31572     -0.14818249     0.0099803416 
    100000  -23.493658      83.259091      59.765433      372.42266     -0.3173942      0.0099803416 
    110000  -30.254175      65.384431      35.130256      292.46829      0.84599988     0.0099803416 
    120000  -35.450449      62.635363      27.184914      280.17155      1.5992096      0.0099803416 
    130000  -35.439301      62.527769      27.088468      279.69028      0.60692911     0.0099803416 
    140000  -36.730504      61.902332      25.171828      276.89266      0.81305416     0.0099803416 
    150000  -28.542747      74.463123      45.920376      333.0778       1.0312917      0.0099803416 
    160000  -18.959391      70.403738      51.444347      314.91993     -0.32097069     0.0099803416 
    170000  -17.960978      66.964185      49.003207      299.53462      1.1245533      0.0099803416 
    180000  -4.9273115      64.013959      59.086648      286.33809      0.50212301     0.0099803416 
    190000  -17.52524       58.539689      41.014449      261.85137      2.536452       0.0099803416 
    200000  -22.278096      56.606356      34.32826       253.20346      0.77645871     0.0099803416 
    210000  -25.79031       49.232868      23.442558      220.22142      0.32342498     0.0099803416 
    220000  -30.470175      66.341879      35.871704      296.75101     -2.8651904      0.0099803416 
    230000  -14.025377      62.566064      48.540687      279.86157     -1.0286093      0.0099803416 
    240000  -17.001196      73.991183      56.989987      330.96678      0.62446433     0.0099803416 
    250000  -17.168951      76.841832      59.672881      343.7179      -0.27661395     0.0099803416 
    260000  -7.8378028      69.069378      61.231575      308.95127     -0.34926789     0.0099803416 
    270000  -5.5846558      64.610571      59.025915      289.00677     -1.3529451      0.0099803416 
    280000  -15.777049      74.777882      59.000833      334.48573      0.23067994     0.0099803416 
    290000  -2.5454992      70.439266      67.893767      315.07885      1.2739552      0.0099803416 
    300000  -0.72061165     73.613991      72.893379      329.27958      1.130467       0.0099803416 
    310000  -16.233124      62.049864      45.81674       277.55258     -1.1452628      0.0099803416 
    320000  -24.636058      67.967841      43.331783      304.02403      0.77430665     0.0099803416 
    330000  -25.65          65.016372      39.366373      290.82194     -0.0042911774   0.0099803416 
    340000  -36.54325       72.738747      36.195498      325.36457      2.0477538      0.0099803416 
    350000  -38.01704       60.954324      22.937284      272.65217      1.2008613      0.0099803416 
    360000  -31.122222      72.406522      41.2843        323.8785      -0.12795902     0.0099803416 
    370000  -33.37819       71.969348      38.591158      321.923        1.0465549      0.0099803416 
    380000  -33.647292      55.583036      21.935744      248.62609      1.0216823      0.0099803416 
    390000  -45.048003      67.428093      22.38009       301.6097      -1.1618204      0.0099803416 
    400000  -25.0653        72.941116      47.875816      326.26977      1.9733373      0.0099803416 
    410000  -20.627223      61.0974        40.470177      273.29215     -1.5017026      0.0099803416 
    420000  -23.594721      71.156535      47.561814      318.28724      1.4781291      0.0099803416 
    430000  -32.372409      75.352176      42.979766      337.05458      1.6909281      0.0099803416 
    440000  -35.284982      70.098612      34.81363       313.55509      0.078048029    0.0099803416 
    450000  -33.139145      61.214375      28.07523       273.81539      0.39629637     0.0099803416 
    460000  -11.016118      66.523752      55.507634      297.56454     -1.5258069      0.0099803416 
    470000  -23.894352      57.564861      33.670509      257.49091      0.41805579     0.0099803416 
    480000  -24.51857       64.48459       39.96602       288.44325      0.85357163     0.0099803416 
    490000  -25.247875      70.707286      45.459411      316.27772      0.91695836     0.0099803416 
    500000  -23.004719      53.026169      30.02145       237.18908     -2.0349961      0.0099803416 
    510000  -23.453773      60.398493      36.94472       270.1659       1.046151       0.0099803416 
    520000  -16.626222      58.754216      42.127994      262.81096     -0.94752967     0.0099803416 
    530000  -22.261699      73.115263      50.853563      327.04874      0.27912882     0.0099803416 
    540000  -31.0709        69.39713       38.326231      310.41732     -2.3859805      0.0099803416 
    550000  -18.51164       66.029438      47.517798      295.35344     -2.289687       0.0099803416 
    560000  -36.931522      64.588418      27.656896      288.90768      0.058054065    0.0099803416 
    570000  -17.072871      62.951199      45.878328      281.5843       3.2277492      0.0099803416 
    580000  -27.752408      60.056801      32.304393      268.6375       0.76849201     0.0099803416 
    590000  -6.5492438      60.505748      53.956504      270.64566     -0.20051168     0.0099803416 
    600000  -13.539422      64.261275      50.721853      287.44435      1.4194595      0.0099803416 
    610000  -19.093244      63.991789      44.898545      286.23892     -0.15389567     0.0099803416 
    620000  -9.1791218      63.508873      54.329751      284.07881     -3.4489839      0.0099803416 
    630000  -14.514062      75.526197      61.012135      337.83299     -2.1752094      0.0099803416 
    640000  -21.708997      66.417704      44.708708      297.09018      1.1283183      0.0099803416 
    650000  -34.476147      67.298572      32.822425      301.03035      1.7791329      0.0099803416 
    660000  -16.453499      61.689392      45.235893      275.94017      1.2792059      0.0099803416 
    670000  -12.832643      80.441024      67.608381      359.81729     -0.39670891     0.0099803416 
    680000  -24.242767      66.616379      42.373613      297.97886     -1.5939803      0.0099803416 
    690000  -42.089874      69.478124      27.38825       310.77961     -0.99198037     0.0099803416 
    700000  -32.501914      61.94412       29.442206      277.07958     -1.1992589      0.0099803416 
    710000  -25.977407      74.351965      48.374559      332.58058      0.72946318     0.0099803416 
    720000  -27.436475      72.365654      44.92918       323.6957      -1.0284915      0.0099803416 
    730000  -21.581623      68.068137      46.486515      304.47266     -0.47059449     0.0099803416 
    740000  -11.807993      79.689071      67.881078      356.45376      0.51064926     0.0099803416 
    750000  -13.661331      84.825828      71.164497      379.43077     -1.9976875      0.0099803416 
    760000  -11.933056      76.977997      65.044941      344.32697      2.4185263      0.0099803416 
    770000  -21.420745      64.117926      42.697181      286.80314     -0.18472055     0.0099803416 
    780000  -6.3263802      67.255343      60.928962      300.83698      0.19737342     0.0099803416 
    790000  -3.58571        62.741345      59.155635      280.64561      0.82488542     0.0099803416 
    800000  -23.305228      80.180754      56.875526      358.65309      2.4709593      0.0099803416 
    810000  -5.5019585      78.177103      72.675145      349.69064      0.68190592     0.0099803416 
    820000  -8.1901582      67.640884      59.450725      302.56153     -1.2366977      0.0099803416 
    830000  -17.826283      64.604057      46.777774      288.97763      0.082821039    0.0099803416 
    840000   1.5926963      81.864069      83.456765      366.18265      2.8625529      0.0099803416 
    850000   2.5241948      68.21361       70.737805      305.12337     -2.4342848      0.0099803416 
    860000   5.9006473      69.586454      75.487101      311.26418      0.92522468     0.0099803416 
    870000  -3.4920303      62.218639      58.726608      278.30752      0.90955283     0.0099803416 
    880000  -6.5392435      58.316832      51.777588      260.85451      0.08182365     0.0099803416 
    890000  -6.6156159      59.929644      53.314028      268.06872     -0.22689873     0.0099803416 
    900000  -11.22333       66.258626      55.035296      296.37861     -0.22125263     0.0099803416 
    910000  -9.5945281      71.503646      61.909118      319.83989      0.090191998    0.0099803416 
    920000  -2.81318        73.025179      70.211999      326.64579     -2.2919087      0.0099803416 
    930000   4.4084356      57.453668      61.862103      256.99353     -0.10629918     0.0099803416 
    940000  -6.627453       68.837477      62.210024      307.91396     -0.33082741     0.0099803416 
    950000   21.499533      70.545833      92.045366      315.55554      2.8661374      0.0099803416 
    960000   2.4640135      61.36083       63.824843      274.47049      1.2323046      0.0099803416 
    970000   15.04954       73.629124      88.678663      329.34727      0.3375399      0.0099803416 
    980000  -5.6649561      61.918656      56.2537        276.96568     -1.6539856      0.0099803416 
    990000  -7.1850868      72.785101      65.600014      325.57191     -0.979754       0.0099803416 
   1000000  -4.2598932      71.287085      67.027191      318.87119     -2.153961       0.0099803416 
   1010000  -18.328057      67.513585      49.185528      301.99212     -1.2986594      0.0099803416 
   1020000   4.5968831      66.215367      70.812251      296.18511      1.8407376      0.0099803416 
   1030000  -8.4448491      73.844479      65.399629      330.31056      2.5363845      0.0099803416 
   1040000   0.48339239     73.403608      73.887001      328.33853      1.8488347      0.0099803416 
   1050000   1.2134075      54.219568      55.432976      242.52722     -0.20603177     0.0099803416 
   1060000  -5.6566102      84.785686      79.129076      379.25121     -0.053347558    0.0099803416 
   1070000  -6.2987158      66.906355      60.607639      299.27594     -1.6298324      0.0099803416 
   1080000  -5.8293933      65.261352      59.431958      291.91775      0.0002226013   0.0099803416 
   1090000  -7.0984003      77.193627      70.095227      345.2915       0.67040179     0.0099803416 
   1100000  -4.9937077      61.690123      56.696415      275.94344      0.64118642     0.0099803416 
   1110000  -20.710654      65.223092      44.512438      291.74661      1.441193       0.0099803416 
   1120000  -6.4402328      67.33364       60.893407      301.18721      1.1733798      0.0099803416 
   1130000  -15.091114      66.43723       51.346116      297.17752     -0.45191704     0.0099803416 
   1140000  -16.945482      75.387191      58.441709      337.21121      0.24143383     0.0099803416 
   1150000  -10.508368      50.919079      40.41071       227.76394     -0.10397151     0.0099803416 
   1160000  -10.379171      60.714719      50.335548      271.5804       1.2257296      0.0099803416 
   1170000  -0.93405465     67.912671      66.978616      303.77725      0.46458954     0.0099803416 
   1180000  -10.377509      66.498217      56.120708      297.45032      1.3748512      0.0099803416 
   1190000  -17.935559      56.581497      38.645938      253.09226     -0.59353744     0.0099803416 
   1200000  -8.9053115      59.532569      50.627257      266.29258      1.4258642      0.0099803416 
   1210000  -26.719769      64.513785      37.794016      288.57384      1.4062503      0.0099803416 
   1220000  -19.845794      71.241285      51.395491      318.66633      0.80146549     0.0099803416 
   1230000  -20.269469      77.650553      57.381083      347.33535      4.0442573      0.0099803416 
   1240000  -6.8397388      61.832886      54.993147      276.58202      0.76087125     0.0099803416 
   1250000  -21.197254      78.644362      57.447108      351.78072     -1.1994361      0.0099803416 
   1260000  -1.3098138      61.766454      60.45664       276.28487      2.2716542      0.0099803416 
   1270000  -4.284703       63.88618       59.601477      285.76652     -0.31094489     0.0099803416 
   1280000  -27.832941      67.518224      39.685283      302.01287     -1.0241694      0.0099803416 
   1290000  -5.0779604      68.52795       63.44999       306.52943      1.0607099      0.0099803416 
   1300000  -8.1391694      79.412903      71.273734      355.21845      0.32914718     0.0099803416 
   1310000  -6.6003898      75.809302      69.208912      339.09933     -0.85028119     0.0099803416 
   1320000  -5.7880341      65.072165      59.284131      291.0715      -1.2198939      0.0099803416 
   1330000  -19.383779      65.330375      45.946595      292.22649     -1.9139839      0.0099803416 
   1340000  -4.9438255      78.744902      73.801077      352.23044     -1.1775065      0.0099803416 
   1350000  -8.0189198      73.14335       65.12443       327.17437     -1.2876704      0.0099803416 
   1360000  -3.1562599      67.399793      64.243533      301.48312      1.2106459      0.0099803416 
   1370000  -8.6001891      68.823111      60.222922      307.8497      -0.91585068     0.0099803416 
   1380000  -23.269881      66.205253      42.935372      296.13987      0.92799717     0.0099803416 
   1390000  -13.341877      62.191998      48.850121      278.18835      0.55667144     0.0099803416 
   1400000  -20.777727      65.918729      45.141002      294.85824      0.42454195     0.0099803416 
   1410000   3.3167438      71.410497      74.72724       319.42322     -0.72987108     0.0099803416 
   1420000  -15.248813      57.414821      42.166008      256.81977     -0.81305022     0.0099803416 
   1430000  -10.487292      61.333844      50.846553      274.34978     -0.13229051     0.0099803416 
   1440000  -13.318259      64.557523      51.239264      288.76948      1.8309186      0.0099803416 
   1450000  -5.7671382      70.233869      64.466731      314.1601       0.5357253      0.0099803416 
   1460000  -14.66385       64.945324      50.281474      290.50414     -0.11957424     0.0099803416 
   1470000  -13.405754      71.647307      58.241553      320.48249      0.030448141    0.0099803416 
   1480000  -8.6300728      61.797444      53.167371      276.42349      0.94491766     0.0099803416 
   1490000   0.0069640722   70.258972      70.265936      314.27239      1.0490872      0.0099803416 
   1500000  -0.18461425     76.612166      76.427552      342.69059      0.52528834     0.0099803416 
   1510000  -29.921986      71.618308      41.696321      320.35277     -1.0674233      0.0099803416 
   1520000  -9.6555722      66.717952      57.06238       298.43321     -0.8187003      0.0099803416 
   1530000  -30.470923      55.390323      24.9194        247.76408     -1.3660224      0.0099803416 
   1540000  -23.834624      66.60137       42.766746      297.91173      1.4367167      0.0099803416 
   1550000  -9.4580882      65.788138      56.330049      294.27409     -1.4547376      0.0099803416 
   1560000  -16.125415      65.892805      49.76739       294.74227     -0.072312102    0.0099803416 
   1570000  -12.482142      68.262192      55.780051      305.34068     -2.0884201      0.0099803416 
   1580000  -7.3284749      74.268652      66.940178      332.20792     -0.15121356     0.0099803416 
   1590000  -8.0298695      65.031441      57.001571      290.88934     -0.69027544     0.0099803416 
   1600000  -15.569415      66.497473      50.928057      297.44699     -1.435855       0.0099803416 
   1610000  -25.547238      59.761164      34.213927      267.3151       1.6605534      0.0099803416 
   1620000  -32.543822      64.961003      32.41718       290.57427     -1.3216153      0.0099803416 
   1630000  -13.780685      55.772302      41.991617      249.47269     -2.1749906      0.0099803416 
   1640000  -15.587287      60.825305      45.238018      272.07506      0.8994518      0.0099803416 
   1650000  -10.708534      77.205767      66.497232      345.3458      -1.104795       0.0099803416 
   1660000   1.2121218      64.546014      65.758136      288.718       -1.1297686      0.0099803416 
   1670000  -12.66693       68.435021      55.768091      306.11375      1.1672759      0.0099803416 
   1680000  -14.818524      70.807621      55.989097      316.72653     -0.90270239     0.0099803416 
   1690000  -11.741068      68.944602      57.203534      308.39314      1.5871374      0.0099803416 
   1700000  -24.303974      60.273525      35.96955       269.60691      1.256226       0.0099803416 
   1710000  -19.246842      62.425375      43.178532      279.23226     -0.92474145     0.0099803416 
   1720000  -13.463071      58.855805      45.392734      263.26537     -1.0577597      0.0099803416 
   1730000  -21.967536      68.825714      46.858178      307.86134     -2.5382751      0.0099803416 
   1740000  -13.574553      63.512551      49.937997      284.09526     -1.6566968      0.0099803416 
   1750000  -24.594459      53.411271      28.816811      238.91166     -1.3534866      0.0099803416 
   1760000  -26.8291        75.817757      48.988656      339.13715      1.408799       0.0099803416 
   1770000  -17.009287      64.170889      47.161602      287.04004      0.21156181     0.0099803416 
   1780000  -22.833031      62.883366      40.050335      281.28088     -0.38193831     0.0099803416 
   1790000  -9.8970165      59.178572      49.281555      264.70913      0.25417428     0.0099803416 
   1800000  -24.761633      66.988391      42.226757      299.64289      1.3268566      0.0099803416 
   1810000  -34.683936      78.242534      43.558598      349.98331      1.3616952      0.0099803416 
   1820000  -32.264883      57.258994      24.994111      256.12274     -1.0864022      0.0099803416 
   1830000  -13.223094      60.243847      47.020753      269.47416      0.14640157     0.0099803416 
   1840000  -27.244137      74.223526      46.979389      332.00606      0.58413879     0.0099803416 
   1850000  -22.773257      54.495418      31.722162      243.76111      1.1599185      0.0099803416 
   1860000  -17.029669      72.070666      55.040997      322.3762       1.6619701      0.0099803416 
   1870000  -31.627765      62.983207      31.355442      281.72747      2.2080031      0.0099803416 
   1880000  -20.840642      57.575793      36.735151      257.5398      -0.96087007     0.0099803416 
   1890000  -22.943806      78.464803      55.520997      350.97754      0.84474659     0.0099803416 
   1900000  -20.541062      54.540418      33.999355      243.9624       0.15851634     0.0099803416 
   1910000  -19.523887      76.956512      57.432625      344.23086      0.90138628     0.0099803416 
   1920000  -22.421017      67.850768      45.429751      303.50036      0.32204552     0.0099803416 
   1930000  -20.091509      58.119893      38.028384      259.9736      -1.1429179      0.0099803416 
   1940000  -24.387661      56.453278      32.065617      252.51873      1.860244       0.0099803416 
   1950000  -23.737554      76.656591      52.919037      342.8893      -0.77464394     0.0099803416 
   1960000  -28.443319      89.416305      60.972986      399.96423      1.2209324      0.0099803416 
   1970000  -16.806438      80.574362      63.767924      360.41372     -0.38217617     0.0099803416 
   1980000  -33.000064      63.932364      30.9323        285.97311     -0.23570512     0.0099803416 
   1990000  -35.375944      58.53579       23.159846      261.83393     -2.465416       0.0099803416 
   2000000  -21.374604      72.883358      51.508753      326.01142      1.2441458      0.0099803416 
   2010000  -28.894539      67.650336      38.755797      302.60381      0.48344611     0.0099803416 
   2020000  -14.072209      60.733852      46.661642      271.66598     -0.85398661     0.0099803416 
   2030000  -24.859283      59.873663      35.01438       267.81831      0.46935129     0.0099803416 
   2040000  -24.442777      64.840744      40.397967      290.03635      0.5107473      0.0099803416 
   2050000  -18.807645      55.721362      36.913716      249.24483      1.0154692      0.0099803416 
   2060000  -26.227039      71.452045      45.225006      319.60907      0.90881147     0.0099803416 
   2070000  -16.173136      72.254995      56.081859      323.20071     -1.4920831      0.0099803416 
   2080000  -18.340133      67.588026      49.247893      302.3251       0.36781958     0.0099803416 
   2090000  -21.43174       70.210415      48.778675      314.05519      0.36725468     0.0099803416 
   2100000  -7.5198828      66.521017      59.001135      297.5523      -2.6828274      0.0099803416 
   2110000  -37.365128      67.842912      30.477783      303.46521      0.061167212    0.0099803416 
   2120000  -25.60502       68.740907      43.135887      307.482       -0.631393       0.0099803416 
   2130000  -21.034213      61.028672      39.994458      272.98473      1.8725388      0.0099803416 
   2140000  -24.312649      68.851913      44.539264      307.97853      1.9451069      0.0099803416 
   2150000  -20.724304      70.77562       50.051317      316.58339      0.34873735     0.0099803416 
   2160000  -21.244722      67.343414      46.098692      301.23093     -1.6475709      0.0099803416 
   2170000  -25.508193      65.190474      39.68228       291.60071     -0.013510391    0.0099803416 
   2180000  -27.211454      69.07679       41.865337      308.98442     -0.0966564      0.0099803416 
   2190000  -31.812621      60.348878      28.536256      269.94397      0.26952695     0.0099803416 
   2200000  -30.61678       87.415175      56.798395      391.01306      0.5526647      0.0099803416 
   2210000  -21.91853       66.380777      44.462247      296.925        0.14053217     0.0099803416 
   2220000  -30.167589      70.547785      40.380196      315.56427      0.88844357     0.0099803416 
   2230000  -28.510218      71.880658      43.37044       321.52628      0.057302682    0.0099803416 
   2240000  -18.414908      70.763259      52.348351      316.52809      3.1259427      0.0099803416 
   2250000  -34.770022      73.408773      38.638752      328.36163     -0.52392743     0.0099803416 
   2260000  -24.03949       72.34576       48.30627       323.60671      0.093774357    0.0099803416 
   2270000  -33.311765      66.278785      32.967021      296.46879      0.67834753     0.0099803416 
   2280000  -27.393857      65.457744      38.063886      292.79622      0.0066317703   0.0099803416 
   2290000  -15.708865      64.88687       49.178005      290.24267      0.18241557     0.0099803416 
   2300000  -19.738103      63.850792      44.112688      285.60823     -0.83769342     0.0099803416 
   2310000  -26.812228      68.733749      41.921521      307.44998      0.85323658     0.0099803416 
   2320000  -22.853323      72.011749      49.158426      322.11266     -0.50070757     0.0099803416 
   2330000  -30.368227      65.407587      35.03936       292.57187     -0.22558286     0.0099803416 
   2340000  -18.728573      70.184217      51.455644      313.938        1.1057455      0.0099803416 
   2350000  -21.385847      70.513402      49.127555      315.41047     -0.75862621     0.0099803416 
   2360000  -12.812962      68.396267      55.583305      305.9404       2.0756735      0.0099803416 
   2370000  -27.173336      60.982787      33.809451      272.77948      1.0724884      0.0099803416 
   2380000  -13.847268      75.160157      61.312888      336.19567      1.8253083      0.0099803416 
   2390000  -26.715736      70.248829      43.533092      314.22702     -2.804067       0.0099803416 
   2400000  -21.526599      67.849507      46.322908      303.49471     -0.037700902    0.0099803416 
   2410000  -29.227362      58.914453      29.687091      263.52771      2.1086838      0.0099803416 
   2420000  -26.020858      68.870397      42.84954       308.06121      2.3630229      0.0099803416 
   2430000  -14.942955      67.097964      52.155009      300.13302     -1.1072467      0.0099803416 
   2440000  -25.964419      64.311809      38.34739       287.67039      1.3950533      0.0099803416 
   2450000  -25.138593      66.815212      41.67662       298.86825     -2.2457903      0.0099803416 
   2460000  -25.024841      58.244237      33.219396      260.52979     -2.8766398      0.0099803416 
   2470000  -31.208494      55.044567      23.836072      246.21749     -1.4202291      0.0099803416 
   2480000  -34.691777      75.125922      40.434145      336.04253      0.68145559     0.0099803416 
   2490000  -39.206103      69.652606      30.446503      311.56008      0.21398602     0.0099803416 
   2500000  -7.6714725      69.049377      61.377904      308.8618      -0.90493962     0.0099803416 
   2510000  -30.547073      70.214922      39.667849      314.07535     -0.51778929     0.0099803416 
   2520000  -13.962332      69.848949      55.886616      312.43833     -1.3803722      0.0099803416 
   2530000  -13.753687      74.102144      60.348457      331.46311      3.3268678      0.0099803416 
   2540000  -25.394281      75.551443      50.157163      337.94591     -0.70167043     0.0099803416 
   2550000  -14.380323      70.423906      56.043583      315.01015     -0.33060088     0.0099803416 
   2560000  -14.58831       71.715129      57.126819      320.78586      1.6800322      0.0099803416 
   2570000  -20.003829      62.490879      42.487049      279.52526     -1.2897131      0.0099803416 
   2580000  -7.6005731      72.506386      64.905813      324.3252       0.090121361    0.0099803416 
   2590000  -34.423449      64.314888      29.891439      287.68416     -0.9077121      0.0099803416 
   2600000  -25.646155      55.053346      29.407191      246.25676     -2.2254261      0.0099803416 
   2610000  -1.7980604      63.786668      61.988608      285.3214       1.4476501      0.0099803416 
   2620000  -14.233903      69.105372      54.871469      309.11227     -0.78324081     0.0099803416 
   2630000  -19.217618      68.237078      49.01946       305.22834     -0.67343078     0.0099803416 
   2640000  -24.89246       71.078766      46.186306      317.93937     -0.96172509     0.0099803416 
   2650000  -18.207074      66.943043      48.735969      299.44005      1.3337744      0.0099803416 
   2660000  -24.222204      67.791488      43.569284      303.23519      0.14684786     0.0099803416 
   2670000  -1.3663989      68.426621      67.060222      306.07618      0.8997173      0.0099803416 
   2680000  -8.4514691      67.039733      58.588264      299.87255      0.6163592      0.0099803416 
   2690000   8.4255211      70.816449      79.24197       316.76601     -1.0419726      0.0099803416 
   2700000  -17.311526      69.902121      52.590595      312.67617      1.0243869      0.0099803416 
   2710000  -19.279251      74.025211      54.74596       331.11899      1.0569543      0.0099803416 
   2720000  -21.772529      65.85013       44.077601      294.55139     -0.5750958      0.0099803416 
   2730000  -14.402352      49.385335      34.982984      220.90342     -0.71665819     0.0099803416 
   2740000  -23.000893      56.808164      33.807272      254.10616      0.13056554     0.0099803416 
   2750000  -5.1662625      73.522904      68.356642      328.87214     -0.89042571     0.0099803416 
   2760000  -20.265279      81.097257      60.831978      362.75265      1.7534896      0.0099803416 
   2770000  -18.356021      56.669848      38.313827      253.48746     -0.35621792     0.0099803416 
   2780000  -34.347631      77.909603      43.561972      348.4941      -0.68752393     0.0099803416 
   2790000  -29.776265      63.226637      33.450372      282.81635      0.14887804     0.0099803416 
   2800000  -21.917144      70.263265      48.346122      314.29159     -0.91929437     0.0099803416 
   2810000  -21.650313      68.267407      46.617095      305.364        1.2093247      0.0099803416 
   2820000  -32.631562      64.227631      31.596069      287.29386      1.0905233      0.0099803416 
   2830000  -17.383218      73.021191      55.637973      326.62795      2.3884721      0.0099803416 
   2840000  -30.741605      73.705207      42.963602      329.68759     -0.84560077     0.0099803416 
   2850000  -18.513622      61.689111      43.175489      275.93891      1.9807754      0.0099803416 
   2860000  -31.642808      65.908913      34.266105      294.81433      3.4591872      0.0099803416 
   2870000  -34.73858       66.935527      32.196947      299.40643     -0.89725604     0.0099803416 
   2880000  -13.824614      71.020718      57.196104      317.67972      2.7640866      0.0099803416 
   2890000  -33.291536      60.163365      26.871829      269.11416      0.023395433    0.0099803416 
   2900000  -36.791943      61.350109      24.558166      274.42254      0.81727479     0.0099803416 
   2910000  -21.4504        67.830549      46.380149      303.40991     -0.12478381     0.0099803416 
   2920000  -25.864158      63.462132      37.597973      283.86973      0.50605265     0.0099803416 
   2930000  -32.576036      69.004493      36.428457      308.66103      0.74904977     0.0099803416 
   2940000  -32.008852      77.714648      45.705796      347.62205     -0.76804073     0.0099803416 
   2950000  -18.424958      66.098313      47.673355      295.66152     -1.2028609      0.0099803416 
   2960000  -10.176336      73.005389      62.829053      326.55727     -1.0892833      0.0099803416 
   2970000  -22.569602      56.242977      33.673375      251.57805      3.1548324      0.0099803416 
   2980000  -22.172297      71.784218      49.61192       321.0949       0.40774102     0.0099803416 
   2990000  -36.451673      67.067996      30.616324      299.99897     -0.47484918     0.0099803416 
   3000000  -30.844604      66.546794      35.70219       297.66761     -0.099262115    0.0099803416 
   3010000  -32.99991       69.492334      36.492424      310.84317      2.5912761      0.0099803416 
   3020000  -17.458134      65.062285      47.604151      291.02731      2.5262555      0.0099803416 
   3030000  -33.580864      60.998022      27.417158      272.84763      1.2702206      0.0099803416 
   3040000  -25.904786      85.913289      60.008502      384.29504      2.1046198      0.0099803416 
   3050000  -24.511538      80.349004      55.837465      359.40567      0.2755465      0.0099803416 
   3060000  -30.369805      69.377477      39.007671      310.32941     -0.42314037     0.0099803416 
   3070000  -25.958941      65.631474      39.672533      293.57333     -2.8823211      0.0099803416 
   3080000  -30.484777      59.589455      29.104678      266.54703      0.50079411     0.0099803416 
   3090000  -29.131143      64.255471      35.124328      287.41839      0.090582063    0.0099803416 
   3100000  -27.350382      81.045906      53.695524      362.52296     -0.72040787     0.0099803416 
   3110000  -22.181804      59.076465      36.89466       264.25239     -0.83013698     0.0099803416 
   3120000  -11.403251      67.926114      56.522863      303.83738     -2.5304503      0.0099803416 
   3130000  -29.045877      63.789269      34.743392      285.33304      3.0243168      0.0099803416 
   3140000  -17.04473       59.867734      42.823004      267.79179     -1.07763        0.0099803416 
   3150000  -25.055635      69.587336      44.531701      311.26812      0.0011867414   0.0099803416 
   3160000  -13.98953       69.559274      55.569743      311.1426       2.9824997      0.0099803416 
   3170000  -19.322676      58.716304      39.393629      262.64138      0.64178591     0.0099803416 
   3180000  -12.720258      61.248824      48.528567      273.96948      1.4163745      0.0099803416 
   3190000  -12.299843      72.607496      60.307653      324.77747      0.029644468    0.0099803416 
   3200000  -38.692684      57.389933      18.697249      256.70844     -0.24241415     0.0099803416 
   3210000  -30.9503        55.052166      24.101866      246.25148     -1.5004522      0.0099803416 
   3220000  -38.097634      61.304409      23.206775      274.21812      0.35871203     0.0099803416 
   3230000  -17.81903       64.181231      46.362201      287.08631     -1.8327362      0.0099803416 
   3240000  -15.663793      53.158457      37.494664      237.78081     -3.1806127      0.0099803416 
   3250000  -20.902947      58.63704       37.734093      262.28682     -0.15696801     0.0099803416 
   3260000  -34.540925      62.213668      27.672743      278.28528      3.8079207      0.0099803416 
   3270000  -41.618543      66.132168      24.513625      295.81296      1.5600668      0.0099803416 
   3280000  -30.719639      79.978665      49.259026      357.74913      0.9437317      0.0099803416 
   3290000  -13.939347      75.088086      61.148739      335.87329     -1.4528636      0.0099803416 
   3300000  -21.709873      64.201212      42.49134       287.17568      1.2178419      0.0099803416 
   3310000  -14.394765      72.705683      58.310918      325.21667     -0.094458663    0.0099803416 
   3320000  -18.015257      68.267463      50.252206      305.36425     -1.1040794      0.0099803416 
   3330000  -15.318658      72.638332      57.319674      324.9154      -0.719746       0.0099803416 
   3340000  -14.618918      65.764454      51.145537      294.16815     -0.13787855     0.0099803416 
   3350000  -24.13466       73.501822      49.367162      328.77784      1.244479       0.0099803416 
   3360000  -23.771896      67.139074      43.367178      300.31691      1.1156257      0.0099803416 
   3370000  -18.118763      65.767589      47.648826      294.18218      1.2765096      0.0099803416 
   3380000  -8.7355958      55.361109      46.625513      247.6334      -0.89601894     0.0099803416 
   3390000  -32.43433       59.891042      27.456712      267.89605      0.48290194     0.0099803416 
   3400000  -27.455219      58.543273      31.088054      261.8674      -1.2991403      0.0099803416 
   3410000  -25.042628      74.089029      49.046401      331.40445     -0.62204697     0.0099803416 
   3420000  -23.454264      63.884114      40.42985       285.75728     -1.0675098      0.0099803416 
   3430000  -34.575683      58.979679      24.403996      263.81947     -1.3094208      0.0099803416 
   3440000  -22.39445       77.042835      54.648384      344.61699      0.43938321     0.0099803416 
   3450000  -32.90516       71.519053      38.613893      319.9088       0.43066257     0.0099803416 
   3460000  -26.428841      61.153071      34.724229      273.54117     -0.42745544     0.0099803416 
   3470000  -26.096205      70.259878      44.163672      314.27644      1.4064538      0.0099803416 
   3480000  -23.534498      65.864136      42.329638      294.61404      1.5403837      0.0099803416 
   3490000  -11.728809      67.002333      55.273524      299.70525      2.1670737      0.0099803416 
   3500000  -18.651935      59.444403      40.792467      265.8982      -0.41158416     0.0099803416 
   3510000  -8.5877481      71.93882       63.351072      321.78644     -2.5286659      0.0099803416 
   3520000  -26.585259      64.108084      37.522826      286.75912      2.9549227      0.0099803416 
   3530000  -27.879763      66.197073      38.317311      296.10328     -1.7160883      0.0099803416 
   3540000  -12.691307      73.371802      60.680495      328.19625     -0.85640721     0.0099803416 
   3550000  -21.263765      51.204736      29.940971      229.04171      0.49916263     0.0099803416 
   3560000  -9.5236175      65.830847      56.30723       294.46513     -0.85382743     0.0099803416 
   3570000  -16.934507      57.574293      40.639786      257.5331      -3.1346974      0.0099803416 
   3580000  -10.618684      71.784903      61.16622       321.09797     -1.4072629      0.0099803416 
   3590000  -25.314284      66.814736      41.500452      298.86612     -2.6643077      0.0099803416 
   3600000  -12.509977      63.187336      50.677359      282.64056      2.7206229      0.0099803416 
   3610000  -26.169826      65.970172      39.800345      295.08834      0.091002664    0.0099803416 
   3620000  -21.414011      66.388467      44.974456      296.9594       1.5570849      0.0099803416 
   3630000  -22.999         72.291541      49.292541      323.36419     -1.8877768      0.0099803416 
   3640000  -41.39503       60.844537      19.449507      272.16108     -0.70647574     0.0099803416 
   3650000  -15.921825      69.654383      53.732558      311.56803      0.94151878     0.0099803416 
   3660000  -11.308046      71.555409      60.247363      320.07142     -1.0360956      0.0099803416 
   3670000  -28.284836      70.966424      42.681589      317.43686     -0.64901344     0.0099803416 
   3680000  -23.839406      70.543736      46.704331      315.54616     -0.35575551     0.0099803416 
   3690000  -20.15918       62.740214      42.581034      280.64056     -1.0210305      0.0099803416 
   3700000  -19.177572      71.295964      52.118392      318.91091      0.78300334     0.0099803416 
   3710000  -13.150098      63.339446      50.189348      283.32095      0.22292875     0.0099803416 
   3720000  -27.614458      60.481326      32.866868      270.53642      1.0235354      0.0099803416 
   3730000  -28.460377      59.137961      30.677584      264.52747     -0.6466531      0.0099803416 
   3740000  -30.131101      64.315484      34.184384      287.68683      0.79402903     0.0099803416 
   3750000  -14.193218      69.194116      55.000897      309.50923     -2.394501       0.0099803416 
   3760000  -12.564381      69.646524      57.082143      311.53287     -0.13914149     0.0099803416 
   3770000  -23.150439      70.630182      47.479743      315.93283      0.87971478     0.0099803416 
   3780000  -18.66388       69.230063      50.566183      309.67002     -0.81140871     0.0099803416 
   3790000  -26.857395      56.964806      30.107411      254.80682     -1.450888       0.0099803416 
   3800000  -29.207144      67.508794      38.301651      301.97069     -0.090852712    0.0099803416 
   3810000  -26.755169      67.446781      40.691612      301.6933      -1.0414575      0.0099803416 
   3820000  -25.641165      57.890368      32.249203      258.94692      1.1097522      0.0099803416 
   3830000  -36.67033       64.178247      27.507916      287.07296     -0.36241178     0.0099803416 
   3840000  -20.232922      81.242984      61.010062      363.4045       1.890758       0.0099803416 
   3850000  -23.314364      61.669423      38.355059      275.85084     -0.78810949     0.0099803416 
   3860000  -11.058596      66.037565      54.978968      295.38979      1.0307471      0.0099803416 
   3870000  -4.9358021      68.626438      63.690635      306.96997     -0.22941528     0.0099803416 
   3880000  -23.236578      61.99098       38.754402      277.28919      2.1461816      0.0099803416 
   3890000  -17.991956      64.853605      46.861649      290.09387     -0.25792755     0.0099803416 
   3900000  -23.166604      81.810062      58.643457      365.94107     -0.88331006     0.0099803416 
   3910000  -24.359484      58.329623      33.97014       260.91173      0.72898848     0.0099803416 
   3920000  -21.273878      62.168592      40.894715      278.08366     -0.47557871     0.0099803416 
   3930000  -12.376486      68.758628      56.382143      307.56127     -1.8101731      0.0099803416 
   3940000  -34.601163      66.043314      31.442151      295.41551      1.5153885      0.0099803416 
   3950000  -14.784095      65.824518      51.040423      294.43682      0.71978594     0.0099803416 
   3960000  -35.301931      57.722409      22.420478      258.19563     -1.4631929      0.0099803416 
   3970000  -23.005053      75.290301      52.285248      336.77781     -2.7472045      0.0099803416 
   3980000  -36.852187      65.137769      28.285582      291.36496     -0.68587576     0.0099803416 
   3990000  -26.964312      69.842336      42.878024      312.40875      0.86991433     0.0099803416 
   4000000  -5.0054441      70.077502      65.072057      313.46066      0.33014176     0.0099803416 
   4010000  -25.526655      71.622535      46.09588       320.37168     -0.92025668     0.0099803416 
   4020000  -27.910075      69.042638      41.132563      308.83166     -0.71268685     0.0099803416 
   4030000  -14.896021      76.068745      61.172724      340.25983      1.4954894      0.0099803416 
   4040000  -10.167285      62.521848      52.354564      279.66379     -0.31779067     0.0099803416 
   4050000  -24.514067      76.177522      51.663455      340.7464       0.14581479     0.0099803416 
   4060000  -21.58256       63.53004       41.94748       284.17349     -1.1961014      0.0099803416 
   4070000  -20.065312      67.221567      47.156255      300.6859       0.94660045     0.0099803416 
   4080000  -19.92601       63.65942       43.73341       284.75221      0.77196689     0.0099803416 
   4090000  -10.606906      66.833611      56.226705      298.95056     -1.031194       0.0099803416 
   4100000  -22.440923      74.167596      51.726673      331.75589     -0.54791608     0.0099803416 
   4110000  -11.222875      62.4608        51.237926      279.39072      1.0055659      0.0099803416 
   4120000  -20.944317      64.089096      43.144779      286.67418     -1.5633424      0.0099803416 
   4130000  -13.465259      58.031443      44.566184      259.57795      0.32185037     0.0099803416 
   4140000  -14.786181      66.102363      51.316182      295.67964     -1.8071341      0.0099803416 
   4150000  -18.206631      66.086063      47.879431      295.60673      0.21503749     0.0099803416 
   4160000  -25.520111      60.461776      34.941665      270.44897     -0.51636674     0.0099803416 
   4170000  -12.491423      65.084563      52.59314       291.12696     -0.52782258     0.0099803416 
   4180000  -20.938549      67.901856      46.963306      303.72887     -0.033951936    0.0099803416 
   4190000  -22.91365       69.058856      46.145206      308.9042      -1.6628634      0.0099803416 
   4200000  -14.760592      59.094256      44.333664      264.33198     -0.5717787      0.0099803416 
   4210000  -17.046264      69.715304      52.66904       311.84053      1.3783564      0.0099803416 
   4220000  -9.6702554      60.678362      51.008106      271.41777     -1.8506895      0.0099803416 
   4230000   2.8648653      61.595061      64.459927      275.51822     -0.75002149     0.0099803416 
   4240000  -21.716361      80.060061      58.3437        358.11322     -0.12264899     0.0099803416 
   4250000  -9.6040418      68.809317      59.205275      307.788        0.62842587     0.0099803416 
   4260000  -12.253446      62.42147       50.168024      279.2148       0.067000734    0.0099803416 
   4270000  -9.3428256      59.717628      50.374802      267.12036     -0.11761014     0.0099803416 
   4280000  -11.061805      70.169598      59.107793      313.87261      2.01169        0.0099803416 
   4290000  -6.0320725      72.149458      66.117385      322.72864      0.45840846     0.0099803416 
   4300000  -11.824769      63.207951      51.383182      282.73277      0.94103681     0.0099803416 
   4310000  -17.712994      64.604416      46.891422      288.97924      0.9744325      0.0099803416 
   4320000  -16.364796      60.305493      43.940697      269.74991     -1.2785819      0.0099803416 
   4330000  -22.727482      82.637579      59.910098      369.6426      -2.4278734      0.0099803416 
   4340000  -7.0576714      75.568298      68.510627      338.02131     -1.542509       0.0099803416 
   4350000  -22.816021      75.150993      52.334972      336.15468     -0.95379832     0.0099803416 
   4360000  -26.070612      71.471911      45.401299      319.69793      0.63872208     0.0099803416 
   4370000  -15.26352       75.295212      60.031692      336.79978     -0.52122343     0.0099803416 
   4380000  -18.108839      73.68945       55.58061       329.61711      1.4417969      0.0099803416 
   4390000  -12.528524      67.348602      54.820077      301.25414     -0.095428094    0.0099803416 
   4400000  -21.298642      73.870416      52.571774      330.42658      0.25294055     0.0099803416 
   4410000  -16.094959      60.349462      44.254503      269.94658     -0.88930043     0.0099803416 
   4420000  -11.292062      69.691296      58.399234      311.73314     -0.64274465     0.0099803416 
   4430000  -23.028008      56.763772      33.735764      253.90759     -0.80572427     0.0099803416 
   4440000  -14.462031      57.782581      43.320551      258.46478     -0.41502211     0.0099803416 
   4450000  -14.287409      66.682361      52.394952      298.274       -0.99621509     0.0099803416 
   4460000  -29.71334       52.607448      22.894108      235.31612      0.74465681     0.0099803416 
   4470000  -19.627166      76.19343       56.566264      340.81756     -0.35846952     0.0099803416 
   4480000  -12.826774      55.583435      42.756661      248.62788      1.0612587      0.0099803416 
   4490000  -24.793324      78.74662       53.953297      352.23812      0.46928974     0.0099803416 
   4500000  -8.1452928      66.722378      58.577085      298.453       -2.3450161      0.0099803416 
   4510000  -23.677748      55.556612      31.878864      248.50789     -1.8777693      0.0099803416 
   4520000  -20.572547      64.751403      44.178855      289.63672      1.0812006      0.0099803416 
   4530000  -16.34471       76.965978      60.621268      344.27321     -0.59990169     0.0099803416 
   4540000  -20.83811       66.80259       45.96448       298.81179     -1.7815037      0.0099803416 
   4550000  -21.554169      63.937971      42.383802      285.99819      1.0228833      0.0099803416 
   4560000  -28.854277      68.294854      39.440577      305.48677      1.9577625      0.0099803416 
   4570000  -17.286532      70.700736      53.414204      316.24842     -1.0853254      0.0099803416 
   4580000  -14.686301      58.534518      43.848217      261.82824      2.1164943      0.0099803416 
   4590000  -21.568948      68.810436      47.241488      307.79301     -1.6065571      0.0099803416 
   4600000  -20.979686      55.65802       34.678334      248.9615      -2.9001135      0.0099803416 
   4610000  -22.616224      60.300465      37.684241      269.72742     -0.75707291     0.0099803416 
   4620000  -16.943965      63.308806      46.364841      283.1839      -2.4625784      0.0099803416 
   4630000  -12.812277      63.651858      50.83958       284.71839     -0.95709501     0.0099803416 
   4640000  -15.611576      63.332947      47.721372      283.29188     -1.601873       0.0099803416 
   4650000  -17.903345      68.732175      50.82883       307.44294      0.21899039     0.0099803416 
   4660000  -1.878872       78.418663      76.539791      350.77115      0.96424913     0.0099803416 
   4670000  -14.490984      71.425583      56.934599      319.4907      -0.73645749     0.0099803416 
   4680000  -17.130823      62.551339      45.420516      279.79571     -0.69100366     0.0099803416 
   4690000  -10.794508      81.109845      70.315337      362.80896      0.81103925     0.0099803416 
   4700000  -21.541586      71.410084      49.868499      319.42138      0.41932068     0.0099803416 
   4710000  -12.371212      65.039971      52.668759      290.9275      -0.036626033    0.0099803416 
   4720000   3.2154887      67.967711      71.1832        304.02345     -0.6564636      0.0099803416 
   4730000  -25.65678       46.775005      21.118225      209.22727     -0.063853744    0.0099803416 
   4740000  -22.741722      62.059068      39.317346      277.59375     -1.6073473      0.0099803416 
   4750000  -26.007598      60.006147      33.998549      268.41092     -1.9769626      0.0099803416 
   4760000  -17.851578      65.157476      47.305899      291.45311      2.3176234      0.0099803416 
   4770000  -17.566246      68.845202      51.278956      307.94851      1.4741043      0.0099803416 
   4780000  -20.050509      72.711477      52.660968      325.24258      0.71246269     0.0099803416 
   4790000  -5.6423316      60.247608      54.605276      269.49099     -0.05124706     0.0099803416 
   4800000  -7.7402106      56.758865      49.018654      253.88564     -2.9519904      0.0099803416 
   4810000  -13.970405      66.268317      52.297912      296.42196     -1.0742678      0.0099803416 
   4820000  -21.258737      74.444937      53.1862        332.99645     -1.5852652      0.0099803416 
   4830000  -15.270939      69.526752      54.255814      310.99713      0.12804005     0.0099803416 
   4840000  -11.174005      57.469936      46.295931      257.0663      -0.64950716     0.0099803416 
   4850000  -15.128031      69.680368      54.552337      311.68426      2.4974906      0.0099803416 
   4860000  -5.9796314      64.434934      58.455303      288.22114     -0.87882399     0.0099803416 
   4870000  -22.227824      56.981581      34.753758      254.88186     -0.81453995     0.0099803416 
   4880000  -13.165861      70.710179      57.544318      316.29066     -1.3800375      0.0099803416 
   4890000  -2.5227215      71.915368      69.392646      321.68154     -2.7844052      0.0099803416 
   4900000  -5.4181644      68.215024      62.796859      305.12969      0.47999416     0.0099803416 
   4910000   6.4263696      76.747832      83.174201      343.29743     -1.5405705      0.0099803416 
   4920000  -2.9265853      63.886104      60.959518      285.76618     -0.6038666      0.0099803416 
   4930000  -15.56655       83.402033      67.835483      373.06205      1.4547913      0.0099803416 
   4940000  -18.539556      56.253209      37.713654      251.62381      0.47518703     0.0099803416 
   4950000  -9.9639627      57.719598      47.755635      258.18305      0.34773667     0.0099803416 
   4960000  -8.3745511      59.073917      50.699366      264.241        0.39663388     0.0099803416 
   4970000  -10.094945      65.426423      55.331478      292.65612     -0.43192775     0.0099803416 
   4980000  -17.002657      66.311704      49.309048      296.61604     -1.8035832      0.0099803416 
   4990000  -27.384169      71.521242      44.137074      319.91859      0.20257129     0.0099803416 
   5000000  -17.334164      70.942723      53.608559      317.33085     -0.087359016    0.0099803416 
Loop time of 301.577 on 4 procs for 5000000 steps with 76 atoms

Performance: 14324.711 ns/day, 0.002 hours/ns, 16579.527 timesteps/s, 1.260 Matom-step/s
99.7% CPU use with 4 MPI tasks x 1 OpenMP threads

MPI task timing breakdown:
Section |  min time  |  avg time  |  max time  |%varavg| %total
---------------------------------------------------------------
Pair    | 26.447     | 90.672     | 232.91     | 881.8 | 30.07
Bond    | 1.3054     | 7.4839     | 20.576     | 286.3 |  2.48
Neigh   | 0.20332    | 0.2063     | 0.20924    |   0.5 |  0.07
Comm    | 37.965     | 197.44     | 269.73     | 670.6 | 65.47
Output  | 0.034181   | 0.050539   | 0.098795   |  12.4 |  0.02
Modify  | 1.3782     | 3.6516     | 8.49       | 151.4 |  1.21
Other   |            | 2.075      |            |       |  0.69

Nlocal:             19 ave          49 max           3 min
Histogram: 2 0 0 1 0 0 0 0 0 1
Nghost:             59 ave          73 max          40 min
Histogram: 1 0 0 1 0 0 0 0 0 2
Neighs:            133 ave         345 max           0 min
Histogram: 1 1 0 1 0 0 0 0 0 1

Total # of neighbors = 532
Ave neighs/atom = 7
Ave special neighs/atom = 5.6842105
Neighbor list builds = 4506
Dangerous builds = 0

# --- Production (1 µs) -------------------------------------------
unfix favg
fix favg all ave/time 10000 10 100000 v_vpe v_vke v_vT v_vE v_vRg     file outputs/thermo_${tag}_production.dat
fix favg all ave/time 10000 10 100000 v_vpe v_vke v_vT v_vE v_vRg     file outputs/thermo_7LYJ_aso_bind_production.dat

restart 10000000 outputs/backup_${tag}.*.restart
restart 10000000 outputs/backup_7LYJ_aso_bind.*.restart
run 100000000
Generated 0 of 6 mixed pair_coeff terms from geometric mixing rule
Per MPI rank memory allocation (min/avg/max) = 8.55 | 8.751 | 8.818 Mbytes
   Step         PotEng         KinEng         TotEng          Temp          Press         Density    
   5000000  -17.334164      70.942723      53.608559      317.33085     -0.087359016    0.0099803416 
   5010000  -20.164366      85.216993      65.052627      381.18047     -0.7850343      0.0099803416 
   5020000  -9.8846596      75.842612      65.957952      339.24833      0.36333497     0.0099803416 
   5030000  -11.815248      63.826211      52.010963      285.49828     -0.79987796     0.0099803416 
   5040000  -4.7194731      61.399627      56.680154      274.64403     -0.90496485     0.0099803416 
   5050000  -16.154834      68.020751      51.865918      304.2607      -0.059499559    0.0099803416 
   5060000  -22.213369      64.947498      42.734129      290.51386      0.67382893     0.0099803416 
   5070000  -18.47647       57.432425      38.955954      256.89851      2.3375853      0.0099803416 
   5080000  -23.631812      69.051738      45.419926      308.87236      0.32540876     0.0099803416 
   5090000  -16.836455      71.711242      54.874787      320.76847     -0.18927538     0.0099803416 
   5100000  -19.550254      65.968632      46.418378      295.08145      0.78736563     0.0099803416 
   5110000  -0.021185071    71.682098      71.660913      320.63811     -0.25302803     0.0099803416 
   5120000  -14.111575      61.62407       47.512495      275.64798      1.591508       0.0099803416 
   5130000  -25.144382      76.065627      50.921246      340.24589     -1.1117176      0.0099803416 
   5140000  -19.28163       72.700993      53.419363      325.19569     -0.89664675     0.0099803416 
   5150000  -24.577878      57.947923      33.370046      259.20437     -1.7134486      0.0099803416 
   5160000  -18.283918      60.538732      42.254814      270.7932       0.19288005     0.0099803416 
   5170000  -18.856498      72.776602      53.920103      325.53389      0.31606413     0.0099803416 
   5180000  -23.197736      73.191162      49.993426      327.38824      1.3106184      0.0099803416 
   5190000  -22.605499      59.6405        37.035001      266.77536      1.704635       0.0099803416 
   5200000  -24.5008        69.179473      44.678673      309.44373      1.2315565      0.0099803416 
   5210000  -16.902938      60.661826      43.758887      271.3438      -2.5369812      0.0099803416 
   5220000  -22.53411       60.593133      38.059023      271.03654      0.84742978     0.0099803416 
   5230000  -11.92027       62.011514      50.091244      277.38104     -0.22238836     0.0099803416 
   5240000  -17.013954      60.458523      43.444569      270.43442      2.1355474      0.0099803416 
   5250000  -1.5613148      66.062286      64.500972      295.50037      0.11643584     0.0099803416 
   5260000  -18.46809       75.76855       57.30046       338.91704      0.94613962     0.0099803416 
   5270000  -5.2935405      62.394742      57.101202      279.09524      1.4061466      0.0099803416 
   5280000  -25.35869       71.750161      46.39147       320.94256      2.3539028      0.0099803416 
   5290000  -15.452166      69.304467      53.852301      310.00283      3.0675375      0.0099803416 
   5300000  -17.607964      70.777008      53.169044      316.58959     -1.0608096      0.0099803416 
   5310000  -11.889565      73.283629      61.394064      327.80185      1.9982328      0.0099803416 
   5320000  -24.005853      70.444825      46.438972      315.10372      0.41790407     0.0099803416 
   5330000  -23.267328      75.562352      52.295024      337.99471      1.1069123      0.0099803416 
   5340000  -22.220935      71.346787      49.125852      319.13825     -0.19465591     0.0099803416 
   5350000  -22.631444      67.829639      45.198195      303.40584     -0.24574488     0.0099803416 
   5360000  -28.93121       74.004781      45.073571      331.0276      -1.4532427      0.0099803416 
   5370000  -27.762412      73.002016      45.239603      326.54218     -2.8452309      0.0099803416 
   5380000  -38.024723      63.553496      25.528773      284.27841      1.8007266      0.0099803416 
   5390000  -28.496317      68.134624      39.638307      304.77006      0.74135261     0.0099803416 
   5400000  -13.260462      65.258494      51.998032      291.90497     -2.3848115      0.0099803416 
   5410000  -10.642989      61.741223      51.098234      276.17201     -0.48877066     0.0099803416 
   5420000  -26.124366      62.352729      36.228363      278.90731     -0.0034387434   0.0099803416 
   5430000  -25.039401      68.007629      42.968228      304.202       -0.26601872     0.0099803416 
   5440000  -16.659535      72.788366      56.128831      325.58651     -0.71550753     0.0099803416 
   5450000  -6.1954278      72.254679      66.059251      323.1993      -0.62451781     0.0099803416 
   5460000  -32.039748      67.324672      35.284924      301.1471      -0.18179081     0.0099803416 
   5470000  -11.538554      67.748546      56.209992      303.04311     -0.31627869     0.0099803416 
   5480000   7.805851       71.681065      79.486916      320.63349     -0.4374961      0.0099803416 
   5490000  -7.9691845      61.667591      53.698406      275.84265     -0.67147625     0.0099803416 
   5500000  -41.659466      62.676866      21.017399      280.35719      1.6441338      0.0099803416 
   5510000  -26.04071       68.443393      42.402683      306.1512      -1.1102962      0.0099803416 
   5520000  -29.407273      71.728989      42.321716      320.84786     -0.24854462     0.0099803416 
   5530000  -11.721912      62.5405        50.818588      279.74722     -2.369935       0.0099803416 
   5540000  -22.909639      68.617805      45.708166      306.93135     -2.1921695      0.0099803416 
   5550000  -27.199581      62.550669      35.351087      279.79271      0.7314411      0.0099803416 
   5560000   2.64364        64.652038      67.295678      289.19225     -0.54853545     0.0099803416 
   5570000  -8.1368764      55.283363      47.146486      247.28563      0.74520853     0.0099803416 
   5580000  -28.487703      76.891713      48.40401       343.94102     -1.0050388      0.0099803416 
   5590000  -10.179243      64.601998      54.422756      288.96842     -1.3501566      0.0099803416 
   5600000  -25.952704      55.77993       29.827226      249.50681     -2.08756        0.0099803416 
   5610000  -31.351808      64.956295      33.604487      290.55321     -0.86049145     0.0099803416 
   5620000  -9.4529384      69.529512      60.076574      311.00947     -2.0863023      0.0099803416 
   5630000  -26.377405      62.596874      36.219469      279.99939     -1.2635683      0.0099803416 
   5640000  -7.1245701      62.020566      54.895996      277.42153     -0.65391381     0.0099803416 
   5650000  -18.099808      68.83201       50.732202      307.8895      -1.1948915      0.0099803416 
   5660000  -24.096155      57.060814      32.96466       255.23628     -0.48678903     0.0099803416 
   5670000  -14.20507       62.884723      48.679653      281.28695     -0.24811849     0.0099803416 
   5680000  -23.640522      75.499112      51.85859       337.71183      0.85990518     0.0099803416 
   5690000  -20.314423      58.418516      38.104093      261.30935     -1.9766605      0.0099803416 
   5700000  -22.212626      65.762775      43.550149      294.16064     -1.0751053      0.0099803416 
   5710000  -16.720477      65.17578       48.455303      291.53498     -0.71273058     0.0099803416 
   5720000  -25.351331      77.906321      52.55499       348.47942      0.46808087     0.0099803416 
   5730000  -11.827793      67.68938       55.861587      302.77846     -2.2009136      0.0099803416 
   5740000  -21.318693      64.868008      43.549315      290.1583      -0.2268472      0.0099803416 
   5750000  -18.074521      70.305033      52.230512      314.47842      1.0168414      0.0099803416 
   5760000  -10.698556      67.232186      56.533629      300.7334       0.4967522      0.0099803416 
   5770000  -1.7582466      80.416766      78.658519      359.70878     -0.10252124     0.0099803416 
   5780000  -6.5111551      73.854233      67.343078      330.3542      -0.4317301      0.0099803416 
   5790000  -22.341111      63.090983      40.749872      282.20956      0.39325053     0.0099803416 
   5800000  -20.487303      64.407594      43.920292      288.09884      1.3361531      0.0099803416 
   5810000  -22.173557      64.316354      42.142797      287.69072     -0.096058452    0.0099803416 
   5820000  -16.012211      62.641827      46.629615      280.20046     -0.058767921    0.0099803416 
   5830000  -20.620602      62.962853      42.342251      281.63643      1.2039482      0.0099803416 
   5840000  -30.070603      64.683299      34.612696      289.33208      2.0645762      0.0099803416 
   5850000  -25.088799      67.033265      41.944467      299.84362     -0.063826735    0.0099803416 
   5860000  -8.8965531      62.841128      53.944575      281.09195     -1.5236188      0.0099803416 
   5870000  -18.767658      67.404908      48.63725       301.506       -2.4873818      0.0099803416 
   5880000  -12.122408      66.982455      54.860047      299.61634     -0.25985415     0.0099803416 
   5890000  -10.449069      71.147077      60.698008      318.24493      1.9553344      0.0099803416 
   5900000  -20.419407      65.795637      45.37623       294.30764      0.68805313     0.0099803416 
   5910000  -19.057628      69.413555      50.355926      310.49079     -0.11302563     0.0099803416 
   5920000  -26.318889      65.694706      39.375818      293.85617     -0.71350551     0.0099803416 
   5930000  -15.417397      72.302669      56.885272      323.41396     -1.3435215      0.0099803416 
   5940000  -32.025459      64.422408      32.39695       288.16511      0.72343723     0.0099803416 
   5950000  -26.557626      64.054556      37.49693       286.51968     -0.6011896      0.0099803416 
   5960000  -27.790471      64.287892      36.497421      287.5634      -2.9512637      0.0099803416 
   5970000  -27.556851      73.647663      46.090812      329.4302       2.3450553      0.0099803416 
   5980000  -14.672864      73.26503       58.592166      327.71866      0.7725422      0.0099803416 
   5990000  -14.763135      67.229381      52.466246      300.72086     -2.6489009      0.0099803416 
   6000000  -15.998623      68.436864      52.438241      306.122       -1.64352        0.0099803416 
   6010000  -20.018437      69.918652      49.900214      312.75012      1.7105404      0.0099803416 
   6020000  -33.921001      76.180492      42.25949       340.75968     -0.34449398     0.0099803416 
   6030000  -20.579329      70.621973      50.042644      315.89611      1.208757       0.0099803416 
   6040000  -22.195431      64.157454      41.962023      286.97995     -1.8630373      0.0099803416 
   6050000  -15.42326       70.839671      55.416411      316.86989      1.5077684      0.0099803416 
   6060000  -21.316194      67.769057      46.452863      303.13486      1.1537235      0.0099803416 
   6070000  -21.03591       80.6878        59.65189       360.92113      0.54640704     0.0099803416 
   6080000  -23.620247      68.083064      44.462817      304.53943      0.50319227     0.0099803416 
   6090000  -5.0560875      60.404889      55.348802      270.19451     -1.7732757      0.0099803416 
   6100000  -19.737753      84.498969      64.761216      377.96871      0.70716371     0.0099803416 
   6110000  -19.559335      65.273113      45.713778      291.97036      1.2182998      0.0099803416 
   6120000  -6.3926649      79.984634      73.59197       357.77583     -2.4786042      0.0099803416 
   6130000  -19.896166      60.795631      40.899464      271.94232     -0.13782217     0.0099803416 
   6140000  -5.8381302      58.431121      52.59299       261.36573      1.3007366      0.0099803416 
   6150000  -1.2282467      60.053778      58.825531      268.62397      0.53319327     0.0099803416 
   6160000  -15.959086      74.181723      58.222637      331.81908     -1.3338526      0.0099803416 
   6170000  -18.311982      78.141337      59.829355      349.53066     -0.64397928     0.0099803416 
   6180000  -28.12403       66.306562      38.182532      296.59303     -0.49655906     0.0099803416 
   6190000  -26.839667      67.200686      40.361019      300.5925      -1.332575       0.0099803416 
   6200000  -7.784604       69.975213      62.190609      313.00312      1.2794356      0.0099803416 
   6210000  -18.705694      74.271485      55.565792      332.22059      0.53869708     0.0099803416 
   6220000  -20.089139      70.219143      50.130004      314.09423      0.47673422     0.0099803416 
   6230000  -29.270885      58.894757      29.623872      263.43961     -1.1756242      0.0099803416 
   6240000  -5.1206254      69.291888      64.171263      309.94657      0.028928723    0.0099803416 
   6250000  -20.451869      66.928592      46.476723      299.37541     -1.3283945      0.0099803416 
   6260000  -25.693943      66.37316       40.679217      296.89093      0.3986395      0.0099803416 
   6270000  -14.625109      66.983246      52.358137      299.61988     -1.0393103      0.0099803416 
   6280000  -20.950773      75.83932       54.888547      339.2336      -0.19264793     0.0099803416 
   6290000  -25.315233      73.223701      47.908468      327.53379     -4.4370504      0.0099803416 
   6300000  -10.613939      70.945844      60.331905      317.34481      0.52715461     0.0099803416 
   6310000  -19.247191      65.347699      46.100508      292.30399      1.5986584      0.0099803416 
   6320000  -24.102768      71.27531       47.172542      318.81852     -0.73989019     0.0099803416 
   6330000  -19.143439      65.235261      46.091821      291.80104      2.0206473      0.0099803416 
   6340000  -34.670375      68.658699      33.988324      307.11427     -0.77197682     0.0099803416 
   6350000  -1.9672058      70.529309      68.562103      315.48162     -0.53287162     0.0099803416 
   6360000  -19.936438      77.206107      57.269669      345.34732      1.541876       0.0099803416 
   6370000  -7.0999662      77.305798      70.205832      345.79324      1.0347555      0.0099803416 
   6380000  -16.988915      77.876849      60.887934      348.34759      0.23616116     0.0099803416 
   6390000  -16.017207      70.209474      54.192267      314.05098      0.89568771     0.0099803416 
   6400000  -37.042977      68.581164      31.538187      306.76746      2.1719367      0.0099803416 
   6410000  -32.605502      63.320382      30.714879      283.23568     -1.0075589      0.0099803416 
   6420000  -23.312546      69.223964      45.911418      309.64274      0.032813441    0.0099803416 
   6430000  -21.2943        58.079844      36.785544      259.79445     -0.51184417     0.0099803416 
   6440000  -8.2964676      60.467233      52.170766      270.47338      2.9012184      0.0099803416 
   6450000  -8.6003231      71.334068      62.733745      319.08135     -0.42767754     0.0099803416 
   6460000  -3.9345189      63.8794        59.944882      285.7362       0.18028975     0.0099803416 
   6470000  -4.4584381      70.769222      66.310784      316.55477     -1.8619085      0.0099803416 
   6480000  -31.609292      59.215897      27.606606      264.87609     -0.39863414     0.0099803416 
   6490000  -19.025716      71.244932      52.219216      318.68264      0.73517927     0.0099803416 
   6500000  -21.800781      77.647587      55.846805      347.32208     -1.9795884      0.0099803416 
   6510000  -35.012785      71.215537      36.202752      318.55116     -1.6859049      0.0099803416 
   6520000  -17.308709      77.04534       59.73663       344.6282       0.84813959     0.0099803416 
   6530000  -20.872582      66.163989      45.291407      295.9553       0.14080686     0.0099803416 
   6540000  -24.529643      66.50122       41.971578      297.46375      2.0529858      0.0099803416 
   6550000  -27.201201      64.80087       37.599669      289.85799     -1.0168777      0.0099803416 
   6560000  -28.199897      58.253947      30.05405       260.57323     -3.2728939      0.0099803416 
   6570000  -25.591414      73.568949      47.977535      329.0781      -0.26458742     0.0099803416 
   6580000  -26.217049      60.533068      34.316019      270.76787      0.43712248     0.0099803416 
   6590000  -25.823971      64.950034      39.126063      290.52521     -0.19942871     0.0099803416 
   6600000  -17.332521      67.514368      50.181847      301.99562     -1.705253       0.0099803416 
   6610000  -25.629646      79.788311      54.158666      356.89767     -0.75227746     0.0099803416 
   6620000  -13.193334      69.361736      56.168402      310.259       -0.52103741     0.0099803416 
   6630000  -21.120995      63.63927       42.518275      284.66208      0.0056036494   0.0099803416 
   6640000  -30.043544      69.42169       39.378147      310.52718     -0.18581099     0.0099803416 
   6650000  -23.371381      66.471066      43.099685      297.32887     -0.9525219      0.0099803416 
   6660000  -31.299746      67.447401      36.147655      301.69607      1.5106739      0.0099803416 
   6670000  -26.68468       75.534404      48.849724      337.86969     -0.58381235     0.0099803416 
   6680000  -7.5613         70.395148      62.833848      314.88151     -1.394995       0.0099803416 
   6690000  -12.804298      74.540824      61.736525      333.42536     -1.3779188      0.0099803416 
   6700000  -7.5604305      70.440368      62.879937      315.08378     -2.0474173      0.0099803416 
   6710000  -12.512293      69.161484      56.649191      309.36326      0.19841619     0.0099803416 
   6720000   2.7616051      68.793497      71.555102      307.71723     -0.50452692     0.0099803416 
   6730000  -13.461008      61.47504       48.014032      274.98136      1.3464574      0.0099803416 
   6740000  -9.6392156      61.838068      52.198853      276.60521     -0.40846875     0.0099803416 
   6750000  -13.102107      68.631391      55.529283      306.99212     -0.28973932     0.0099803416 
   6760000  -16.000678      67.71983       51.719153      302.91466     -0.72901807     0.0099803416 
   6770000  -8.3308555      73.641406      65.310551      329.40221     -1.277408       0.0099803416 
   6780000  -9.2622158      71.129022      61.866806      318.16417      1.1725617      0.0099803416 
   6790000  -15.97946       58.617313      42.637853      262.19858     -0.98894587     0.0099803416 
   6800000  -4.8425042      64.433549      59.591045      288.21494     -1.9894473      0.0099803416 
   6810000  -19.871465      67.97851       48.107046      304.07175      2.2998214      0.0099803416 
   6820000  -5.4972881      76.806711      71.309423      343.5608       2.3183142      0.0099803416 
   6830000   0.10754787     63.674708      63.782256      284.8206      -1.0696914      0.0099803416 
   6840000  -0.062863977    68.160386      68.097522      304.88529     -0.59843393     0.0099803416 
   6850000  -17.582752      67.372033      49.789281      301.35895      1.7182887      0.0099803416 
   6860000  -14.541054      75.91111       61.370056      339.55472      2.0495803      0.0099803416 
   6870000  -20.412223      64.543849      44.131626      288.70832      0.024983065    0.0099803416 
   6880000  -18.109136      66.767391      48.658254      298.65435     -0.25042737     0.0099803416 
   6890000   3.2118708      65.191682      68.403553      291.60611     -1.3475497      0.0099803416 
   6900000  -24.812886      63.548674      38.735788      284.25684     -0.88495883     0.0099803416 
   6910000  -22.692797      69.981653      47.288856      313.03192     -2.8153697      0.0099803416 
   6920000  -10.849246      70.485841      59.636595      315.28719     -0.56282357     0.0099803416 
   6930000  -6.7790292      73.290282      66.511252      327.83161      1.6890509      0.0099803416 
   6940000  -19.220328      68.973017      49.752689      308.52024     -0.29053915     0.0099803416 
   6950000  -9.7777634      64.739812      54.962048      289.58487      0.57237182     0.0099803416 
   6960000  -8.5548087      69.762086      61.207278      312.04979      1.6931613      0.0099803416 
   6970000  -4.6794984      59.708323      55.028824      267.07873     -1.3673379      0.0099803416 
   6980000  -18.488202      64.463917      45.975714      288.35078     -0.019571448    0.0099803416 
   6990000  -15.210633      65.364763      50.154131      292.38031     -0.63283941     0.0099803416 
   7000000  -22.556256      67.985089      45.428833      304.10118      0.14648382     0.0099803416 
   7010000  -18.530112      72.451093      53.920981      324.07787     -0.90926147     0.0099803416 
   7020000  -16.270188      62.923782      46.653594      281.46166     -1.3287232      0.0099803416 
   7030000  -13.881344      73.067346      59.186002      326.8344       3.2408582      0.0099803416 
   7040000  -27.974397      72.635978      44.66158       324.90487     -0.0915207      0.0099803416 
   7050000  -33.592556      68.707815      35.115259      307.33398     -0.2628108      0.0099803416 
[...]
 103190000  -10.411603      65.17182       54.760217      291.51727      0.61237486     0.0099803416 
 103200000   0.82659319     69.956346      70.78294       312.91873     -1.0956596      0.0099803416 
 103210000  -10.650292      69.474566      58.824274      310.76369     -0.1047655      0.0099803416 
 103220000  -23.043449      63.080071      40.036623      282.16076     -0.38301334     0.0099803416 
 103230000  -22.01617       59.411968      37.395799      265.75312     -0.37690589     0.0099803416 
 103240000  -14.132729      70.697757      56.565028      316.2351      -1.5655512      0.0099803416 
 103250000   1.7108297      72.829488      74.540317      325.77045      0.51356326     0.0099803416 
 103260000  -21.563833      71.393546      49.829713      319.3474      -0.36194096     0.0099803416 
 103270000  -9.9386622      71.074674      61.136012      317.92107     -0.042387911    0.0099803416 
 103280000  -8.5403673      56.498944      47.958576      252.723        0.74204475     0.0099803416 
 103290000  -23.523472      64.578299      41.054827      288.86242     -2.6000842      0.0099803416 
 103300000  -14.883567      76.065316      61.181749      340.2445      -2.1813419      0.0099803416 
 103310000  -11.266105      61.922389      50.656284      276.98238      0.51767076     0.0099803416 
 103320000  -21.179312      67.690523      46.511211      302.78357      2.277356       0.0099803416 
 103330000  -18.075683      67.755834      49.680151      303.07571     -2.494356       0.0099803416 
 103340000  -23.739034      53.991717      30.252683      241.50803     -1.3236639      0.0099803416 
 103350000  -17.311728      71.10099       53.789262      318.03878     -0.00046940705  0.0099803416 
 103360000  -4.1921984      65.037342      60.845144      290.91574     -2.5465319      0.0099803416 
 103370000  -24.681136      70.231622      45.550486      314.15005      0.60010031     0.0099803416 
 103380000  -16.19345       65.45815       49.2647        292.79804     -0.38990394     0.0099803416 
 103390000  -26.545966      67.247244      40.701279      300.80076     -1.2989748      0.0099803416 
 103400000  -21.733598      67.356204      45.622606      301.28814      0.25947248     0.0099803416 
 103410000  -27.841578      59.50473       31.663153      266.16805      0.30283907     0.0099803416 
 103420000   7.7996552      64.878322      72.677977      290.20443      0.14503418     0.0099803416 
 103430000  -9.7537603      66.671759      56.917999      298.22658     -0.90021379     0.0099803416 
 103440000   0.60930735     58.33384       58.943147      260.93059      0.086585169    0.0099803416 
 103450000  -11.675244      60.281141      48.605897      269.64098     -0.09709963     0.0099803416 
 103460000  -10.895512      71.276869      60.381358      318.8255      -1.53567        0.0099803416 
 103470000  -9.1276768      56.978618      47.850941      254.86861      0.27424036     0.0099803416 
 103480000  -34.293625      73.766789      39.473164      329.96305     -1.1653296      0.0099803416 
 103490000  -30.331711      66.432212      36.100501      297.15507      1.3404931      0.0099803416 
 103500000  -17.446167      58.250926      40.804759      260.55972      1.8819636      0.0099803416 
 103510000  -16.075861      63.342428      47.266567      283.33429      1.5177444      0.0099803416 
 103520000  -19.945986      69.468572      49.522587      310.73689     -0.3742761      0.0099803416 
 103530000  -15.381174      71.554426      56.173252      320.06703      1.3738338      0.0099803416 
 103540000  -23.261563      60.227579      36.966016      269.4014      -1.4707823      0.0099803416 
 103550000  -10.3845        65.458057      55.073558      292.79762     -0.34241183     0.0099803416 
 103560000  -5.5675639      70.391531      64.823967      314.86533      1.1967038      0.0099803416 
 103570000  -10.94191       69.798334      58.856424      312.21193      0.85772267     0.0099803416 
 103580000  -23.278607      71.179563      47.900956      318.39024     -0.97974194     0.0099803416 
 103590000  -16.279299      66.202445      49.923145      296.12731      0.58808965     0.0099803416 
 103600000  -28.091236      67.463348      39.372112      301.7674       0.25769943     0.0099803416 
 103610000  -29.514252      64.379857      34.865605      287.97477     -0.49617515     0.0099803416 
 103620000  -14.205961      55.761977      41.556016      249.4265       0.70475697     0.0099803416 
 103630000  -29.988219      61.668385      31.680165      275.8462       0.7668261      0.0099803416 
 103640000  -26.08855       56.491401      30.402851      252.68926      0.83539972     0.0099803416 
 103650000  -24.528261      73.027036      48.498775      326.6541       1.6115236      0.0099803416 
 103660000  -26.804177      65.958127      39.15395       295.03446     -0.94094801     0.0099803416 
 103670000  -17.294651      71.853404      54.558754      321.40438      0.68214855     0.0099803416 
 103680000  -16.8191        59.270434      42.451334      265.12003     -1.3996049      0.0099803416 
 103690000  -23.293139      70.034518      46.74138       313.26839     -0.27812778     0.0099803416 
 103700000  -26.344615      60.959771      34.615157      272.67653      1.7023861      0.0099803416 
 103710000  -10.240396      61.411467      51.171071      274.697       -0.65809892     0.0099803416 
 103720000  -20.718368      71.261323      50.542955      318.75596      1.0069375      0.0099803416 
 103730000  -21.202021      79.564206      58.362185      355.89523      0.21057607     0.0099803416 
 103740000  -1.9401902      71.366305      69.426114      319.22555      0.035954149    0.0099803416 
 103750000  -16.592305      74.41858       57.826276      332.87855      0.335047       0.0099803416 
 103760000  -19.756028      67.806559      48.050531      303.3026      -0.088611756    0.0099803416 
 103770000  -17.584677      63.170274      45.585596      282.56424     -2.01739        0.0099803416 
 103780000  -24.431919      69.123015      44.691096      309.19119      0.35061733     0.0099803416 
 103790000  -29.14364       71.832172      42.688532      321.3094       2.0399967      0.0099803416 
 103800000  -31.80578       65.59465       33.788871      293.40861      1.1409418      0.0099803416 
 103810000  -28.175079      66.24831       38.073231      296.33247     -0.9356011      0.0099803416 
 103820000  -27.004548      70.541763      43.537215      315.53733     -3.3142581      0.0099803416 
 103830000  -30.228708      65.022001      34.793293      290.84712      1.1705698      0.0099803416 
 103840000  -22.710234      74.314543      51.604309      332.41319     -1.4629893      0.0099803416 
 103850000  -27.147338      70.421883      43.274545      315.0011       0.67803369     0.0099803416 
 103860000  -34.115478      68.54319       34.427712      306.5976       1.9596975      0.0099803416 
 103870000  -31.004686      73.585539      42.580853      329.15231      0.77385825     0.0099803416 
 103880000  -40.009558      82.925648      42.91609       370.93115      2.2172216      0.0099803416 
 103890000  -42.445422      67.764476      25.319054      303.11436     -3.1859465      0.0099803416 
 103900000  -27.119704      66.835522      39.715818      298.9591      -1.7307389      0.0099803416 
 103910000  -29.601921      70.714244      41.112323      316.30884     -0.62871623     0.0099803416 
 103920000  -18.9175        69.819819      50.902319      312.30803     -1.1047277      0.0099803416 
 103930000  -29.21054       65.716484      36.505944      293.95358      0.33648497     0.0099803416 
 103940000  -42.356026      69.396274      27.040248      310.41349      0.59623906     0.0099803416 
 103950000  -39.723115      66.780199      27.057083      298.71164     -0.31201974     0.0099803416 
 103960000  -41.672161      67.453278      25.781117      301.72236      0.92967009     0.0099803416 
 103970000  -18.784185      58.305895      39.52171       260.80559      0.98823475     0.0099803416 
 103980000  -41.585599      71.679938      30.094339      320.62845      1.4601653      0.0099803416 
 103990000  -31.030929      68.89258       37.861651      308.16044      0.39793249     0.0099803416 
 104000000  -25.954047      77.481092      51.527045      346.57734     -1.8873645      0.0099803416 
 104010000  -44.007677      79.86208       35.854403      357.22764      0.26017661     0.0099803416 
 104020000  -34.143395      66.722685      32.57929       298.45438     -1.5672905      0.0099803416 
 104030000  -30.001647      74.682552      44.680905      334.05931      2.1237982      0.0099803416 
 104040000  -15.403003      61.067705      45.664702      273.15933     -2.9652054      0.0099803416 
 104050000  -8.9658754      60.371548      51.405672      270.04538     -0.47184962     0.0099803416 
 104060000  -28.601338      64.240281      35.638942      287.35044      0.44081491     0.0099803416 
 104070000  -30.224348      60.159091      29.934743      269.09504      0.65760868     0.0099803416 
 104080000  -33.271945      63.189712      29.917767      282.65118      0.56375408     0.0099803416 
 104090000  -27.37631       79.392656      52.016346      355.12788      0.36484151     0.0099803416 
 104100000  -27.432412      65.074371      37.641959      291.08137      0.65896636     0.0099803416 
 104110000  -21.870774      73.601448      51.730674      329.22347      1.0526971      0.0099803416 
 104120000  -8.641439       58.872854      50.231415      263.34163     -0.96537781     0.0099803416 
 104130000  -28.837205      66.805597      37.968392      298.82524      0.92576786     0.0099803416 
 104140000  -28.762178      73.884932      45.122754      330.49151      1.3023315      0.0099803416 
 104150000  -20.814187      57.254312      36.440124      256.1018       0.97870368     0.0099803416 
 104160000  -29.77819       61.71881       31.94062       276.07176     -0.37150403     0.0099803416 
 104170000  -27.027395      64.039876      37.012481      286.45402     -0.16413297     0.0099803416 
 104180000  -18.701977      61.811254      43.109276      276.48526     -0.0031594115   0.0099803416 
 104190000  -8.8140637      62.741868      53.927805      280.64795     -1.6966753      0.0099803416 
 104200000  -25.071329      58.638164      33.566835      262.29185      1.2071141      0.0099803416 
 104210000  -28.744198      69.830414      41.086216      312.35543      1.6076725      0.0099803416 
 104220000  -22.602958      69.473204      46.870247      310.7576       0.012490521    0.0099803416 
 104230000  -21.667724      69.139802      47.472078      309.26628     -1.8159259      0.0099803416 
 104240000  -20.269162      61.682955      41.413793      275.91138      0.78333669     0.0099803416 
 104250000  -19.229292      71.317919      52.088627      319.00912     -0.29584433     0.0099803416 
 104260000  -21.610748      70.033832      48.423084      313.26532     -1.2963068      0.0099803416 
 104270000  -21.136742      58.216553      37.079811      260.40596     -0.23268037     0.0099803416 
 104280000  -14.245847      69.004937      54.75909       308.66302      0.15632934     0.0099803416 
 104290000  -8.0577025      63.76884       55.711138      285.24166     -0.60396617     0.0099803416 
 104300000  -22.828008      75.57234       52.744332      338.03939      0.14427231     0.0099803416 
 104310000  -15.370731      70.887456      55.516724      317.08363      1.611412       0.0099803416 
 104320000  -24.368699      71.211298      46.842599      318.5322       0.81415066     0.0099803416 
 104330000  -28.628443      68.801877      40.173434      307.75472      0.043456205    0.0099803416 
 104340000  -4.730682       65.160046      60.429364      291.4646      -0.77833114     0.0099803416 
 104350000  -30.306336      61.852971      31.546634      276.67187      1.1151816      0.0099803416 
 104360000  -31.770973      71.454058      39.683085      319.61808      1.6454031      0.0099803416 
 104370000  -30.795046      72.097973      41.302926      322.49834      0.71356667     0.0099803416 
 104380000  -26.603858      63.395859      36.792001      283.57329     -2.6377853      0.0099803416 
 104390000  -26.045419      70.37472       44.329301      314.79014      1.6774749      0.0099803416 
 104400000  -27.853902      77.84727       49.993368      348.21528      1.6250871      0.0099803416 
 104410000  -20.989785      55.284758      34.294973      247.29188     -2.9938194      0.0099803416 
 104420000  -33.635829      65.005847      31.370018      290.77486     -0.74946926     0.0099803416 
 104430000  -19.631773      62.750375      43.118602      280.686       -1.2732227      0.0099803416 
 104440000  -24.650871      63.487927      38.837056      283.98512     -1.5299337      0.0099803416 
 104450000  -11.099944      64.690781      53.590837      289.36555      0.39574185     0.0099803416 
 104460000  -22.032785      61.671562      39.638777      275.86042      0.21311431     0.0099803416 
 104470000  -12.369203      62.072656      49.703453      277.65453     -1.656085       0.0099803416 
 104480000  -13.211684      68.600717      55.389032      306.85492     -0.057705163    0.0099803416 
 104490000  -25.080299      64.243215      39.162916      287.36356      0.61951677     0.0099803416 
 104500000  -17.384715      76.576076      59.191361      342.52916      0.046973141    0.0099803416 
 104510000  -9.214252       66.105598      56.891345      295.69411     -1.8396646      0.0099803416 
 104520000  -14.887836      72.76816       57.880324      325.49613     -0.77877521     0.0099803416 
 104530000  -23.011339      53.177214      30.165875      237.86471      1.8006092      0.0099803416 
 104540000  -8.0535771      71.702158      63.648581      320.72784      1.0532343      0.0099803416 
 104550000  -26.396266      62.042413      35.646147      277.51925      0.05109466     0.0099803416 
 104560000  -18.911174      69.007761      50.096587      308.67565     -0.57656038     0.0099803416 
 104570000  -7.3476399      69.82156       62.47392       312.31582     -0.2950253      0.0099803416 
 104580000  -30.87909       65.476688      34.597598      292.88096     -0.068533247    0.0099803416 
 104590000  -26.466634      70.138937      43.672303      313.73547      0.62131616     0.0099803416 
 104600000  -13.294461      71.135483      57.841021      318.19307      1.4241573      0.0099803416 
 104610000  -22.700533      78.718242      56.017709      352.11119      0.77947866     0.0099803416 
 104620000  -21.053395      67.015288      45.961893      299.7632       0.21896281     0.0099803416 
 104630000  -23.177283      68.934293      45.75701       308.34702      0.67921269     0.0099803416 
 104640000  -40.444696      70.784761      30.340065      316.62427      2.0132436      0.0099803416 
 104650000  -26.194617      63.562237      37.36762       284.31751      0.075097446    0.0099803416 
 104660000  -32.205089      63.842531      31.637442      285.57128     -0.91322912     0.0099803416 
 104670000  -29.123774      77.032045      47.908272      344.56873     -0.79806915     0.0099803416 
 104680000  -19.079181      67.691832      48.612651      302.78943      0.37807475     0.0099803416 
 104690000  -9.2680899      59.949786      50.681696      268.15881     -1.302183       0.0099803416 
 104700000  -15.490785      66.648317      51.157532      298.12172     -2.6053116      0.0099803416 
 104710000  -16.600849      62.542297      45.941448      279.75526     -1.0453272      0.0099803416 
 104720000  -30.804911      62.080887      31.275976      277.69135     -0.35049814     0.0099803416 
 104730000  -33.466523      70.943987      37.477464      317.3365      -1.3245186      0.0099803416 
 104740000  -19.737207      67.676463      47.939256      302.72068     -1.6764049      0.0099803416 
 104750000  -24.186154      65.214227      41.028073      291.70696     -2.0727549      0.0099803416 
 104760000  -22.708666      70.417948      47.709282      314.9835      -0.22596004     0.0099803416 
 104770000  -26.228743      59.381382      33.152639      265.61631     -0.66299267     0.0099803416 
 104780000  -22.167466      62.348794      40.181329      278.88971     -2.0128069      0.0099803416 
 104790000  -20.532546      63.456799      42.924254      283.84588      0.6911634      0.0099803416 
 104800000  -22.179231      66.81034       44.631109      298.84646      0.16567766     0.0099803416 
 104810000  -12.066908      65.00268       52.935772      290.76069      0.21007174     0.0099803416 
 104820000  -33.485664      60.019652      26.533987      268.47132     -2.0438414      0.0099803416 
 104830000  -27.114253      74.816963      47.70271       334.66054     -1.7562998      0.0099803416 
 104840000  -42.499806      70.236308      27.736503      314.17101      1.1149693      0.0099803416 
 104850000  -30.027537      75.533829      45.506292      337.86712     -0.067111821    0.0099803416 
 104860000  -24.84043       55.464446      30.624015      248.09563     -0.31041839     0.0099803416 
 104870000  -32.785831      76.280788      43.494957      341.20832     -1.6072325      0.0099803416 
 104880000  -31.819202      61.269771      29.450569      274.06318      0.47751755     0.0099803416 
 104890000  -32.017235      62.361194      30.343959      278.94518     -0.12714672     0.0099803416 
 104900000  -32.422099      67.318921      34.896822      301.12137      0.46074307     0.0099803416 
 104910000  -17.351166      54.601942      37.250776      244.2376      -1.608365       0.0099803416 
 104920000  -31.428105      62.945657      31.517553      281.55952     -2.0119099      0.0099803416 
 104930000  -24.86639       67.359561      42.493171      301.30316     -2.6439493      0.0099803416 
 104940000  -11.082785      65.910316      54.827531      294.8206       0.17587494     0.0099803416 
 104950000  -21.44336       65.998378      44.555018      295.21451     -0.52719254     0.0099803416 
 104960000  -14.897554      81.409077      66.511523      364.14744      0.57964727     0.0099803416 
 104970000  -21.304808      64.319665      43.014857      287.70553     -0.36677299     0.0099803416 
 104980000  -10.140219      57.293796      47.153578      256.27842      0.93033857     0.0099803416 
 104990000  -12.799316      67.322554      54.523238      301.13763     -0.67123912     0.0099803416 
 105000000  -25.303639      66.548375      41.244735      297.67467     -0.0331884      0.0099803416 
Loop time of 6066.55 on 4 procs for 100000000 steps with 76 atoms

Performance: 14242.034 ns/day, 0.002 hours/ns, 16483.835 timesteps/s, 1.253 Matom-step/s
99.6% CPU use with 4 MPI tasks x 1 OpenMP threads

MPI task timing breakdown:
Section |  min time  |  avg time  |  max time  |%varavg| %total
---------------------------------------------------------------
Pair    | 691.54     | 1831.6     | 2739.2     |1775.2 | 30.19
Bond    | 57.248     | 163.31     | 271.79     | 609.3 |  2.69
Neigh   | 3.5405     | 3.5631     | 3.5824     |   0.8 |  0.06
Comm    | 2921.9     | 3961.9     | 5232.9     |1356.9 | 65.31
Output  | 0.76741    | 1.1435     | 2.2609     |  60.3 |  0.02
Modify  | 36.544     | 67.196     | 98.348     | 271.4 |  1.11
Other   |            | 37.82      |            |       |  0.62

Nlocal:             19 ave          58 max           4 min
Histogram: 3 0 0 0 0 0 0 0 0 1
Nghost:          79.25 ave          99 max          66 min
Histogram: 2 0 0 0 0 1 0 0 0 1
Neighs:         158.25 ave         526 max           5 min
Histogram: 2 1 0 0 0 0 0 0 0 1

Total # of neighbors = 633
Ave neighs/atom = 8.3289474
Ave special neighs/atom = 5.6842105
Neighbor list builds = 88948
Dangerous builds = 0

write_data outputs/${tag}_final.data
write_data outputs/7LYJ_aso_bind_final.data
System init for write_data ...
Generated 0 of 6 mixed pair_coeff terms from geometric mixing rule
Total wall time: 1:46:08
