
# --- Force field -------------------------------------------------
bond_style  harmonic
bond_coeff  1 7.5 5.9

angle_style harmonic
angle_coeff 1 5.0 150.0

pair_style  hybrid/overlay lj/cut 10.0 base/rna 18.0
pair_modify shift yes

pair_coeff * * lj/cut 2.0 8.9089871814

pair_coeff 1 1 base/rna 0.00000 3.0 13.8 1.5 0.5 1.8326 0.9425 1.8326 1.1345
pair_coeff 1 2 base/rna 0.00000 3.0 13.8 1.5 0.5 1.8326 0.9425 1.8326 1.1345
pair_coeff 1 3 base/rna 0.00000 3.0 13.8 1.5 0.5 1.8326 0.9425 1.8326 1.1345
pair_coeff 1 4 base/rna 3.33333 3.0 13.8 1.5 0.5 1.8326 0.9425 1.8326 1.1345
pair_coeff 2 2 base/rna 0.00000 3.0 13.8 1.5 0.5 1.8326 0.9425 1.8326 1.1345
pair_coeff 2 3 base/rna 5.00000 3.0 13.8 1.5 0.5 1.8326 0.9425 1.8326 1.1345
pair_coeff 2 4 base/rna 0.00000 3.0 13.8 1.5 0.5 1.8326 0.9425 1.8326 1.1345
pair_coeff 3 3 base/rna 0.00000 3.0 13.8 1.5 0.5 1.8326 0.9425 1.8326 1.1345
pair_coeff 3 4 base/rna 3.33333 3.0 13.8 1.5 0.5 1.8326 0.9425 1.8326 1.1345
pair_coeff 4 4 base/rna 0.00000 3.0 13.8 1.5 0.5 1.8326 0.9425 1.8326 1.1345

# --- Minimization ------------------------------------------------
minimize 1.0e-4 1.0e-6 1000 10000

CITE-CITE-CITE-CITE-CITE-CITE-CITE-CITE-CITE-CITE-CITE-CITE-CITE

Your simulation uses code contributions which should be cited:

- Type Label Framework: https://doi.org/10.1021/acs.jpcb.3c08419

@Article{Gissinger24,
 author = {Jacob R. Gissinger, Ilia Nikiforov, Yaser Afshar, Brendon Waters, Moon-ki Choi, Daniel S. Karls, Alexander Stukowski, Wonpil Im, Hendrik Heinz, Axel Kohlmeyer, and Ellad B. Tadmor},
 title = {Type Label Framework for Bonded Force Fields in LAMMPS},
 journal = {J. Phys. Chem. B},
 year =    2024,
 volume =  128,
 number =  13,
 pages =   {3282–-3297}
}

CITE-CITE-CITE-CITE-CITE-CITE-CITE-CITE-CITE-CITE-CITE-CITE-CITE

Switching to 'neigh_modify every 1 delay 0 check yes' setting during minimization
Generated 0 of 6 mixed pair_coeff terms from geometric mixing rule
Neighbor list info ...
  update: every = 1 steps, delay = 0 steps, check = yes
  max neighbors/atom: 2000, page size: 100000
  master list distance cutoff = 33
  ghost atom cutoff = 33
  binsize = 16.5, bins = 46 46 46
  2 neighbor lists, perpetual/occasional/extra = 2 0 0
  (1) pair lj/cut, perpetual, trim from (2)
      attributes: half, newton on, cut 25
      pair build: trim
      stencil: none
      bin: none
  (2) pair base/rna, perpetual
      attributes: half, newton on
      pair build: half/bin/newton
      stencil: half/bin/3d
      bin: standard
Per MPI rank memory allocation (min/avg/max) = 8.46 | 8.46 | 8.461 Mbytes
   Step          Temp          E_pair         E_mol          TotEng         Press     
         0   0              2323.8455      1148.553       3472.3985      1.7046522    
        61   0             -105.29995      1093.1268      987.82687     -0.0013445054 
Loop time of 0.00765553 on 16 procs for 61 steps with 1066 atoms

69.7% CPU use with 16 MPI tasks x 1 OpenMP threads

Minimization stats:
  Stopping criterion = energy tolerance
  Energy initial, next-to-last, final = 
       3472.3985311538   987.898855128523   987.826874846714
  Force two-norm initial, final = 5888.4578 1.5596205
  Force max component initial, final = 2667.2637 0.35717029
  Final line search alpha, max atom move = 0.25451653 0.090905743
  Iterations, force evaluations = 61 76

MPI task timing breakdown:
Section |  min time  |  avg time  |  max time  |%varavg| %total
---------------------------------------------------------------
Pair    | 0.0014208  | 0.0018699  | 0.0027924  |   0.9 | 24.43
Bond    | 8.3282e-05 | 0.00017487 | 0.00025196 |   0.0 |  2.28
Neigh   | 0          | 0          | 0          |   0.0 |  0.00
Comm    | 0.0029815  | 0.0038399  | 0.004386   |   0.6 | 50.16
Output  | 0          | 0          | 0          |   0.0 |  0.00
Modify  | 0          | 0          | 0          |   0.0 |  0.00
Other   |            | 0.001771   |            |       | 23.13

Nlocal:         66.625 ave          98 max          30 min
Histogram: 3 0 1 2 0 2 2 2 2 2
Nghost:          81.75 ave         125 max          31 min
Histogram: 2 1 1 3 0 1 2 2 1 3
Neighs:        142.375 ave         347 max          39 min
Histogram: 3 2 5 2 0 0 1 2 0 1

Total # of neighbors = 2278
Ave neighs/atom = 2.1369606
Ave special neighs/atom = 4.8630394
Neighbor list builds = 0
Dangerous builds = 0
reset_timestep 0

# --- Output setup ------------------------------------------------
dump d1 all custom 50000 outputs/${tag}.lammpstrj id mol type q xu yu zu
dump d1 all custom 50000 outputs/7LYJ_aso_n100.lammpstrj id mol type q xu yu zu
dump_modify d1 sort id

thermo_style custom step pe ke etotal temp press density
thermo       10000
thermo_modify flush yes

variable vpe equal pe
variable vke equal ke
variable vT  equal temp
variable vE  equal etotal
variable vRg equal gyration(all)

fix favg all ave/time 10000 10 100000 v_vpe v_vke v_vT v_vE v_vRg     file outputs/thermo_${tag}_averaged.dat
fix favg all ave/time 10000 10 100000 v_vpe v_vke v_vT v_vE v_vRg     file outputs/thermo_7LYJ_aso_n100_averaged.dat

# --- NVT equilibration (50 ns) -----------------------------------
velocity all create ${T_target} 27580 rot yes dist gaussian
velocity all create 300 27580 rot yes dist gaussian

fix fxlang all langevin ${T_target} ${T_target} 1000.0 91650
fix fxlang all langevin 300 ${T_target} 1000.0 91650
fix fxlang all langevin 300 300 1000.0 91650
fix fxnve  all nve
fix recenter all momentum 1000 linear 1 1 1

run 5000000
Generated 0 of 6 mixed pair_coeff terms from geometric mixing rule
Per MPI rank memory allocation (min/avg/max) = 7.35 | 7.351 | 7.351 Mbytes
   Step         PotEng         KinEng         TotEng          Temp          Press         Density    
         0   987.82687      952.36881      1940.1957      300            0.10184944     0.0013773654 
     10000   459.07356      966.58117      1425.6547      304.47695      0.0090770627   0.0013773654 
     20000   448.87125      987.9694       1436.8406      311.21433      0.049909234    0.0013773654 
     30000   479.8282       990.9061       1470.7343      312.1394      -0.016273312    0.0013773654 
     40000   459.17862      971.66963      1430.8482      306.07984     -0.065907041    0.0013773654 
     50000   487.87         929.28414      1417.1541      292.72823      0.016301383    0.0013773654 
     60000   452.83146      1009.3956      1462.227       317.96366     -0.013509641    0.0013773654 
     70000   494.48718      999.25027      1493.7375      314.76785     -0.010216125    0.0013773654 
     80000   483.47451      954.66808      1438.1426      300.72428      0.047813878    0.0013773654 
     90000   458.96167      937.08291      1396.0446      295.18488      0.044986519    0.0013773654 
    100000   485.10328      916.71525      1401.8185      288.76899     -0.012360011    0.0013773654 
    110000   518.47393      976.12385      1494.5978      307.48293      0.0032789691   0.0013773654 
    120000   474.39344      942.29614      1416.6896      296.82707      0.017627713    0.0013773654 
    130000   505.81909      952.49192      1458.311       300.03878      0.0051135441   0.0013773654 
    140000   467.65841      970.88173      1438.5401      305.83164      0.0042941067   0.0013773654 
    150000   499.76202      978.25256      1478.0146      308.15348      0.03293944     0.0013773654 
    160000   464.08059      922.23357      1386.3142      290.50728      0.030485162    0.0013773654 
    170000   474.18149      977.89359      1452.0751      308.04041      0.027456361    0.0013773654 
    180000   478.02155      921.76836      1399.7899      290.36073      0.015149975    0.0013773654 
    190000   461.45264      988.86704      1450.3197      311.49709      0.058382139    0.0013773654 
    200000   490.87168      956.66952      1447.5412      301.35474      0.035991639    0.0013773654 
    210000   458.38669      952.36402      1410.7507      299.99849      0.02926529     0.0013773654 
    220000   446.27155      932.72364      1378.9952      293.81169      0.035901052    0.0013773654 
    230000   479.61237      946.30964      1425.922       298.09134      0.048603493    0.0013773654 
    240000   450.97549      971.19816      1422.1736      305.93132      0.034943088    0.0013773654 
    250000   490.74302      918.60289      1409.3459      289.3636      -0.0012450193   0.0013773654 
    260000   439.72372      1002.7927      1442.5164      315.88374      0.052778122    0.0013773654 
    270000   462.65018      987.06841      1449.7186      310.93051     -0.010704955    0.0013773654 
    280000   443.49702      952.68462      1396.1816      300.09948     -0.055810082    0.0013773654 
    290000   460.92182      957.04832      1417.9701      301.47406      0.019457205    0.0013773654 
    300000   413.65128      979.81405      1393.4653      308.64536      0.020746233    0.0013773654 
    310000   455.02767      995.91795      1450.9456      313.71815     -0.010066788    0.0013773654 
    320000   455.72216      980.6661       1436.3883      308.91376     -0.0094120581   0.0013773654 
    330000   476.25635      951.98541      1428.2418      299.87923     -0.015341019    0.0013773654 
    340000   452.94639      926.39223      1379.3386      291.81727      0.012128586    0.0013773654 
    350000   458.8285       945.75854      1404.587       297.91774      0.012491141    0.0013773654 
    360000   439.85238      954.28488      1394.1373      300.60357     -0.0029867962   0.0013773654 
    370000   478.09107      914.97026      1393.0613      288.2193       0.0054049279   0.0013773654 
    380000   422.64769      949.27154      1371.9192      299.02435      0.0057887062   0.0013773654 
    390000   463.98872      950.72142      1414.7101      299.48107     -0.021987548    0.0013773654 
    400000   493.0379       1036.2758      1529.3137      326.43102     -0.066754513    0.0013773654 
    410000   439.6798       981.23686      1420.9167      309.09355      0.046152102    0.0013773654 
    420000   457.40313      890.11956      1347.5227      280.39124      0.0038467826   0.0013773654 
    430000   428.18704      957.20585      1385.3929      301.52369     -0.065537823    0.0013773654 
    440000   481.55772      939.59431      1421.152       295.97598     -0.029923596    0.0013773654 
    450000   491.6542       924.70459      1416.3588      291.28566      0.00048303886  0.0013773654 
    460000   464.53758      953.4638       1418.0014      300.34493      0.036010577    0.0013773654 
    470000   479.30361      964.98626      1444.2899      303.97455      0.0024750148   0.0013773654 
    480000   444.49972      983.31758      1427.8173      309.74899     -0.0064661679   0.0013773654 
    490000   480.26482      952.82428      1433.0891      300.14347     -0.0018802005   0.0013773654 
    500000   472.27214      909.82546      1382.0976      286.59867      0.011393464    0.0013773654 
    510000   477.57194      909.39577      1386.9677      286.46332      0.0019294691   0.0013773654 
    520000   450.7441       960.47146      1411.2156      302.55237      0.060713093    0.0013773654 
    530000   451.60732      962.23939      1413.8467      303.10927      0.019778336    0.0013773654 
    540000   444.7642       951.60961      1396.3738      299.76085      0.010667529    0.0013773654 
    550000   428.2477       960.02807      1388.2758      302.4127       0.039299557    0.0013773654 
    560000   421.53398      967.06846      1388.6024      304.63045     -0.034272113    0.0013773654 
    570000   462.74317      980.09518      1442.8383      308.73392      0.0080666363   0.0013773654 
    580000   480.18704      946.46971      1426.6567      298.14176      0.018782633    0.0013773654 
    590000   461.91489      958.14877      1420.0637      301.82071      0.057236808    0.0013773654 
    600000   500.56736      941.46807      1442.0354      296.56622     -0.00033055623  0.0013773654 
    610000   484.75165      955.16894      1439.9206      300.88205      0.073808822    0.0013773654 
    620000   466.69562      1013.9805      1480.6761      319.40793      0.048757338    0.0013773654 
    630000   477.43138      933.61002      1411.0414      294.09091     -0.0024830053   0.0013773654 
    640000   464.56593      920.82838      1385.3943      290.06464     -0.00025361116  0.0013773654 
    650000   476.18238      928.78104      1404.9634      292.56976     -0.028127306    0.0013773654 
    660000   467.32958      946.23894      1413.5685      298.06907      0.049400788    0.0013773654 
    670000   480.46007      925.92556      1406.3856      291.67027      0.006902977    0.0013773654 
    680000   451.41322      903.24995      1354.6632      284.52736     -0.010115175    0.0013773654 
    690000   452.20191      953.2616       1405.4635      300.28123      0.025425288    0.0013773654 
    700000   446.13885      956.51985      1402.6587      301.30759      0.014197817    0.0013773654 
    710000   453.12235      944.79781      1397.9202      297.6151      -0.042323198    0.0013773654 
    720000   495.19299      973.11167      1468.3047      306.53408      0.0082724953   0.0013773654 
    730000   464.14918      924.64634      1388.7955      291.26731      0.06749243     0.0013773654 
    740000   503.88771      932.06257      1435.9503      293.60345      0.042923585    0.0013773654 
    750000   428.23216      912.18105      1340.4132      287.34069     -0.045401731    0.0013773654 
    760000   412.67928      938.64565      1351.3249      295.67715     -0.011153345    0.0013773654 
    770000   429.48433      984.08279      1413.5671      309.99003      0.019450642    0.0013773654 
    780000   448.51312      931.38105      1379.8942      293.38877      0.069097029    0.0013773654 
    790000   475.37746      902.91612      1378.2936      284.4222       0.011302748    0.0013773654 
    800000   461.01495      972.81006      1433.825       306.43907      0.00076870529  0.0013773654 
    810000   466.41383      964.51865      1430.9325      303.82725      0.019773107    0.0013773654 
    820000   445.3512       955.97666      1401.3279      301.13649      0.075306982    0.0013773654 
    830000   482.34535      965.87677      1448.2221      304.25506      0.02432715     0.0013773654 
    840000   459.17457      962.20639      1421.381       303.09888      0.055372557    0.0013773654 
    850000   483.58029      966.09489      1449.6752      304.32377      0.045467506    0.0013773654 
    860000   432.48813      954.53505      1387.0232      300.68237     -0.0035176847   0.0013773654 
    870000   484.97019      944.22135      1429.1915      297.43352      0.049010612    0.0013773654 
    880000   458.61743      959.23638      1417.8538      302.16331     -0.026038085    0.0013773654 
    890000   437.20635      990.81188      1428.0182      312.10972      0.05892209     0.0013773654 
    900000   489.53877      948.83944      1438.3782      298.88823     -0.031168346    0.0013773654 
    910000   493.04731      955.55864      1448.606       301.00481      0.0051668801   0.0013773654 
    920000   462.21703      962.28245      1424.4995      303.12284      0.041298111    0.0013773654 
    930000   478.06931      950.29476      1428.3641      299.34667      0.013229385    0.0013773654 
    940000   458.52783      937.00701      1395.5348      295.16097     -0.013021164    0.0013773654 
    950000   482.76806      947.42905      1430.1971      298.44395     -0.027402577    0.0013773654 
    960000   499.00411      985.51939      1484.5235      310.44257     -0.0053266549   0.0013773654 
    970000   466.54296      972.91194      1439.4549      306.47117      0.030798634    0.0013773654 
    980000   490.944        942.46975      1433.4138      296.88176      0.0178822      0.0013773654 
    990000   445.57335      962.64616      1408.2195      303.2374       0.01994949     0.0013773654 
   1000000   476.77462      947.24849      1424.0231      298.38708      0.038035042    0.0013773654 
   1010000   467.21064      982.814        1450.0246      309.59036      0.002377922    0.0013773654 
   1020000   498.16385      902.77536      1400.9392      284.37786      0.031631363    0.0013773654 
   1030000   452.9523       967.42945      1420.3817      304.74416      0.016133984    0.0013773654 
   1040000   472.26622      950.26461      1422.5308      299.33717      0.02075969     0.0013773654 
   1050000   441.42096      964.25147      1405.6724      303.74309     -0.018950627    0.0013773654 
   1060000   493.64094      954.35045      1447.9914      300.62423      0.0089361921   0.0013773654 
   1070000   471.32449      924.97434      1396.2988      291.37063      0.039754014    0.0013773654 
   1080000   462.1048       936.91216      1399.017       295.13109      0.0064798224   0.0013773654 
   1090000   457.47814      996.96285      1454.441       314.0473      -0.01400537     0.0013773654 
   1100000   471.40512      990.54851      1461.9536      312.02676     -0.060914266    0.0013773654 
   1110000   496.51279      1011.231       1507.7438      318.54183     -0.038444728    0.0013773654 
   1120000   468.24476      942.37732      1410.6221      296.85264     -0.0046543637   0.0013773654 
   1130000   491.27343      998.1114       1489.3848      314.4091      -0.046999709    0.0013773654 
   1140000   460.55189      959.66811      1420.22        302.29931      0.039751363    0.0013773654 
   1150000   479.20721      906.3357       1385.5429      285.49939      0.0062394341   0.0013773654 
   1160000   456.44762      952.85427      1409.3019      300.15292      0.036963591    0.0013773654 
   1170000   491.44189      981.98716      1473.429       309.3299       0.021183876    0.0013773654 
   1180000   488.50539      915.03027      1403.5357      288.23821     -0.03870019     0.0013773654 
   1190000   488.3773       962.00651      1450.3838      303.03592     -0.0075311379   0.0013773654 
   1200000   470.31184      939.10491      1409.4167      295.82182     -0.048413502    0.0013773654 
   1210000   490.12897      925.37276      1415.5017      291.49614     -0.029087295    0.0013773654 
   1220000   485.64426      919.19138      1404.8356      289.54898      0.032406163    0.0013773654 
   1230000   462.95646      936.19282      1399.1493      294.9045      -0.026622367    0.0013773654 
   1240000   484.21269      950.56628      1434.779       299.43219     -0.018607993    0.0013773654 
   1250000   434.17577      938.32291      1372.4987      295.57548      0.030157545    0.0013773654 
   1260000   466.41612      947.15707      1413.5732      298.35828      0.0044365671   0.0013773654 
   1270000   481.6405       986.41318      1468.0537      310.72411     -0.00025723609  0.0013773654 
   1280000   477.46734      956.47093      1433.9383      301.29218      0.014506167    0.0013773654 
   1290000   450.34455      947.90881      1398.2534      298.59508      0.003238021    0.0013773654 
   1300000   452.94002      989.34091      1442.2809      311.64636     -0.035583295    0.0013773654 
   1310000   439.14044      959.51994      1398.6604      302.25264     -0.027156593    0.0013773654 
   1320000   447.95965      880.25745      1328.2171      277.28463      0.035183143    0.0013773654 
   1330000   438.41403      984.7527       1423.1667      310.20105     -0.035192085    0.0013773654 
   1340000   465.36895      906.96183      1372.3308      285.69662     -0.047090544    0.0013773654 
   1350000   473.70754      955.37484      1429.0824      300.94691      0.057577581    0.0013773654 
   1360000   459.20195      955.67924      1414.8812      301.0428       0.021598485    0.0013773654 
   1370000   411.42402      1011.0088      1422.4328      318.47183      0.0071769509   0.0013773654 
   1380000   443.77045      944.94303      1388.7135      297.66085     -0.038210798    0.0013773654 
   1390000   392.66777      911.24322      1303.911       287.04527     -0.0057796985   0.0013773654 
   1400000   458.48558      977.69999      1436.1856      307.97942     -0.023472307    0.0013773654 
   1410000   472.30463      930.49536      1402.8         293.10978      0.023052121    0.0013773654 
   1420000   429.81363      951.04135      1380.855       299.58185      0.04756815     0.0013773654 
   1430000   454.0236       959.18491      1413.2085      302.1471      -0.012206588    0.0013773654 
   1440000   462.77741      945.11121      1407.8886      297.71383      0.016747468    0.0013773654 
   1450000   463.53368      905.19722      1368.7309      285.14076      0.0060027153   0.0013773654 
   1460000   443.70738      912.55997      1356.2673      287.46005      0.049096904    0.0013773654 
   1470000   472.06723      938.08983      1410.1571      295.50206     -0.046791855    0.0013773654 
   1480000   477.77629      968.71164      1446.4879      305.14806      0.033750015    0.0013773654 
   1490000   461.63968      958.7555       1420.3952      302.01183     -0.010216769    0.0013773654 
   1500000   412.67097      921.08204      1333.753       290.14454     -0.01167477     0.0013773654 
   1510000   466.6599       963.60691      1430.2668      303.54005      0.012642216    0.0013773654 
   1520000   440.97674      932.96086      1373.9376      293.88642     -0.017858225    0.0013773654 
   1530000   451.86862      914.13266      1366.0013      287.95546      0.022949679    0.0013773654 
   1540000   449.55855      957.91957      1407.4781      301.74851      0.0040715263   0.0013773654 
   1550000   448.63088      911.34534      1359.9762      287.07744     -0.0014739016   0.0013773654 
   1560000   448.25568      977.34692      1425.6026      307.8682      -0.022138998    0.0013773654 
   1570000   472.14572      926.4815       1398.6272      291.84539      0.0036029182   0.0013773654 
   1580000   457.74281      985.27172      1443.0145      310.36455     -0.01427803     0.0013773654 
   1590000   477.16532      952.3551       1429.5204      299.99568      0.057892229    0.0013773654 
   1600000   453.46241      952.36719      1405.8296      299.99949     -0.0023007586   0.0013773654 
   1610000   451.65329      965.73198      1417.3853      304.20945      0.067198552    0.0013773654 
   1620000   465.77974      982.68114      1448.4609      309.5485       0.016212895    0.0013773654 
   1630000   472.36505      958.04262      1430.4077      301.78727     -0.041882419    0.0013773654 
   1640000   466.07736      927.85874      1393.9361      292.27923     -0.013111991    0.0013773654 
   1650000   471.67173      898.4763       1370.148       283.02364      0.0099527486   0.0013773654 
   1660000   481.44703      988.65665      1470.1037      311.43082      0.0070759199   0.0013773654 
   1670000   431.10222      949.40926      1380.5115      299.06773      0.0099035254   0.0013773654 
   1680000   468.3028       912.58739      1380.8902      287.46869      0.0034479504   0.0013773654 
   1690000   445.86415      945.27501      1391.1392      297.76543      0.027220109    0.0013773654 
   1700000   450.91424      955.01544      1405.9297      300.8337       0.038153501    0.0013773654 
   1710000   537.34993      952.17295      1489.5229      299.9383       0.024523858    0.0013773654 
   1720000   434.1838       947.15151      1381.3353      298.35653      0.010209694    0.0013773654 
   1730000   478.93997      951.14284      1430.0828      299.61382      0.0060836508   0.0013773654 
   1740000   420.68848      974.5297       1395.2182      306.98077      0.0061433598   0.0013773654 
   1750000   442.89725      955.27026      1398.1675      300.91397      0.043478323    0.0013773654 
   1760000   447.174        958.4922       1405.6662      301.92889      0.0056525643   0.0013773654 
   1770000   495.08002      986.01958      1481.0996      310.60013      0.020976506    0.0013773654 
   1780000   441.89784      970.17298      1412.0708      305.60838      0.022459594    0.0013773654 
   1790000   457.22341      932.69765      1389.9211      293.80351      0.074248949    0.0013773654 
   1800000   465.17653      972.29145      1437.468       306.27571      0.053683653    0.0013773654 
   1810000   441.21398      961.63624      1402.8502      302.91928      0.056659733    0.0013773654 
   1820000   413.18815      911.30668      1324.4948      287.06526     -0.074885095    0.0013773654 
   1830000   463.3614       896.6494       1360.0108      282.44816      0.045463084    0.0013773654 
   1840000   434.17909      953.94653      1388.1256      300.49699      0.018919414    0.0013773654 
   1850000   457.35171      928.03316      1385.3849      292.33417      0.05918674     0.0013773654 
   1860000   429.31915      928.49068      1357.8098      292.47829      0.029768133    0.0013773654 
   1870000   417.86397      997.27328      1415.1373      314.14509     -0.0045284762   0.0013773654 
   1880000   448.48695      951.00354      1399.4905      299.56994      0.012580415    0.0013773654 
   1890000   464.40145      954.39146      1418.7929      300.63714      0.014222978    0.0013773654 
   1900000   450.92951      964.38982      1415.3193      303.78667      0.032093137    0.0013773654 
   1910000   489.16805      980.05983      1469.2279      308.72278      0.038232014    0.0013773654 
   1920000   471.58061      956.72574      1428.3063      301.37245     -0.029456111    0.0013773654 
   1930000   459.19817      967.7694       1426.9676      304.85125      0.055870948    0.0013773654 
   1940000   476.13578      984.55208      1460.6879      310.13786     -0.054238018    0.0013773654 
   1950000   449.32785      940.17258      1389.5004      296.15814      0.045124104    0.0013773654 
   1960000   447.07521      925.18349      1372.2587      291.43651     -0.025366786    0.0013773654 
   1970000   464.3173       978.13679      1442.4541      308.11702      0.010260557    0.0013773654 
   1980000   480.78895      969.90481      1450.6938      305.52391      0.056196323    0.0013773654 
   1990000   463.55768      951.20485      1414.7625      299.63335      0.033652856    0.0013773654 
   2000000   467.30525      915.30579      1382.611       288.325        0.026997694    0.0013773654 
   2010000   503.60262      933.2659       1436.8685      293.98251      0.066316204    0.0013773654 
   2020000   495.70785      984.7924       1480.5003      310.21356      0.0026564841   0.0013773654 
   2030000   486.32081      967.29099      1453.6118      304.70055      0.0054544863   0.0013773654 
   2040000   501.30136      955.11083      1456.4122      300.86375      0.038653881    0.0013773654 
   2050000   470.21146      946.43295      1416.6444      298.13018      0.022551511    0.0013773654 
   2060000   456.59018      909.02751      1365.6177      286.34732      0.045625682    0.0013773654 
   2070000   450.51176      954.91799      1405.4297      300.803        0.02385411     0.0013773654 
   2080000   436.9947       908.03697      1345.0317      286.03529      0.032079207    0.0013773654 
   2090000   455.572        987.94549      1443.5175      311.2068      -0.0017981975   0.0013773654 
   2100000   477.68308      982.17177      1459.8549      309.38805      0.025715702    0.0013773654 
   2110000   451.42765      972.34462      1423.7723      306.29246      0.00070018907  0.0013773654 
   2120000   443.81045      979.17957      1422.99        308.4455       0.051071232    0.0013773654 
   2130000   455.01541      946.11204      1401.1274      298.02909      0.010019372    0.0013773654 
   2140000   457.5571       952.15817      1409.7153      299.93365     -0.0015392498   0.0013773654 
   2150000   481.74763      964.29887      1446.0465      303.75802      0.01527409     0.0013773654 
   2160000   465.33319      934.10519      1399.4384      294.24689      0.085006747    0.0013773654 
   2170000   446.19392      968.01307      1414.207       304.928        0.03506372     0.0013773654 
   2180000   466.22351      934.63754      1400.861       294.41458      0.021380991    0.0013773654 
   2190000   454.57674      926.32823      1380.905       291.79711      0.0038148835   0.0013773654 
   2200000   472.8474       953.43308      1426.2805      300.33525      0.022304076    0.0013773654 
   2210000   485.95072      938.89881      1424.8495      295.75689     -0.038102928    0.0013773654 
   2220000   451.30493      947.86714      1399.1721      298.58196      0.013005142    0.0013773654 
   2230000   486.85498      947.0756       1433.9306      298.33262     -0.045005377    0.0013773654 
   2240000   449.75994      980.70486      1430.4648      308.92597      0.012048899    0.0013773654 
   2250000   465.24524      942.37131      1407.6166      296.85075     -0.02772297     0.0013773654 
   2260000   458.99861      951.5792       1410.5778      299.75127      0.015397409    0.0013773654 
   2270000   481.32649      912.54582      1393.8723      287.4556      -0.0020774591   0.0013773654 
   2280000   430.85409      921.89455      1352.7486      290.40049      0.018012249    0.0013773654 
   2290000   454.7028       937.32472      1392.0275      295.26105     -0.0056228112   0.0013773654 
   2300000   466.34761      932.08695      1398.4346      293.61113      0.045644561    0.0013773654 
   2310000   438.64697      954.70518      1393.3522      300.73597      0.022152826    0.0013773654 
   2320000   469.06734      956.44961      1425.5169      301.28547      0.018900721    0.0013773654 
   2330000   436.67448      1001.7074      1438.3819      315.54185      0.067339322    0.0013773654 
   2340000   470.63052      922.43064      1393.0612      290.56936     -0.041215863    0.0013773654 
   2350000   466.57664      940.50753      1407.0842      296.26365      0.013692611    0.0013773654 
   2360000   477.69791      959.57495      1437.2729      302.26996      0.080663802    0.0013773654 
   2370000   445.26127      934.83358      1380.0948      294.47633      0.028951169    0.0013773654 
   2380000   482.83864      972.82262      1455.6613      306.44303      0.052894122    0.0013773654 
   2390000   467.64755      930.19851      1397.8461      293.01627      0.018874615    0.0013773654 
   2400000   451.78482      953.9149       1405.6997      300.48702      0.033532122    0.0013773654 
   2410000   441.9406       955.32714      1397.2677      300.93188      0.011707076    0.0013773654 
   2420000   457.25487      947.79499      1405.0499      298.55923      0.047351443    0.0013773654 
   2430000   489.81499      976.98462      1466.7996      307.75408     -0.089944116    0.0013773654 
   2440000   422.67822      1000.7734      1423.4516      315.24764     -0.0035373545   0.0013773654 
   2450000   492.63639      939.24077      1431.8772      295.86461     -0.021383602    0.0013773654 
   2460000   492.99778      1002.9706      1495.9684      315.93976      0.053810753    0.0013773654 
   2470000   486.51092      913.1333       1399.6442      287.64066      0.029102386    0.0013773654 
   2480000   497.81871      965.62165      1463.4404      304.1747      -0.0015050451   0.0013773654 
   2490000   451.556        941.53554      1393.0915      296.58747     -0.0027511369   0.0013773654 
   2500000   465.88649      926.41003      1392.2965      291.82288      0.015244771    0.0013773654 
   2510000   461.25066      961.05291      1422.3036      302.73552      0.0017654173   0.0013773654 
   2520000   455.34637      917.61072      1372.9571      289.05106      0.035289853    0.0013773654 
   2530000   455.05002      957.03661      1412.0866      301.47038     -0.042791163    0.0013773654 
   2540000   479.3177       938.4054       1417.7231      295.60147     -0.033588449    0.0013773654 
   2550000   461.05674      988.13228      1449.189       311.26564      0.0035824774   0.0013773654 
   2560000   480.04514      977.50614      1457.5513      307.91836      0.045525513    0.0013773654 
   2570000   523.70922      937.58176      1461.291       295.34202      0.035241134    0.0013773654 
   2580000   466.84929      985.83182      1452.6811      310.54098     -0.0071556223   0.0013773654 
   2590000   458.2511       934.93161      1393.1827      294.50721     -0.005749105    0.0013773654 
   2600000   465.0614       950.0759       1415.1373      299.27772      0.0097339774   0.0013773654 
   2610000   474.5077       931.00905      1405.5168      293.27159      0.014923316    0.0013773654 
   2620000   472.39692      946.94984      1419.3468      298.293        0.023992632    0.0013773654 
   2630000   473.776        917.61859      1391.3946      289.05354      0.01312944     0.0013773654 
   2640000   436.63784      945.8912       1382.529       297.95953     -0.037344506    0.0013773654 
   2650000   480.11353      943.69883      1423.8124      297.26892      0.027889859    0.0013773654 
   2660000   480.29953      938.07166      1418.3712      295.49634     -0.012557689    0.0013773654 
   2670000   473.88245      938.99246      1412.8749      295.7864       0.042516739    0.0013773654 
   2680000   472.45174      951.71723      1424.169       299.79475      0.036105411    0.0013773654 
   2690000   458.78632      945.59042      1404.3767      297.86478      0.0033297541   0.0013773654 
   2700000   516.65882      932.92507      1449.5839      293.87514      0.015443072    0.0013773654 
   2710000   441.93958      944.14753      1386.0871      297.41026      0.0043591623   0.0013773654 
   2720000   463.97486      946.02225      1409.9971      298.00081      0.012809948    0.0013773654 
   2730000   468.42179      978.91432      1447.3361      308.36194      0.049515897    0.0013773654 
   2740000   433.64416      952.48015      1386.1243      300.03507     -0.041356773    0.0013773654 
   2750000   487.88546      932.16093      1420.0464      293.63444     -0.064628421    0.0013773654 
   2760000   481.78371      989.66738      1471.4511      311.7492       0.00059503332  0.0013773654 
   2770000   504.01794      886.74068      1390.7586      279.32687      0.029884214    0.0013773654 
   2780000   449.29994      955.80598      1405.1059      301.08272     -0.029319044    0.0013773654 
   2790000   474.7043       977.01933      1451.7236      307.76501      0.053979089    0.0013773654 
   2800000   464.6694       915.52309      1380.1925      288.39345     -0.015449036    0.0013773654 
   2810000   457.92471      947.70712      1405.6318      298.53155      0.032054797    0.0013773654 
   2820000   493.43727      952.05903      1445.4963      299.90242      0.010686978    0.0013773654 
   2830000   480.87044      959.40327      1440.2737      302.21588      0.010405717    0.0013773654 
   2840000   482.37011      954.00956      1436.3797      300.51684      0.020473092    0.0013773654 
   2850000   467.00185      963.10838      1430.1102      303.38301     -0.0017231396   0.0013773654 
   2860000   465.26706      927.70605      1392.9731      292.23113      0.0083268483   0.0013773654 
   2870000   445.13938      1001.422       1446.5613      315.45194     -0.014372758    0.0013773654 
   2880000   502.53539      942.36165      1444.897       296.8477       0.034666914    0.0013773654 
   2890000   484.19063      933.15255      1417.3432      293.9468      -0.0035042534   0.0013773654 
   2900000   449.1531       949.79498      1398.9481      299.18923      0.012028512    0.0013773654 
   2910000   479.32573      936.42414      1415.7499      294.97737      0.034741089    0.0013773654 
   2920000   466.36236      933.6223       1399.9847      294.09477     -0.029062627    0.0013773654 
   2930000   492.99593      931.58752      1424.5835      293.45381     -0.017890977    0.0013773654 
   2940000   512.42964      977.02766      1489.4573      307.76764      0.031557998    0.0013773654 
   2950000   483.88578      963.14013      1447.0259      303.39301      0.0058528445   0.0013773654 
   2960000   448.39761      954.46484      1402.8624      300.66026      0.034244578    0.0013773654 
   2970000   472.20527      935.33422      1407.5395      294.63404      0.052032918    0.0013773654 
   2980000   479.29587      962.3744       1441.6703      303.1518       0.062325563    0.0013773654 
   2990000   464.72824      928.63711      1393.3653      292.52442     -0.0025432063   0.0013773654 
   3000000   484.04932      931.68632      1415.7356      293.48493     -0.010640178    0.0013773654 
   3010000   456.24401      934.69465      1390.9387      294.43257      0.04558147     0.0013773654 
   3020000   436.58419      956.94539      1393.5296      301.44164     -0.0053661298   0.0013773654 
   3030000   456.70248      937.52571      1394.2282      295.32436      0.021545071    0.0013773654 
   3040000   453.94506      1029.9293      1483.8744      324.43188      0.0035682626   0.0013773654 
   3050000   482.89718      1004.5515      1487.4487      316.43776      0.0080110189   0.0013773654 
   3060000   461.78471      937.22838      1399.0131      295.2307       0.022202934    0.0013773654 
   3070000   446.37651      950.95637      1397.3329      299.55508      0.03790345     0.0013773654 
   3080000   441.55224      937.15663      1378.7089      295.2081       0.0035801106   0.0013773654 
   3090000   479.45008      947.93759      1427.3877      298.60415     -0.0055718335   0.0013773654 
   3100000   451.88676      961.55813      1413.4449      302.89467      0.081332878    0.0013773654 
   3110000   456.60679      979.27869      1435.8855      308.47672      0.05696842     0.0013773654 
   3120000   507.53651      903.35403      1410.8905      284.56015     -0.033305935    0.0013773654 
   3130000   471.01925      937.91194      1408.9312      295.44603      0.020817945    0.0013773654 
   3140000   484.15343      956.44945      1440.6029      301.28542      0.058738442    0.0013773654 
   3150000   449.66539      961.7062       1411.3716      302.94132     -0.0043673746   0.0013773654 
   3160000   448.68912      929.79485      1378.484       292.88911      0.041681385    0.0013773654 
   3170000   463.13877      946.72689      1409.8657      298.22277      0.042686566    0.0013773654 
   3180000   480.12434      1002.0137      1482.1381      315.63835      0.018734451    0.0013773654 
   3190000   436.08278      906.12117      1342.2039      285.43181     -0.059933112    0.0013773654 
   3200000   445.17742      981.80678      1426.9842      309.27308      0.0072956765   0.0013773654 
   3210000   450.69973      951.26463      1401.9644      299.65218      0.033872905    0.0013773654 
   3220000   458.66443      951.6169       1410.2813      299.76315      0.031050589    0.0013773654 
   3230000   464.10063      954.12619      1418.2268      300.55358      0.0052567734   0.0013773654 
   3240000   477.58108      953.91068      1431.4918      300.48569      0.063812974    0.0013773654 
   3250000   462.48299      954.69541      1417.1784      300.73289     -0.0050952586   0.0013773654 
   3260000   490.50931      973.30541      1463.8147      306.59511      0.054616145    0.0013773654 
   3270000   503.81894      932.73792      1436.5569      293.81619      0.038101943    0.0013773654 
   3280000   489.77351      983.61357      1473.3871      309.84222     -0.018385137    0.0013773654 
   3290000   467.82797      911.62224      1379.4502      287.16467      0.0080778238   0.0013773654 
   3300000   449.19773      955.90736      1405.1051      301.11466      0.0068909189   0.0013773654 
   3310000   477.19026      946.47859      1423.6688      298.14456      0.0195893      0.0013773654 
   3320000   463.99389      934.90235      1398.8962      294.498       -0.0065503353   0.0013773654 
   3330000   492.5192       930.14006      1422.6593      292.99785      0.051099188    0.0013773654 
   3340000   479.05998      917.43525      1396.4952      288.99579      0.0011677358   0.0013773654 
   3350000   452.16786      960.45098      1412.6188      302.54592      0.0006838157   0.0013773654 
   3360000   441.18742      964.19191      1405.3793      303.72432      0.023504338    0.0013773654 
   3370000   475.97717      966.56758      1442.5448      304.47267      0.015304668    0.0013773654 
   3380000   442.98909      967.05839      1410.0475      304.62727      0.0018360301   0.0013773654 
   3390000   482.94827      925.54992      1408.4982      291.55194     -0.030235717    0.0013773654 
   3400000   463.81468      937.88872      1401.7034      295.43871      0.045085424    0.0013773654 
   3410000   462.71422      992.88598      1455.6002      312.76307     -0.014321746    0.0013773654 
   3420000   491.79956      969.88769      1461.6873      305.51852      0.052705821    0.0013773654 
   3430000   468.7993       944.10439      1412.9037      297.39667      0.01639007     0.0013773654 
   3440000   457.45333      921.22923      1378.6826      290.19091      0.0054386933   0.0013773654 
   3450000   491.23491      946.87344      1438.1083      298.26893     -0.016225176    0.0013773654 
   3460000   427.08039      913.24923      1340.3296      287.67717      0.019154324    0.0013773654 
   3470000   446.571        924.64072      1371.2117      291.26554      0.0062028002   0.0013773654 
   3480000   472.88533      953.72955      1426.6149      300.42864     -0.028059377    0.0013773654 
   3490000   444.44147      934.37298      1378.8145      294.33124     -0.0029436715   0.0013773654 
   3500000   463.49756      929.48574      1392.9833      292.79174     -0.01816446     0.0013773654 
   3510000   474.88432      949.96692      1424.8512      299.24339      0.014105688    0.0013773654 
   3520000   472.45028      892.64897      1365.0993      281.18801      0.00082266995  0.0013773654 
   3530000   481.57285      954.63198      1436.2048      300.71291      0.048861654    0.0013773654 
   3540000   483.73075      965.1342       1448.865       304.02115     -0.035511933    0.0013773654 
   3550000   442.64394      931.88766      1374.5316      293.54836      0.020375014    0.0013773654 
   3560000   451.14182      1000.9605      1452.1023      315.30658     -0.029403185    0.0013773654 
   3570000   447.50851      921.8784       1369.3869      290.3954      -0.00055283065  0.0013773654 
   3580000   455.3647       966.18021      1421.5449      304.35065     -0.010001952    0.0013773654 
   3590000   469.89313      944.26611      1414.1592      297.44762      0.043181977    0.0013773654 
   3600000   467.7184       961.93063      1429.649       303.01201     -0.044905633    0.0013773654 
   3610000   457.05592      917.16722      1374.2231      288.91136     -0.0043562182   0.0013773654 
   3620000   443.26415      938.02602      1381.2902      295.48196      0.076273305    0.0013773654 
   3630000   457.98352      960.38317      1418.3667      302.52456      0.034107117    0.0013773654 
   3640000   452.54849      967.11592      1419.6644      304.6454       0.018176813    0.0013773654 
   3650000   478.151        947.45978      1425.6108      298.45364      0.010886631    0.0013773654 
   3660000   469.06881      956.16992      1425.2387      301.19737      0.01395865     0.0013773654 
   3670000   493.01182      946.94188      1439.9537      298.29049      0.039371231    0.0013773654 
   3680000   456.22675      977.54474      1433.7715      307.93052      0.017012274    0.0013773654 
   3690000   482.67869      985.79306      1468.4718      310.52877      0.033084382    0.0013773654 
   3700000   505.21898      968.55962      1473.7786      305.10017      0.016578719    0.0013773654 
   3710000   475.02221      952.73149      1427.7537      300.11424      0.016632965    0.0013773654 
   3720000   514.51829      933.74248      1448.2608      294.13263     -0.046919694    0.0013773654 
   3730000   476.80105      943.89011      1420.6912      297.32917      0.010145605    0.0013773654 
   3740000   430.91575      957.16257      1388.0783      301.51005      0.065388507    0.0013773654 
   3750000   459.2646       937.66993      1396.9345      295.36979      0.0558432      0.0013773654 
   3760000   476.01643      965.05215      1441.0686      303.9953      -0.034509464    0.0013773654 
   3770000   452.9883       962.34799      1415.3363      303.14348     -0.010881181    0.0013773654 
   3780000   440.51384      932.92678      1373.4406      293.87568      0.02187697     0.0013773654 
   3790000   449.21929      980.93065      1430.1499      308.9971       0.038635105    0.0013773654 
   3800000   477.08432      945.10591      1422.1902      297.71216      0.028194907    0.0013773654 
   3810000   474.14362      947.17578      1421.3194      298.36418     -0.015726235    0.0013773654 
   3820000   436.87692      935.71831      1372.5952      294.75503      0.016846582    0.0013773654 
   3830000   450.6251       943.6219       1394.247       297.24469      0.05505948     0.0013773654 
   3840000   482.58568      933.12141      1415.7071      293.93699     -0.041230668    0.0013773654 
   3850000   484.57838      1005.5727      1490.151       316.75943      0.086727245    0.0013773654 
   3860000   465.37363      959.75063      1425.1243      302.3253      -0.015699477    0.0013773654 
   3870000   454.68309      904.80176      1359.4848      285.01619      0.023614134    0.0013773654 
   3880000   460.84103      986.61092      1447.4519      310.7864       0.0156289      0.0013773654 
   3890000   470.40543      937.69049      1408.0959      295.37627      0.025276135    0.0013773654 
   3900000   460.54791      928.01985      1388.5678      292.32998      0.029187029    0.0013773654 
   3910000   490.68961      926.95792      1417.6475      291.99547      0.029651115    0.0013773654 
   3920000   465.0627       947.41522      1412.4779      298.4396       0.062335598    0.0013773654 
   3930000   456.25373      944.91444      1401.1682      297.65184     -0.042322421    0.0013773654 
   3940000   471.35992      940.46711      1411.827       296.25092     -0.015237921    0.0013773654 
   3950000   426.08025      952.22972      1378.31        299.95618      0.078342979    0.0013773654 
   3960000   439.98495      964.15753      1404.1425      303.71349     -0.017743555    0.0013773654 
   3970000   473.68522      955.29941      1428.9846      300.92315      0.0072313138   0.0013773654 
   3980000   478.93348      943.87175      1422.8052      297.32339      0.021773196    0.0013773654 
   3990000   464.81505      952.07736      1416.8924      299.90819     -0.018939651    0.0013773654 
   4000000   474.05737      933.2275       1407.2849      293.97041     -0.017052926    0.0013773654 
   4010000   442.32535      964.71149      1407.0368      303.88799      0.016628506    0.0013773654 
   4020000   446.34591      901.6457       1347.9916      284.02202      0.056836779    0.0013773654 
   4030000   493.93264      940.42597      1434.3586      296.23796      0.035643557    0.0013773654 
   4040000   488.09837      959.67828      1447.7767      302.30251     -0.0099166122   0.0013773654 
   4050000   431.65948      952.2963       1383.9558      299.97716      0.006508246    0.0013773654 
   4060000   453.70536      995.0083       1448.7137      313.43161      0.0064496407   0.0013773654 
   4070000   485.74958      991.83357      1477.5832      312.43156      0.056644334    0.0013773654 
   4080000   450.71802      940.49358      1391.2116      296.25925     -0.02384548     0.0013773654 
   4090000   473.70481      936.9696       1410.6744      295.14919     -0.011056332    0.0013773654 
   4100000   438.84523      973.46239      1412.3076      306.64456      0.0020083698   0.0013773654 
   4110000   478.04176      945.98356      1424.0253      297.98862     -0.034314976    0.0013773654 
   4120000   457.01445      990.31615      1447.3306      311.95356      0.021586108    0.0013773654 
   4130000   469.56733      965.08842      1434.6558      304.00673      0.0084702067   0.0013773654 
   4140000   426.51852      959.42441      1385.9429      302.22254      0.039531453    0.0013773654 
   4150000   478.82864      958.06144      1436.8901      301.7932      -0.027197768    0.0013773654 
   4160000   457.63756      940.75126      1398.3888      296.34042      0.0069965748   0.0013773654 
   4170000   449.60537      984.92838      1434.5337      310.25639      0.02128094     0.0013773654 
   4180000   459.88342      961.77836      1421.6618      302.96405     -0.019436706    0.0013773654 
   4190000   439.86172      963.27703      1403.1387      303.43613      0.031453947    0.0013773654 
   4200000   495.65616      968.34285      1463.999       305.03189      0.039956987    0.0013773654 
   4210000   457.40187      931.41516      1388.817       293.39952      0.048917523    0.0013773654 
   4220000   474.70546      954.96177      1429.6672      300.81679      0.0049795526   0.0013773654 
   4230000   491.50929      937.27407      1428.7834      295.2451       0.028909854    0.0013773654 
   4240000   465.78305      919.77731      1385.5604      289.73355      0.0069359347   0.0013773654 
   4250000   476.84477      959.18638      1436.0312      302.14756      0.0016281705   0.0013773654 
   4260000   465.27213      955.29805      1420.5702      300.92272      0.049827337    0.0013773654 
   4270000   453.09676      933.62609      1386.7228      294.09597      0.028802504    0.0013773654 
   4280000   472.29681      933.11857      1405.4154      293.9361       0.01013841     0.0013773654 
   4290000   467.09911      917.15962      1384.2587      288.90896      0.03570375     0.0013773654 
   4300000   449.54044      953.50443      1403.0449      300.35772     -0.019442164    0.0013773654 
   4310000   473.61588      922.43439      1396.0503      290.57054      0.064899182    0.0013773654 
   4320000   496.92247      955.23912      1452.1616      300.90416      0.066055525    0.0013773654 
   4330000   442.78235      968.73833      1411.5207      305.15646      0.065501165    0.0013773654 
   4340000   454.98702      982.37985      1437.3669      309.4536       0.0341292      0.0013773654 
   4350000   454.12661      990.88828      1445.0149      312.13379     -0.033112606    0.0013773654 
   4360000   460.60939      933.55722      1394.1666      294.07427      0.020964706    0.0013773654 
   4370000   513.41313      940.56362      1453.9767      296.28132      0.014929336    0.0013773654 
   4380000   459.79024      960.05544      1419.8457      302.42132     -0.020853888    0.0013773654 
   4390000   486.65769      932.90701      1419.5647      293.86945     -0.013427381    0.0013773654 
   4400000   473.55576      937.71354      1411.2693      295.38353     -0.01724401     0.0013773654 
   4410000   434.04817      939.88497      1373.9331      296.06754     -0.065605316    0.0013773654 
   4420000   472.08532      938.0057       1410.091       295.47556     -0.0083570166   0.0013773654 
   4430000   483.12423      956.19277      1439.317       301.20456     -0.032584943    0.0013773654 
   4440000   450.16844      918.9289       1369.0973      289.46629     -0.0018247633   0.0013773654 
   4450000   485.00839      953.25559      1438.264       300.27934      0.062742969    0.0013773654 
   4460000   454.60655      951.33315      1405.9397      299.67376      0.11303806     0.0013773654 
   4470000   490.05097      954.67349      1444.7245      300.72598      0.030827164    0.0013773654 
   4480000   449.02647      956.53657      1405.563       301.31286     -0.015146594    0.0013773654 
   4490000   447.09089      954.95779      1402.0487      300.81554     -0.015330034    0.0013773654 
   4500000   431.72634      922.46011      1354.1864      290.57864      0.012926547    0.0013773654 
   4510000   450.12617      935.0209       1385.1471      294.53534      0.020036868    0.0013773654 
   4520000   424.98504      940.36261      1365.3476      296.218        0.029086203    0.0013773654 
   4530000   495.40945      972.74666      1468.1561      306.41911      0.040257427    0.0013773654 
   4540000   457.21928      992.05777      1449.277       312.50218      0.015599429    0.0013773654 
   4550000   469.96176      948.96022      1418.922       298.92628     -0.011377211    0.0013773654 
   4560000   440.30653      939.44694      1379.7535      295.92956     -0.014809275    0.0013773654 
   4570000   436.84329      932.75654      1369.5998      293.82206      0.043207477    0.0013773654 
   4580000   462.15149      960.34499      1422.4965      302.51253     -0.022688066    0.0013773654 
   4590000   472.3421       974.48843      1446.8305      306.96777      0.044772855    0.0013773654 
   4600000   425.29936      963.59133      1388.8907      303.53514      0.046792881    0.0013773654 
   4610000   473.51357      975.20646      1448.72        307.19395      0.027892449    0.0013773654 
   4620000   465.49311      987.26131      1452.7544      310.99128      0.0079782486   0.0013773654 
   4630000   457.07563      946.10563      1403.1813      298.02707     -0.021182982    0.0013773654 
   4640000   459.0991       964.29135      1423.3904      303.75565     -0.0077797794   0.0013773654 
   4650000   489.29524      971.81216      1461.1074      306.12473     -0.033966357    0.0013773654 
   4660000   473.86808      942.85285      1416.7209      297.00243      0.027738006    0.0013773654 
   4670000   466.29738      950.28939      1416.5868      299.34497      0.045934781    0.0013773654 
   4680000   431.21508      950.35053      1381.5656      299.36423     -0.059938899    0.0013773654 
   4690000   466.83078      956.30153      1423.1323      301.23882      0.036599007    0.0013773654 
   4700000   466.8104       970.24197      1437.0524      305.63012     -0.061254345    0.0013773654 
   4710000   502.79956      899.39555      1402.1951      283.31321      0.058584315    0.0013773654 
   4720000   445.94976      972.22077      1418.1705      306.25345     -0.041312778    0.0013773654 
   4730000   472.39377      943.10532      1415.4991      297.08196     -0.0053415737   0.0013773654 
   4740000   504.33003      954.44404      1458.7741      300.65371      0.034488981    0.0013773654 
   4750000   450.94793      1010.6156      1461.5635      318.34796      0.057947683    0.0013773654 
   4760000   431.50664      929.02195      1360.5286      292.64565     -0.019044694    0.0013773654 
   4770000   461.13425      913.06047      1374.1947      287.61771      0.0058492423   0.0013773654 
   4780000   459.75569      953.57188      1413.3276      300.37897     -0.042736719    0.0013773654 
   4790000   455.91465      1056.4614      1512.376       332.78957      0.023811092    0.0013773654 
   4800000   456.79837      945.04236      1401.8407      297.69214      0.01448613     0.0013773654 
   4810000   449.10102      975.2333       1424.3343      307.20241      0.0093171036   0.0013773654 
   4820000   464.67503      949.22584      1413.9009      299.00995      0.085997905    0.0013773654 
   4830000   416.07586      964.95502      1381.0309      303.96471      0.029787184    0.0013773654 
   4840000   454.49285      982.96973      1437.4626      309.63941      0.013502774    0.0013773654 
   4850000   434.71615      950.49536      1385.2115      299.40986      0.00013435435  0.0013773654 
   4860000   451.82934      952.09284      1403.9222      299.91307     -0.0050427347   0.0013773654 
   4870000   452.50002      981.24366      1433.7437      309.09569      0.058751714    0.0013773654 
   4880000   462.08072      957.75339      1419.8341      301.69616      0.026839566    0.0013773654 
   4890000   466.95331      959.97557      1426.9289      302.39616      0.055547064    0.0013773654 
   4900000   468.48514      972.49654      1440.9817      306.34032      0.0039846568   0.0013773654 
   4910000   488.94152      963.36423      1452.3057      303.4636       0.011562504    0.0013773654 
   4920000   451.87969      987.60038      1439.4801      311.09808     -0.014017091    0.0013773654 
   4930000   490.37694      905.1169       1395.4938      285.11546      0.029256003    0.0013773654 
   4940000   474.7613       921.80551      1396.5668      290.37244      0.026519615    0.0013773654 
   4950000   456.07516      913.55019      1369.6254      287.77198      0.059120756    0.0013773654 
   4960000   470.21581      960.74069      1430.9565      302.63717      0.03099607     0.0013773654 
   4970000   492.04885      948.2447       1440.2936      298.70089     -0.014894127    0.0013773654 
   4980000   491.29845      954.98077      1446.2792      300.82278      0.00056811247  0.0013773654 
   4990000   443.71665      985.5986       1429.3153      310.46752      0.0064693178   0.0013773654 
   5000000   468.83685      973.99637      1442.8332      306.81277      0.028566132    0.0013773654 
Loop time of 219.699 on 16 procs for 5000000 steps with 1066 atoms

Performance: 19663.233 ns/day, 0.001 hours/ns, 22758.371 timesteps/s, 24.260 Matom-step/s
99.4% CPU use with 16 MPI tasks x 1 OpenMP threads

MPI task timing breakdown:
Section |  min time  |  avg time  |  max time  |%varavg| %total
---------------------------------------------------------------
Pair    | 40.372     | 54.373     | 96.814     | 221.5 | 24.75
Bond    | 7.3614     | 11.394     | 16.56      |  89.5 |  5.19
Neigh   | 0.57132    | 0.60939    | 0.6376     |   2.6 |  0.28
Comm    | 96.199     | 141.91     | 159.93     | 143.1 | 64.59
Output  | 0.050982   | 0.062063   | 0.13788    |   8.0 |  0.03
Modify  | 4.8169     | 7.1795     | 10.362     |  65.3 |  3.27
Other   |            | 4.17       |            |       |  1.90

Nlocal:         66.625 ave         129 max          27 min
Histogram: 1 2 1 7 1 2 0 0 1 1
Nghost:           72.5 ave         137 max          24 min
Histogram: 2 1 3 3 2 0 1 1 2 1
Neighs:        136.062 ave         361 max          42 min
Histogram: 3 6 3 1 1 0 0 0 0 2

Total # of neighbors = 2177
Ave neighs/atom = 2.0422139
Ave special neighs/atom = 4.8630394
Neighbor list builds = 10865
Dangerous builds = 0

# --- Production (1 µs) -------------------------------------------
unfix favg
fix favg all ave/time 10000 10 100000 v_vpe v_vke v_vT v_vE v_vRg     file outputs/thermo_${tag}_production.dat
fix favg all ave/time 10000 10 100000 v_vpe v_vke v_vT v_vE v_vRg     file outputs/thermo_7LYJ_aso_n100_production.dat

restart 10000000 outputs/backup_${tag}.*.restart
restart 10000000 outputs/backup_7LYJ_aso_n100.*.restart
run 100000000
Generated 0 of 6 mixed pair_coeff terms from geometric mixing rule
Per MPI rank memory allocation (min/avg/max) = 8.613 | 8.741 | 8.882 Mbytes
   Step         PotEng         KinEng         TotEng          Temp          Press         Density    
   5000000   468.83685      973.99637      1442.8332      306.81277      0.028566132    0.0013773654 
   5010000   459.30011      982.59145      1441.8916      309.52025     -0.033108912    0.0013773654 
   5020000   487.0441       931.37021      1418.4143      293.38536      0.014238272    0.0013773654 
   5030000   465.62929      928.41949      1394.0488      292.45587      0.035808984    0.0013773654 
   5040000   526.68097      956.2075       1482.8885      301.2092      -0.0013188318   0.0013773654 
   5050000   479.25978      952.81171      1432.0715      300.13952      0.047704159    0.0013773654 
   5060000   485.88012      993.10457      1478.9847      312.83193      0.017906976    0.0013773654 
   5070000   465.62585      972.23154      1437.8574      306.25684      0.011256537    0.0013773654 
   5080000   488.47147      938.11274      1426.5842      295.50928      0.01256692     0.0013773654 
   5090000   494.70331      981.73563      1476.4389      309.25067      0.014390618    0.0013773654 
   5100000   460.90535      984.4258       1445.3311      310.09808      0.060903339    0.0013773654 
   5110000   479.98741      944.54965      1424.5371      297.53693     -0.0063348457   0.0013773654 
   5120000   485.28818      912.89893      1398.1871      287.56683      0.063223508    0.0013773654 
   5130000   526.61748      988.42345      1515.0409      311.35736     -0.044888274    0.0013773654 
   5140000   461.17411      958.20606      1419.3802      301.83876     -0.015199823    0.0013773654 
   5150000   491.05663      976.26435      1467.321       307.52719      0.028800599    0.0013773654 
   5160000   461.63668      928.88299      1390.5197      292.60187     -0.035422087    0.0013773654 
   5170000   477.76975      919.04034      1396.8101      289.5014       0.027672566    0.0013773654 
   5180000   487.12185      951.67957      1438.8014      299.78289     -0.0036237736   0.0013773654 
   5190000   487.55392      926.63782      1414.1917      291.89464      0.017040197    0.0013773654 
   5200000   500.28247      913.69411      1413.9766      287.81732      0.015540339    0.0013773654 
   5210000   469.81395      949.72997      1419.5439      299.16875      0.061633579    0.0013773654 
   5220000   475.44417      963.31295      1438.7571      303.44745      0.067796691    0.0013773654 
   5230000   496.24989      951.88216      1448.1321      299.8467      -0.0031970966   0.0013773654 
   5240000   543.42231      931.51665      1474.939       293.43148      0.034811314    0.0013773654 
   5250000   479.14061      971.45329      1450.5939      306.01169      0.019021133    0.0013773654 
   5260000   498.91095      941.75421      1440.6652      296.65636      0.011859401    0.0013773654 
   5270000   480.89721      965.3635       1446.2607      304.09338      0.015204301    0.0013773654 
   5280000   482.46913      1001.9926      1484.4617      315.63169     -0.016082339    0.0013773654 
   5290000   508.90267      966.84305      1475.7457      304.55944      0.069846501    0.0013773654 
   5300000   478.08713      957.33425      1435.4214      301.56413      0.036590758    0.0013773654 
   5310000   501.36112      1001.7599      1503.121       315.55838      0.038127191    0.0013773654 
   5320000   494.08069      966.77567      1460.8564      304.53822      0.013023097    0.0013773654 
   5330000   451.81678      949.05653      1400.8733      298.95662     -0.043574264    0.0013773654 
   5340000   466.92444      933.87865      1400.8031      294.17553      0.027288525    0.0013773654 
   5350000   499.06092      924.38286      1423.4438      291.18431      0.088128765    0.0013773654 
   5360000   468.76         931.65809      1400.4181      293.47604      0.069453267    0.0013773654 
   5370000   467.002        943.35936      1410.3614      297.16199     -0.012195261    0.0013773654 
   5380000   461.87898      941.7236       1403.6026      296.64672     -0.034261886    0.0013773654 
   5390000   454.96777      955.87627      1410.844       301.10486     -0.039562343    0.0013773654 
   5400000   432.36503      971.35791      1403.7229      305.98164      0.01101807     0.0013773654 
   5410000   447.1515       973.91841      1421.0699      306.78821     -0.00081402203  0.0013773654 
   5420000   496.42921      919.52222      1415.9514      289.65319      0.04242793     0.0013773654 
   5430000   476.11276      999.22896      1475.3417      314.76114      0.02146676     0.0013773654 
   5440000   443.19119      972.05369      1415.2449      306.20081      0.0012104538   0.0013773654 
   5450000   514.63184      935.5859       1450.2177      294.71332     -0.015873473    0.0013773654 
   5460000   468.69669      965.6159       1434.3126      304.17288     -0.045311241    0.0013773654 
   5470000   443.77412      946.85519      1390.6293      298.26319      0.011001878    0.0013773654 
   5480000   486.85027      941.74561      1428.5959      296.65365     -0.0017357347   0.0013773654 
   5490000   466.71316      914.33645      1381.0496      288.01965      0.041509906    0.0013773654 
   5500000   499.74882      995.89933      1495.6482      313.71229      0.085291053    0.0013773654 
   5510000   489.50059      943.948        1433.4486      297.34741     -0.03742676     0.0013773654 
   5520000   468.38886      948.36441      1416.7533      298.7386      -0.031489231    0.0013773654 
   5530000   489.76749      962.68589      1452.4534      303.24992     -0.019017643    0.0013773654 
   5540000   469.53397      1012.9046      1482.4385      319.069        0.013571691    0.0013773654 
   5550000   518.25773      916.42901      1434.6867      288.67882      0.0032502344   0.0013773654 
   5560000   477.86392      935.90979      1413.7737      294.81534      0.033952007    0.0013773654 
   5570000   480.88698      950.4662       1431.3532      299.40067      0.032164693    0.0013773654 
   5580000   500.36071      948.56975      1448.9305      298.80328      0.0091413513   0.0013773654 
   5590000   464.40397      961.0857       1425.4897      302.74585     -0.040512897    0.0013773654 
   5600000   485.19622      959.83955      1445.0358      302.35331     -0.032877676    0.0013773654 
   5610000   448.16567      942.45745      1390.6231      296.87788      0.014321089    0.0013773654 
   5620000   435.43218      921.11263      1356.5448      290.15418     -0.017821812    0.0013773654 
   5630000   497.20621      945.70656      1442.9128      297.90136     -0.031538937    0.0013773654 
   5640000   491.00766      936.52347      1427.5311      295.00866     -0.018163905    0.0013773654 
   5650000   469.08839      972.57432      1441.6627      306.36482      0.062145235    0.0013773654 
   5660000   423.09906      951.77206      1374.8711      299.81202     -0.046169834    0.0013773654 
   5670000   512.61306      932.99978      1445.6128      293.89868     -0.014433138    0.0013773654 
   5680000   459.27585      974.49391      1433.7698      306.9695      -0.0024220446   0.0013773654 
   5690000   471.46837      924.20825      1395.6766      291.12931     -0.072921824    0.0013773654 
   5700000   482.1378       929.60924      1411.747       292.83064      0.013790016    0.0013773654 
   5710000   490.70129      983.70898      1474.4103      309.87228      0.053178077    0.0013773654 
   5720000   455.30083      913.31086      1368.6117      287.69659      0.011345231    0.0013773654 
   5730000   473.62957      981.59268      1455.2223      309.20564      0.021223874    0.0013773654 
   5740000   457.14031      985.72423      1442.8645      310.50709      0.073044393    0.0013773654 
   5750000   491.52918      922.67008      1414.1993      290.64478      0.011334629    0.0013773654 
   5760000   485.54362      978.55426      1464.0979      308.24852      0.045813021    0.0013773654 
   5770000   479.80109      933.35528      1413.1564      294.01066      0.022715517    0.0013773654 
   5780000   433.43782      958.83536      1392.2732      302.03699     -0.013091524    0.0013773654 
   5790000   435.38254      992.78925      1428.1718      312.7326       0.011639781    0.0013773654 
   5800000   487.04279      963.18794      1450.2307      303.40807      0.047979498    0.0013773654 
   5810000   480.53485      923.29292      1403.8278      290.84098      0.02631103     0.0013773654 
   5820000   472.62317      912.82471      1385.4479      287.54345      0.0044478473   0.0013773654 
   5830000   498.94206      970.29458      1469.2366      305.64669     -0.012496996    0.0013773654 
   5840000   506.92559      941.63267      1448.5583      296.61807      0.0051696655   0.0013773654 
   5850000   482.61736      1002.1262      1484.7436      315.67378      0.025289425    0.0013773654 
   5860000   477.72321      1002.2325      1479.9558      315.70728      0.064912757    0.0013773654 
   5870000   502.26331      939.78418      1442.0475      296.03579     -0.031666431    0.0013773654 
   5880000   434.25807      957.39268      1391.6507      301.58254      0.0095172715   0.0013773654 
   5890000   460.70232      970.65775      1431.3601      305.76109     -0.035429907    0.0013773654 
   5900000   499.76624      912.94412      1412.7104      287.58106     -0.021595273    0.0013773654 
   5910000   471.03124      944.86614      1415.8974      297.63663      0.0061991227   0.0013773654 
   5920000   437.52918      972.5178       1410.047       306.34701      0.016531857    0.0013773654 
   5930000   485.55553      919.22233      1404.7779      289.55873     -0.0035553837   0.0013773654 
   5940000   490.01106      989.95111      1479.9622      311.83858      0.014535261    0.0013773654 
   5950000   492.39395      958.49373      1450.8877      301.92937      0.018241483    0.0013773654 
   5960000   455.37899      970.10568      1425.4847      305.58719      0.0050273377   0.0013773654 
   5970000   498.69931      933.28942      1431.9887      293.98991      0.014667497    0.0013773654 
   5980000   484.1507       980.74073      1464.8914      308.93727      0.015154993    0.0013773654 
   5990000   453.75116      973.34493      1427.0961      306.60756     -0.026227237    0.0013773654 
   6000000   499.62601      954.80058      1454.4266      300.76602      0.014445348    0.0013773654 
   6010000   468.39107      956.48277      1424.8738      301.29591      0.026620976    0.0013773654 
   6020000   462.44723      977.68961      1440.1368      307.97615     -0.0040272061   0.0013773654 
   6030000   443.65418      953.54239      1397.1966      300.36968      0.0042700314   0.0013773654 
   6040000   492.41889      934.63553      1427.0544      294.41395     -0.060793972    0.0013773654 
   6050000   473.10421      955.7338       1428.838       301.05999     -0.0012157773   0.0013773654 
   6060000   456.81963      931.001        1387.8206      293.26905      0.044317092    0.0013773654 
   6070000   477.32563      961.30117      1438.6268      302.81373      0.033189222    0.0013773654 
   6080000   473.22228      934.62317      1407.8455      294.41005     -0.0081883215   0.0013773654 
   6090000   488.62454      998.61633      1487.2409      314.56815      0.013242265    0.0013773654 
   6100000   483.06234      958.54249      1441.6048      301.94473      0.012584673    0.0013773654 
   6110000   456.32737      1018.9507      1475.2781      320.97357      0.0042517574   0.0013773654 
   6120000   480.83839      999.37675      1480.2151      314.80769     -0.0063987045   0.0013773654 
   6130000   446.17026      937.05705      1383.2273      295.17674     -0.009598089    0.0013773654 
   6140000   492.00752      937.96799      1429.9755      295.46368      0.015089579    0.0013773654 
   6150000   502.4232       934.70553      1437.1287      294.436        0.028671205    0.0013773654 
   6160000   478.23456      1010.9598      1489.1943      318.45639     -0.0081515476   0.0013773654 
   6170000   451.41062      977.14081      1428.5514      307.80328     -0.0049707727   0.0013773654 
   6180000   476.65733      964.65755      1441.3149      303.871        0.021433398    0.0013773654 
   6190000   456.66505      921.13268      1377.7977      290.16049      0.05121796     0.0013773654 
   6200000   487.90985      903.00977      1390.9196      284.4517       0.029159634    0.0013773654 
   6210000   462.95476      921.49453      1384.4493      290.27448     -0.0003993895   0.0013773654 
   6220000   467.90609      979.06876      1446.9749      308.41059      0.046796031    0.0013773654 
   6230000   501.24827      966.16877      1467.417       304.34704     -4.2121934e-05  0.0013773654 
   6240000   487.79991      919.83408      1407.634       289.75143     -0.014957042    0.0013773654 
   6250000   445.96564      977.04755      1423.0132      307.7739       0.031075431    0.0013773654 
   6260000   500.02157      900.83363      1400.8552      283.76621      0.069610878    0.0013773654 
   6270000   480.60225      942.18121      1422.7835      296.79086      0.079168808    0.0013773654 
   6280000   486.03273      974.87221      1460.9049      307.08866      0.03792289     0.0013773654 
   6290000   462.55529      947.03682      1409.5921      298.3204       0.016730799    0.0013773654 
   6300000   465.75482      941.65524      1407.4101      296.62518      0.040169121    0.0013773654 
   6310000   486.20431      928.8243       1415.0286      292.58338     -0.028467325    0.0013773654 
   6320000   496.97123      963.79885      1460.7701      303.60051     -0.0042409729   0.0013773654 
   6330000   456.48284      953.50983      1409.9927      300.35943      0.022817259    0.0013773654 
   6340000   463.76334      944.71407      1408.4774      297.58873      0.032878558    0.0013773654 
   6350000   498.40614      990.59378      1488.9999      312.04102      0.026215399    0.0013773654 
   6360000   510.11653      953.57269      1463.6892      300.37923      0.071931757    0.0013773654 
   6370000   459.57495      915.92285      1375.4978      288.51938      0.015564857    0.0013773654 
   6380000   492.63536      943.51589      1436.1512      297.21129     -0.02786952     0.0013773654 
   6390000   483.23949      990.09178      1473.3313      311.88289      0.0056694963   0.0013773654 
   6400000   476.12461      958.32063      1434.4452      301.87485     -0.014746932    0.0013773654 
   6410000   440.45038      924.22708      1364.6775      291.13524     -0.011296111    0.0013773654 
   6420000   471.37463      964.61032      1435.985       303.85612     -0.0072108977   0.0013773654 
   6430000   514.25852      954.61613      1468.8746      300.70791      0.0013599544   0.0013773654 
   6440000   456.683        913.98151      1370.6645      287.90785     -0.021205113    0.0013773654 
   6450000   497.78907      966.13989      1463.929       304.33794     -0.011110001    0.0013773654 
   6460000   470.20956      923.11552      1393.3251      290.7851       0.015967495    0.0013773654 
   6470000   514.50976      1001.2247      1515.7345      315.38981     -0.0042297839   0.0013773654 
   6480000   487.77708      941.48982      1429.2669      296.57307      0.012110978    0.0013773654 
   6490000   446.38191      1020.9809      1467.3628      321.61309      0.023626486    0.0013773654 
   6500000   470.87905      954.21154      1425.0906      300.58047     -0.0279366      0.0013773654 
   6510000   502.77325      924.92088      1427.6941      291.35379     -0.01453312     0.0013773654 
   6520000   451.66752      957.48354      1409.1511      301.61116      0.0030226982   0.0013773654 
   6530000   466.11509      981.60159      1447.7167      309.20844      0.051050233    0.0013773654 
   6540000   465.99998      989.0883       1455.0883      311.56679     -0.014585041    0.0013773654 
   6550000   482.64425      969.50381      1452.1481      305.39759      0.053786713    0.0013773654 
   6560000   499.69786      942.46616      1442.164       296.88063      0.043333368    0.0013773654 
   6570000   470.71284      936.40844      1407.1213      294.97242      0.0091175388   0.0013773654 
   6580000   528.69159      954.47327      1483.1649      300.66291     -0.0011663647   0.0013773654 
   6590000   484.45437      959.89039      1444.3448      302.36933      0.017165702    0.0013773654 
   6600000   487.46068      970.70175      1458.1624      305.77495      0.0030271086   0.0013773654 
   6610000   504.33526      982.50981      1486.8451      309.49454      0.020577914    0.0013773654 
   6620000   472.01883      953.33493      1425.3538      300.30433      0.037811534    0.0013773654 
   6630000   499.23309      963.08435      1462.3174      303.37544      0.0040530075   0.0013773654 
   6640000   505.40956      963.43101      1468.8406      303.48464      0.052758197    0.0013773654 
   6650000   509.39569      959.99847      1469.3942      302.40337      0.00038571961  0.0013773654 
   6660000   483.32388      944.30851      1427.6324      297.46097     -0.027585748    0.0013773654 
   6670000   481.2827       967.79527      1449.078       304.8594       0.0078532945   0.0013773654 
   6680000   492.65424      990.81034      1483.4646      312.10924      0.0084493899   0.0013773654 
   6690000   484.04274      939.40011      1423.4429      295.91481      0.010807591    0.0013773654 
   6700000   503.45966      924.57824      1428.0379      291.24586     -0.0039923958   0.0013773654 
   6710000   442.5405       933.70861      1376.2491      294.12196     -0.013471829    0.0013773654 
   6720000   514.70313      957.10108      1471.8042      301.49068     -0.0067128719   0.0013773654 
   6730000   476.59524      929.60386      1406.1991      292.82895     -0.015548025    0.0013773654 
   6740000   483.46473      999.37428      1482.839       314.80691      0.020137017    0.0013773654 
   6750000   517.4774       982.81537      1500.2928      309.59079      0.079240413    0.0013773654 
   6760000   519.82301      933.95311      1453.7761      294.19898     -0.019186492    0.0013773654 
   6770000   485.4383       935.92909      1421.3674      294.82142      0.0027156322   0.0013773654 
   6780000   490.38542      922.01817      1412.4036      290.43943     -0.029066531    0.0013773654 
   6790000   461.93582      959.06961      1421.0054      302.11078      0.031437645    0.0013773654 
   6800000   472.86815      946.8253       1419.6934      298.25377      0.01610185     0.0013773654 
   6810000   519.14551      975.1001       1494.2456      307.16045      0.025575585    0.0013773654 
   6820000   487.62001      954.60723      1442.2272      300.70511      0.01515757     0.0013773654 
   6830000   475.59156      968.7858       1444.3774      305.17142      0.018148983    0.0013773654 
   6840000   487.15667      918.55001      1405.7067      289.34694      0.0054726009   0.0013773654 
   6850000   455.39831      987.93456      1443.3329      311.20335     -0.0055215687   0.0013773654 
   6860000   478.23815      941.39153      1419.6297      296.54211     -0.007813492    0.0013773654 
   6870000   478.44513      940.88878      1419.3339      296.38374     -0.028003661    0.0013773654 
   6880000   519.09035      963.2362       1482.3266      303.42327      0.0466833      0.0013773654 
   6890000   461.36453      983.71549      1445.08        309.87433      0.077772953    0.0013773654 
   6900000   480.43166      977.57762      1458.0093      307.94088      0.079948918    0.0013773654 
   6910000   510.2356       906.23062      1416.4662      285.46628     -0.001181022    0.0013773654 
   6920000   480.75559      924.80958      1405.5652      291.31873     -0.0069304705   0.0013773654 
   6930000   467.61993      970.40938      1438.0293      305.68285     -0.047850127    0.0013773654 
   6940000   468.15004      939.81342      1407.9635      296.045       -0.0070534466   0.0013773654 
   6950000   445.49628      922.11475      1367.611       290.46985     -0.0043932564   0.0013773654 
   6960000   491.12878      950.71506      1441.8438      299.47906      0.017229723    0.0013773654 
   6970000   504.21207      966.42654      1470.6386      304.42824      0.024422105    0.0013773654 
   6980000   480.24129      985.41686      1465.6582      310.41027     -0.035952832    0.0013773654 
   6990000   483.20354      936.02335      1419.2269      294.85112      0.0071580629   0.0013773654 
   7000000   522.09975      911.47606      1433.5758      287.11862     -0.0057035645   0.0013773654 
   7010000   445.65464      1000.5159      1446.1706      315.16653      0.018742897    0.0013773654 
   7020000   482.96087      960.23963      1443.2005      302.47934      0.011994577    0.0013773654 
   7030000   473.58738      932.29157      1405.8789      293.67559      0.0013536669   0.0013773654 
   7040000   489.39072      925.98216      1415.3729      291.6881       0.031310619    0.0013773654 
   7050000   483.42921      962.30674      1445.736       303.13049      0.074517011    0.0013773654 
   7060000   462.59576      946.62771      1409.2235      298.19153     -0.032635093    0.0013773654 
   7070000   485.82767      963.15614      1448.9838      303.39805      0.031434578    0.0013773654 
[...]
 103190000   492.37512      984.05757      1476.4327      309.98209      0.0068888154   0.0013773654 
 103200000   500.64311      999.59815      1500.2413      314.87743      0.0053569491   0.0013773654 
 103210000   483.04415      935.02356      1418.0677      294.53617     -0.0016862482   0.0013773654 
 103220000   496.92162      958.8903       1455.8119      302.0543      -0.03620001     0.0013773654 
 103230000   476.28236      927.62544      1403.9078      292.20574      0.019776838    0.0013773654 
 103240000   468.99487      944.69401      1413.6889      297.58241      0.03824879     0.0013773654 
 103250000   424.93604      950.68393      1375.62        299.46926     -0.032360489    0.0013773654 
 103260000   472.80691      942.30533      1415.1122      296.82996      0.045272019    0.0013773654 
 103270000   453.31444      957.95561      1411.27        301.75986     -0.032375548    0.0013773654 
 103280000   497.58193      971.38857      1468.9705      305.9913       0.087568885    0.0013773654 
 103290000   492.47311      909.06016      1401.5333      286.3576      -0.023750064    0.0013773654 
 103300000   466.47753      976.15521      1442.6327      307.49281     -0.01817112     0.0013773654 
 103310000   479.93569      942.21922      1422.1549      296.80284     -0.01680017     0.0013773654 
 103320000   503.91952      934.7247       1438.6442      294.44203      0.021703998    0.0013773654 
 103330000   503.73529      948.28254      1452.0178      298.71281     -0.0093203354   0.0013773654 
 103340000   502.51495      973.36368      1475.8786      306.61347      0.013348184    0.0013773654 
 103350000   457.30594      946.2556       1403.5615      298.07432      0.039274426    0.0013773654 
 103360000   507.52545      896.36462      1403.8901      282.35845     -0.017428177    0.0013773654 
 103370000   477.07738      986.79535      1463.8727      310.8445      -0.0098667203   0.0013773654 
 103380000   469.07617      965.18348      1434.2596      304.03667      0.0024801982   0.0013773654 
 103390000   483.739        968.48135      1452.2203      305.07551      0.0069830029   0.0013773654 
 103400000   486.47166      968.30923      1454.7809      305.02129      0.0018922202   0.0013773654 
 103410000   481.30551      973.76485      1455.0704      306.73984     -0.0092656055   0.0013773654 
 103420000   498.14978      941.04444      1439.1942      296.43278      0.004636754    0.0013773654 
 103430000   517.94077      966.12946      1484.0702      304.33466     -0.010469405    0.0013773654 
 103440000   493.04898      951.35104      1444.4         299.6794       0.045255654    0.0013773654 
 103450000   470.39035      983.7601       1454.1505      309.88838      0.053580861    0.0013773654 
 103460000   503.49203      917.96964      1421.4617      289.16412      0.046863105    0.0013773654 
 103470000   471.98474      980.85328      1452.838       308.97272      0.031570133    0.0013773654 
 103480000   478.38919      958.7006       1437.0898      301.99454      0.0040593047   0.0013773654 
 103490000   466.8876       954.70397      1421.5916      300.73558      0.04978325     0.0013773654 
 103500000   473.62178      969.02753      1442.6493      305.24756      0.011468364    0.0013773654 
 103510000   466.55557      974.75167      1441.3072      307.05069     -0.01815592     0.0013773654 
 103520000   472.22526      958.26362      1430.4889      301.85689     -0.073885531    0.0013773654 
 103530000   506.84111      875.08392      1381.925       275.65495      0.03737834     0.0013773654 
 103540000   493.66945      929.28198      1422.9514      292.72756      0.0029766894   0.0013773654 
 103550000   460.10696      937.10815      1397.2151      295.19283     -0.010125534    0.0013773654 
 103560000   497.25611      967.52963      1464.7857      304.77572     -0.0039545423   0.0013773654 
 103570000   477.30494      952.12596      1429.4309      299.9235      -0.040461028    0.0013773654 
 103580000   475.06614      953.4806       1428.5467      300.35022     -0.018646831    0.0013773654 
 103590000   468.70288      920.04204      1388.7449      289.81694     -0.00055452252  0.0013773654 
 103600000   486.15365      935.60595      1421.7596      294.71963      0.055183666    0.0013773654 
 103610000   488.6153       923.62443      1412.2397      290.94541     -0.030688159    0.0013773654 
 103620000   526.29998      951.53935      1477.8393      299.73872     -0.013238976    0.0013773654 
 103630000   485.59808      949.513        1435.1111      299.10041      0.036429107    0.0013773654 
 103640000   504.77636      926.29078      1431.0671      291.78532      0.054824593    0.0013773654 
 103650000   501.22922      970.78406      1472.0133      305.80088     -0.012363201    0.0013773654 
 103660000   469.08775      964.53287      1433.6206      303.83173      0.025257535    0.0013773654 
 103670000   504.39868      996.042        1500.4407      313.75723      0.0048794796   0.0013773654 
 103680000   491.62211      968.55848      1460.1806      305.09981     -0.0061766332   0.0013773654 
 103690000   492.02173      927.71792      1419.7396      292.23487      0.0074843094   0.0013773654 
 103700000   480.90402      948.12414      1429.0282      298.66291      0.0053656802   0.0013773654 
 103710000   488.97501      942.24629      1431.2213      296.81136      0.0010058558   0.0013773654 
 103720000   461.75076      948.58231      1410.3331      298.80724     -0.017727725    0.0013773654 
 103730000   486.28781      922.65177      1408.9396      290.63901     -0.0040805868   0.0013773654 
 103740000   501.80335      962.97149      1464.7748      303.33989      0.0044404442   0.0013773654 
 103750000   503.57421      996.46231      1500.0365      313.88963      0.077766545    0.0013773654 
 103760000   496.13633      961.79888      1457.9352      302.97051     -0.026048353    0.0013773654 
 103770000   480.9999       945.65533      1426.6552      297.88523      0.035584418    0.0013773654 
 103780000   488.5977       948.66322      1437.2609      298.83272      0.032216807    0.0013773654 
 103790000   491.72197      996.78959      1488.5116      313.99272     -0.053360355    0.0013773654 
 103800000   460.90272      967.79439      1428.6971      304.85912      0.035660438    0.0013773654 
 103810000   510.77639      961.33865      1472.115       302.82554      0.0013853973   0.0013773654 
 103820000   475.37909      960.58996      1435.9691      302.5897       0.02593574     0.0013773654 
 103830000   486.76678      941.59552      1428.3623      296.60637     -0.036186226    0.0013773654 
 103840000   474.65381      932.35241      1407.0062      293.69475     -0.013509843    0.0013773654 
 103850000   482.16471      977.9253       1460.09        308.0504       0.070433441    0.0013773654 
 103860000   474.19452      955.309        1429.5035      300.92617      0.053306817    0.0013773654 
 103870000   457.4404       917.38937      1374.8298      288.98134     -0.024477897    0.0013773654 
 103880000   487.1005       938.25501      1425.3555      295.5541       0.034104145    0.0013773654 
 103890000   488.1962       942.10749      1430.3037      296.76764     -0.026976331    0.0013773654 
 103900000   475.37302      921.9365       1397.3095      290.4137      -0.039413167    0.0013773654 
 103910000   482.73735      903.02799      1385.7653      284.45744     -0.0348189      0.0013773654 
 103920000   455.13217      968.81934      1423.9515      305.18198     -0.038827982    0.0013773654 
 103930000   479.54883      956.45232      1436.0011      301.28632     -0.0038304661   0.0013773654 
 103940000   479.2842       963.60399      1442.8882      303.53913     -0.0051306166   0.0013773654 
 103950000   465.00943      945.61559      1410.625       297.87271     -0.0069571123   0.0013773654 
 103960000   487.96719      947.42154      1435.3887      298.44159     -0.046571863    0.0013773654 
 103970000   487.07595      945.50684      1432.5828      297.83845     -0.017153292    0.0013773654 
 103980000   462.89999      980.27763      1443.1776      308.79139     -0.044065089    0.0013773654 
 103990000   468.18101      965.53398      1433.715       304.14708     -0.032986901    0.0013773654 
 104000000   478.02393      1013.4658      1491.4898      319.24581      0.0333483      0.0013773654 
 104010000   479.03325      916.14465      1395.1779      288.58924     -0.061936834    0.0013773654 
 104020000   450.95508      927.63981      1378.5949      292.21027      0.010979209    0.0013773654 
 104030000   493.82835      937.52747      1431.3558      295.32492     -0.062861775    0.0013773654 
 104040000   468.06042      934.40819      1402.4686      294.34233      0.051133997    0.0013773654 
 104050000   465.5497       930.1725       1395.7222      293.00807      0.018842283    0.0013773654 
 104060000   496.091        923.71338      1419.8044      290.97342     -0.01953404     0.0013773654 
 104070000   466.78444      939.06258      1405.847       295.80849      0.039515705    0.0013773654 
 104080000   489.89132      954.53284      1444.4242      300.68168      0.043827783    0.0013773654 
 104090000   467.59312      978.61087      1446.204       308.26635      0.0080420558   0.0013773654 
 104100000   473.26075      965.38766      1438.6484      304.10099      0.01672548     0.0013773654 
 104110000   493.67345      960.62176      1454.2952      302.59971      0.00793019     0.0013773654 
 104120000   476.42856      940.42156      1416.8501      296.23657      0.045417267    0.0013773654 
 104130000   500.01719      947.01918      1447.0364      298.31485      0.026257492    0.0013773654 
 104140000   471.61241      941.91837      1413.5308      296.70807      0.062529363    0.0013773654 
 104150000   476.11621      925.82933      1401.9455      291.63996     -0.024755325    0.0013773654 
 104160000   457.30992      927.79646      1385.1064      292.25961      0.043489842    0.0013773654 
 104170000   474.75718      925.46523      1400.2224      291.52526      0.027594149    0.0013773654 
 104180000   468.20843      947.37976      1415.5882      298.42843      0.063620346    0.0013773654 
 104190000   472.07372      951.58866      1423.6624      299.75425      0.010393904    0.0013773654 
 104200000   481.29894      966.33728      1447.6362      304.40012      0.0083130897   0.0013773654 
 104210000   489.71586      945.67749      1435.3934      297.89221      0.027961763    0.0013773654 
 104220000   486.22812      924.73927      1410.9674      291.29658      0.055299856    0.0013773654 
 104230000   493.72665      968.92891      1462.6556      305.2165      -0.007517662    0.0013773654 
 104240000   494.14927      924.69167      1418.8409      291.28159      0.00055698809  0.0013773654 
 104250000   477.28692      952.28888      1429.5758      299.97482     -0.0023599832   0.0013773654 
 104260000   471.53948      963.31538      1434.8549      303.44821      0.048414586    0.0013773654 
 104270000   488.40588      990.85758      1479.2635      312.12412     -0.012484889    0.0013773654 
 104280000   456.05928      950.31897      1406.3782      299.35429      0.033247387    0.0013773654 
 104290000   429.41397      988.37475      1417.7887      311.34202     -0.017368215    0.0013773654 
 104300000   495.90458      989.56107      1485.4657      311.71571     -0.016029105    0.0013773654 
 104310000   471.37358      942.95856      1414.3321      297.03573     -0.010688764    0.0013773654 
 104320000   494.77576      963.37882      1458.1546      303.4682      -0.0085327423   0.0013773654 
 104330000   463.62892      906.10176      1369.7307      285.42569      0.044885045    0.0013773654 
 104340000   480.23721      962.6028       1442.84        303.22375      0.043231198    0.0013773654 
 104350000   475.45988      962.62814      1438.088       303.23173     -0.029988736    0.0013773654 
 104360000   467.46219      978.52169      1445.9839      308.23826      0.047272011    0.0013773654 
 104370000   486.36697      954.5231       1440.8901      300.67861      0.010365782    0.0013773654 
 104380000   459.34624      981.18637      1440.5326      309.07765      0.089259149    0.0013773654 
 104390000   439.53957      981.85473      1421.3943      309.28818     -0.033273227    0.0013773654 
 104400000   467.67075      965.4589       1433.1297      304.12343      0.080562552    0.0013773654 
 104410000   489.17643      950.45417      1439.6306      299.39688      0.0011554018   0.0013773654 
 104420000   495.13328      981.27218      1476.4055      309.10468     -0.0063604518   0.0013773654 
 104430000   462.91159      961.27693      1424.1885      302.80609      0.091208273    0.0013773654 
 104440000   437.29306      945.97688      1383.2699      297.98652     -0.023390614    0.0013773654 
 104450000   472.12703      940.80905      1412.9361      296.35863      0.036913997    0.0013773654 
 104460000   483.87734      941.84931      1425.7266      296.68631      0.022770735    0.0013773654 
 104470000   489.25105      940.02936      1429.2804      296.11302     -0.0098434232   0.0013773654 
 104480000   505.88157      982.95467      1488.8362      309.63467      0.095696203    0.0013773654 
 104490000   488.27907      968.09021      1456.3693      304.9523       0.0045492482   0.0013773654 
 104500000   503.3971       948.22025      1451.6174      298.69319     -0.076246942    0.0013773654 
 104510000   457.29381      952.47507      1409.7689      300.03347     -0.054915836    0.0013773654 
 104520000   496.16855      953.83923      1450.0078      300.46319      0.0060287534   0.0013773654 
 104530000   477.18259      917.61035      1394.7929      289.05095      0.026124786    0.0013773654 
 104540000   471.66371      947.26699      1418.9307      298.39291      0.034995425    0.0013773654 
 104550000   477.46428      936.39687      1413.8611      294.96877     -0.015035843    0.0013773654 
 104560000   482.61973      928.74886      1411.3686      292.55962     -0.011848649    0.0013773654 
 104570000   457.66629      953.98446      1411.6507      300.50893     -0.020342862    0.0013773654 
 104580000   489.47241      956.27387      1445.7463      301.23011     -0.0049767702   0.0013773654 
 104590000   436.96747      905.66256      1342.63        285.28734      0.027746535    0.0013773654 
 104600000   512.76562      928.76742      1441.533       292.56547      0.023494351    0.0013773654 
 104610000   506.70322      986.85404      1493.5573      310.86299     -0.032954659    0.0013773654 
 104620000   480.99338      927.15808      1408.1515      292.05852     -0.01077259     0.0013773654 
 104630000   481.36305      943.24349      1424.6065      297.12549      0.045046491    0.0013773654 
 104640000   508.65173      1002.4995      1511.1512      315.79136     -0.015366748    0.0013773654 
 104650000   463.33401      934.51598      1397.85        294.37629     -0.0057265167   0.0013773654 
 104660000   475.95531      954.46299      1430.4183      300.65968      0.030292096    0.0013773654 
 104670000   488.25596      983.87529      1472.1313      309.92467      0.057146158    0.0013773654 
 104680000   487.69804      970.02734      1457.7254      305.56251      0.00093975713  0.0013773654 
 104690000   481.81487      929.99452      1411.8094      292.95201      0.03248679     0.0013773654 
 104700000   483.60953      959.74128      1443.3508      302.32236      0.0041486048   0.0013773654 
 104710000   506.8897       951.03583      1457.9255      299.58011     -0.0031177947   0.0013773654 
 104720000   482.14861      938.28572      1420.4343      295.56377      0.01596755     0.0013773654 
 104730000   503.00535      978.23749      1481.2428      308.14874     -0.024117979    0.0013773654 
 104740000   463.05149      952.32606      1415.3776      299.98653      0.015072267    0.0013773654 
 104750000   449.26416      950.14262      1399.4068      299.29874     -0.004331816    0.0013773654 
 104760000   464.14551      932.42187      1396.5674      293.71663     -0.025310615    0.0013773654 
 104770000   476.25073      937.5323       1413.783       295.32644     -0.0091955754   0.0013773654 
 104780000   475.95191      934.02925      1409.9812      294.22297      0.020937884    0.0013773654 
 104790000   481.91237      962.52724      1444.4396      303.19995      0.029762363    0.0013773654 
 104800000   468.36234      960.53214      1428.8945      302.57148      0.011038201    0.0013773654 
 104810000   481.1589       931.54176      1412.7007      293.43939      0.020366003    0.0013773654 
 104820000   478.00812      940.09126      1418.0994      296.13252      0.03261457     0.0013773654 
 104830000   487.00673      921.74526      1408.752       290.35346      0.018306691    0.0013773654 
 104840000   479.52377      945.12829      1424.6521      297.71921      0.029713568    0.0013773654 
 104850000   485.31124      929.99371      1415.305       292.95175      0.010937974    0.0013773654 
 104860000   446.79107      946.59605      1393.3871      298.18156     -0.0083462908   0.0013773654 
 104870000   461.35809      981.40133      1442.7594      309.14536      0.021466668    0.0013773654 
 104880000   490.49801      949.12023      1439.6182      298.97668      0.066398463    0.0013773654 
 104890000   497.4192       957.26409      1454.6833      301.54203      0.053062807    0.0013773654 
 104900000   468.16822      968.75         1436.9182      305.16014     -0.0015396778   0.0013773654 
 104910000   460.28663      954.3683       1414.6549      300.62985      0.0071429931   0.0013773654 
 104920000   483.96529      944.34163      1428.3069      297.47141      0.021351162    0.0013773654 
 104930000   457.30784      940.57         1397.8778      296.28333     -0.038401121    0.0013773654 
 104940000   497.68518      981.65816      1479.3433      309.22626     -0.038126455    0.0013773654 
 104950000   451.25638      951.70342      1402.9598      299.7904       0.00059243539  0.0013773654 
 104960000   477.76393      913.88187      1391.6458      287.87646     -0.031666072    0.0013773654 
 104970000   468.2533       1001.0748      1469.3281      315.34259     -0.0034035879   0.0013773654 
 104980000   498.05241      908.4969       1406.5493      286.18017      0.0037324062   0.0013773654 
 104990000   476.20017      940.38822      1416.5884      296.22607      0.044245421    0.0013773654 
 105000000   475.99841      932.54482      1408.5432      293.75536      0.014704611    0.0013773654 
Loop time of 5551.28 on 16 procs for 100000000 steps with 1066 atoms

Performance: 15563.987 ns/day, 0.002 hours/ns, 18013.874 timesteps/s, 19.203 Matom-step/s
99.4% CPU use with 16 MPI tasks x 1 OpenMP threads

MPI task timing breakdown:
Section |  min time  |  avg time  |  max time  |%varavg| %total
---------------------------------------------------------------
Pair    | 753.07     | 991.6      | 2332.9     |1457.1 | 17.86
Bond    | 174.87     | 230.27     | 356.33     | 313.6 |  4.15
Neigh   | 13.981     | 14.422     | 14.77      |   7.1 |  0.26
Comm    | 2595.7     | 4042.3     | 4400.1     | 783.2 | 72.82
Output  | 1.0669     | 1.257      | 2.6506     |  32.5 |  0.02
Modify  | 114.58     | 145.2      | 208.29     | 209.1 |  2.62
Other   |            | 126.2      |            |       |  2.27

Nlocal:         66.625 ave         171 max          27 min
Histogram: 3 4 3 3 1 1 0 0 0 1
Nghost:        49.6875 ave          90 max          25 min
Histogram: 2 2 2 4 0 3 2 0 0 1
Neighs:        141.562 ave         772 max          37 min
Histogram: 8 7 0 0 0 0 0 0 0 1

Total # of neighbors = 2265
Ave neighs/atom = 2.1247655
Ave special neighs/atom = 4.8630394
Neighbor list builds = 217078
Dangerous builds = 0

write_data outputs/${tag}_final.data
write_data outputs/7LYJ_aso_n100_final.data
System init for write_data ...
Generated 0 of 6 mixed pair_coeff terms from geometric mixing rule
Total wall time: 1:36:11
