
# --- Force field -------------------------------------------------
bond_style  harmonic
bond_coeff  1 7.5 5.9

angle_style harmonic
angle_coeff 1 5.0 150.0

pair_style  hybrid/overlay lj/cut 10.0 base/rna 18.0
pair_modify shift yes

pair_coeff * * lj/cut 2.0 8.9089871814

pair_coeff 1 1 base/rna 0.00000 3.0 13.8 1.5 0.5 1.8326 0.9425 1.8326 1.1345
pair_coeff 1 2 base/rna 0.00000 3.0 13.8 1.5 0.5 1.8326 0.9425 1.8326 1.1345
pair_coeff 1 3 base/rna 0.00000 3.0 13.8 1.5 0.5 1.8326 0.9425 1.8326 1.1345
pair_coeff 1 4 base/rna 3.33333 3.0 13.8 1.5 0.5 1.8326 0.9425 1.8326 1.1345
pair_coeff 2 2 base/rna 0.00000 3.0 13.8 1.5 0.5 1.8326 0.9425 1.8326 1.1345
pair_coeff 2 3 base/rna 5.00000 3.0 13.8 1.5 0.5 1.8326 0.9425 1.8326 1.1345
pair_coeff 2 4 base/rna 0.00000 3.0 13.8 1.5 0.5 1.8326 0.9425 1.8326 1.1345
pair_coeff 3 3 base/rna 0.00000 3.0 13.8 1.5 0.5 1.8326 0.9425 1.8326 1.1345
pair_coeff 3 4 base/rna 3.33333 3.0 13.8 1.5 0.5 1.8326 0.9425 1.8326 1.1345
pair_coeff 4 4 base/rna 0.00000 3.0 13.8 1.5 0.5 1.8326 0.9425 1.8326 1.1345

# --- Minimization ------------------------------------------------
minimize 1.0e-4 1.0e-6 1000 10000

CITE-CITE-CITE-CITE-CITE-CITE-CITE-CITE-CITE-CITE-CITE-CITE-CITE

Your simulation uses code contributions which should be cited:

- Type Label Framework: https://doi.org/10.1021/acs.jpcb.3c08419

@Article{Gissinger24,
 author = {Jacob R. Gissinger, Ilia Nikiforov, Yaser Afshar, Brendon Waters, Moon-ki Choi, Daniel S. Karls, Alexander Stukowski, Wonpil Im, Hendrik Heinz, Axel Kohlmeyer, and Ellad B. Tadmor},
 title = {Type Label Framework for Bonded Force Fields in LAMMPS},
 journal = {J. Phys. Chem. B},
 year =    2024,
 volume =  128,
 number =  13,
 pages =   {3282–-3297}
}

CITE-CITE-CITE-CITE-CITE-CITE-CITE-CITE-CITE-CITE-CITE-CITE-CITE

Switching to 'neigh_modify every 1 delay 0 check yes' setting during minimization
Generated 0 of 6 mixed pair_coeff terms from geometric mixing rule
Neighbor list info ...
  update: every = 1 steps, delay = 0 steps, check = yes
  max neighbors/atom: 2000, page size: 100000
  master list distance cutoff = 33
  ghost atom cutoff = 33
  binsize = 16.5, bins = 17 17 17
  2 neighbor lists, perpetual/occasional/extra = 2 0 0
  (1) pair lj/cut, perpetual, trim from (2)
      attributes: half, newton on, cut 25
      pair build: trim
      stencil: none
      bin: none
  (2) pair base/rna, perpetual
      attributes: half, newton on
      pair build: half/bin/newton
      stencil: half/bin/3d
      bin: standard
Per MPI rank memory allocation (min/avg/max) = 8.413 | 8.413 | 8.414 Mbytes
   Step          Temp          E_pair         E_mol          TotEng         Press     
         0   0              2323.8455      106.76145      2430.607       32.760119    
       203   0             -117.99069      53.336384     -64.654302      0.003459405  
Loop time of 0.019975 on 4 procs for 203 steps with 116 atoms

95.0% CPU use with 4 MPI tasks x 1 OpenMP threads

Minimization stats:
  Stopping criterion = energy tolerance
  Energy initial, next-to-last, final = 
      2430.60696032064  -64.6483223063695  -64.6543023677489
  Force two-norm initial, final = 5888.4578 0.46128712
  Force max component initial, final = 2667.2637 0.10230746
  Final line search alpha, max atom move = 0.26088273 0.02669025
  Iterations, force evaluations = 203 345

MPI task timing breakdown:
Section |  min time  |  avg time  |  max time  |%varavg| %total
---------------------------------------------------------------
Pair    | 0.0080024  | 0.010396   | 0.013536   |   2.2 | 52.04
Bond    | 0.00050738 | 0.00086008 | 0.0011186  |   0.0 |  4.31
Neigh   | 0          | 0          | 0          |   0.0 |  0.00
Comm    | 0.0034909  | 0.0067682  | 0.0089819  |   2.8 | 33.88
Output  | 0          | 0          | 0          |   0.0 |  0.00
Modify  | 0          | 0          | 0          |   0.0 |  0.00
Other   |            | 0.001951   |            |       |  9.77

Nlocal:             29 ave          37 max          16 min
Histogram: 1 0 0 0 0 1 0 0 0 2
Nghost:           77.5 ave          84 max          63 min
Histogram: 1 0 0 0 0 0 0 0 1 2
Neighs:          255.5 ave         356 max         189 min
Histogram: 1 1 0 0 1 0 0 0 0 1

Total # of neighbors = 1022
Ave neighs/atom = 8.8103448
Ave special neighs/atom = 5.3793103
Neighbor list builds = 0
Dangerous builds = 0
reset_timestep 0

# --- Output setup ------------------------------------------------
dump d1 all custom 50000 outputs/${tag}.lammpstrj id mol type q xu yu zu
dump d1 all custom 50000 outputs/7LYJ_aso_n5.lammpstrj id mol type q xu yu zu
dump_modify d1 sort id

thermo_style custom step pe ke etotal temp press density
thermo       10000
thermo_modify flush yes

variable vpe equal pe
variable vke equal ke
variable vT  equal temp
variable vE  equal etotal
variable vRg equal gyration(all)

fix favg all ave/time 10000 10 100000 v_vpe v_vke v_vT v_vE v_vRg     file outputs/thermo_${tag}_averaged.dat
fix favg all ave/time 10000 10 100000 v_vpe v_vke v_vT v_vE v_vRg     file outputs/thermo_7LYJ_aso_n5_averaged.dat

# --- NVT equilibration (50 ns) -----------------------------------
velocity all create ${T_target} 65213 rot yes dist gaussian
velocity all create 300 65213 rot yes dist gaussian

fix fxlang all langevin ${T_target} ${T_target} 1000.0 20121
fix fxlang all langevin 300 ${T_target} 1000.0 20121
fix fxlang all langevin 300 300 1000.0 20121
fix fxnve  all nve
fix recenter all momentum 1000 linear 1 1 1

run 5000000
Generated 0 of 6 mixed pair_coeff terms from geometric mixing rule
Per MPI rank memory allocation (min/avg/max) = 7.304 | 7.304 | 7.304 Mbytes
   Step         PotEng         KinEng         TotEng          Temp          Press         Density    
         0  -64.654302      102.83795      38.183644      300            0.21760648     0.002856487  
     10000  -18.745234      102.39531      83.650074      298.70873      0.1814859      0.002856487  
     20000  -3.2250589      100.85143      97.626374      294.20492      0.29772171     0.002856487  
     30000  -18.556318      105.44543      86.889112      307.60658     -0.43720017     0.002856487  
     40000  -12.105633      109.57257      97.466936      319.64631     -0.079015771    0.002856487  
     50000  -16.741323      102.60867      85.867347      299.33115     -0.038160779    0.002856487  
     60000  -9.5960513      107.94761      98.351558      314.90596      0.14634959     0.002856487  
     70000  -12.673746      110.53518      97.861432      322.45445      0.79994116     0.002856487  
     80000   2.5765542      111.82956      114.40612      326.23045     -0.010844675    0.002856487  
     90000  -10.451342      99.436405      88.985063      290.07698     -0.555562       0.002856487  
    100000  -8.8824552      104.68454      95.802086      305.38691     -0.36467738     0.002856487  
    110000  -24.508882      103.27211      78.763227      301.26654      0.4384705      0.002856487  
    120000  -12.530127      103.69159      91.161467      302.49027     -0.08187116     0.002856487  
    130000  -25.886065      100.64882      74.76275       293.61384      0.28245775     0.002856487  
    140000  -10.380507      95.371394      84.990887      278.21849      0.12152583     0.002856487  
    150000  -15.198851      92.93344       77.734589      271.10646      0.32585284     0.002856487  
    160000  -26.683383      109.62409      82.94071       319.79662     -0.137291       0.002856487  
    170000   3.0394244      109.72853      112.76796      320.1013       0.06932136     0.002856487  
    180000  -15.424695      101.6115       86.186809      296.42221     -0.16789893     0.002856487  
    190000  -4.1725539      112.36292      108.19037      327.78636     -0.48205247     0.002856487  
    200000   21.943734      104.84102      126.78475      305.84338      0.20207284     0.002856487  
    210000  -6.5270924      103.34807      96.820973      301.48813      0.15119189     0.002856487  
    220000   1.4716875      96.448949      97.920637      281.36195     -0.094829215    0.002856487  
    230000  -25.661119      99.08943       73.428311      289.06479     -0.1694334      0.002856487  
    240000  -4.0298382      112.08874      108.0589       326.98651     -0.15224227     0.002856487  
    250000  -16.923473      107.49712      90.573645      313.59179      0.36177734     0.002856487  
    260000  -16.764309      92.323167      75.558859      269.32617      0.0032002126   0.002856487  
    270000  -5.1959923      91.114369      85.918377      265.79985      0.2420308      0.002856487  
    280000   7.7760644      104.09448      111.87055      303.66558      0.038533031    0.002856487  
    290000  -18.913451      103.12953      84.216081      300.85061      0.056488961    0.002856487  
    300000   3.7402228      109.63269      113.37292      319.82171      0.028436473    0.002856487  
    310000  -6.0839209      109.28033      103.19641      318.7938      -0.16012527     0.002856487  
    320000  -7.1850649      99.690886      92.505822      290.81936      0.43442884     0.002856487  
    330000  -5.698045       97.35096       91.652915      283.9933       0.2132327      0.002856487  
    340000  -16.638783      97.549328      80.910545      284.57198     -0.14036374     0.002856487  
    350000  -5.9745447      100.09878      94.124236      292.00927     -0.27497486     0.002856487  
    360000  -20.48776       108.21361      87.725852      315.68195      0.63226147     0.002856487  
    370000  -17.346138      97.726923      80.380785      285.09007      0.13678041     0.002856487  
    380000  -2.299614       108.66826      106.36865      317.00826     -0.18948865     0.002856487  
    390000  -17.401001      99.263828      81.862827      289.57354      0.44554511     0.002856487  
    400000  -25.178243      107.15849      81.980249      312.60394      0.043989213    0.002856487  
    410000  -6.4850651      95.42044       88.935375      278.36157     -0.55106959     0.002856487  
    420000  -8.954978       110.13259      101.17761      321.28002      0.2251651      0.002856487  
    430000  -15.346883      96.382218      81.035336      281.16728     -0.061853372    0.002856487  
    440000   3.2278819      101.51294      104.74082      296.13467     -0.069945195    0.002856487  
    450000  -6.2479755      104.36998      98.122007      304.46927      0.13833185     0.002856487  
    460000  -1.8626894      111.0054       109.14271      323.8262      -0.19213577     0.002856487  
    470000   3.7384238      107.67034      111.40877      314.09712      0.16924684     0.002856487  
    480000  -9.6998529      96.305884      86.606031      280.94459     -0.14790048     0.002856487  
    490000  -32.380343      107.38058      75.000235      313.25181      0.062222046    0.002856487  
    500000   2.4239703      123.25352      125.67749      359.55655     -0.18835441     0.002856487  
    510000  -6.0534669      95.334192      89.280725      278.10996      0.076631511    0.002856487  
    520000  -7.8397089      110.6702       102.83049      322.84833      0.27033544     0.002856487  
    530000  -8.1823018      112.4408       104.25849      328.01354     -0.09609954     0.002856487  
    540000  -5.6019697      105.27402      99.672052      307.10654     -0.055163479    0.002856487  
    550000  -1.6647975      107.04311      105.37832      312.26736      0.092757616    0.002856487  
    560000   22.169756      90.726648      112.8964       264.66878     -0.011969819    0.002856487  
    570000  -1.0090464      109.30148      108.29243      318.85548     -0.31538529     0.002856487  
    580000  -3.6127545      93.654916      90.042161      273.21116      0.19211435     0.002856487  
    590000  -10.031872      101.11138      91.079505      294.96323     -0.026019337    0.002856487  
    600000  -4.1780457      108.85084      104.67279      317.54088     -0.08926159     0.002856487  
    610000   8.3620122      99.9135        108.27551      291.46877      0.43202837     0.002856487  
    620000   0.37950334     105.31658      105.69609      307.23071      0.18765612     0.002856487  
    630000  -3.1784507      99.356865      96.178415      289.84495      0.12125795     0.002856487  
    640000   7.8942475      104.39472      112.28897      304.54144     -0.0026500749   0.002856487  
    650000  -1.8566377      105.02152      103.16489      306.36995     -0.40146022     0.002856487  
    660000  -24.175857      105.64157      81.465712      308.17876      0.025330303    0.002856487  
    670000  -14.513483      96.624701      82.111217      281.87465      0.042531212    0.002856487  
    680000  -3.7146831      98.920213      95.20553       288.57114     -0.016851334    0.002856487  
    690000  -1.0965132      105.66033      104.56382      308.23349      0.17385294     0.002856487  
    700000  -3.9478737      109.54892      105.60104      319.57732      0.20279689     0.002856487  
    710000   1.9422514      94.850182      96.792434      276.69801      0.43165417     0.002856487  
    720000   2.5675361      110.27143      112.83897      321.68504     -0.14226682     0.002856487  
    730000  -17.702371      107.53772      89.835347      313.71022      0.10332182     0.002856487  
    740000  -17.544077      103.63708      86.093004      302.33124     -0.12497115     0.002856487  
    750000  -12.291745      111.30866      99.016913      324.71085      0.43312545     0.002856487  
    760000  -13.316772      103.46828      90.151505      301.83881      0.23603592     0.002856487  
    770000  -0.76279833     104.20915      103.44635      304.0001      -0.22867772     0.002856487  
    780000   3.8476345      106.95994      110.80757      312.02471     -0.1617374      0.002856487  
    790000   7.8566773      112.91208      120.76875      329.38837     -0.1914085      0.002856487  
    800000   5.1978769      98.950211      104.14809      288.65866      0.37577024     0.002856487  
    810000   3.2262366      96.659773      99.88601       281.97696     -0.1470809      0.002856487  
    820000   15.408279      107.48642      122.8947       313.56058     -0.21093735     0.002856487  
    830000   5.9516967      107.26051      113.21221      312.90156      0.53379015     0.002856487  
    840000   25.096975      123.65565      148.75263      360.72965     -0.07763108     0.002856487  
    850000   8.0506076      101.36569      109.4163       295.70511     -0.12455528     0.002856487  
    860000   9.0164096      106.51944      115.53585      310.73969      0.021474826    0.002856487  
    870000   8.2549728      104.44171      112.69668      304.6785       0.37985097     0.002856487  
    880000   23.835718      102.69139      126.52711      299.57246     -0.32262245     0.002856487  
    890000   15.206497      110.04183      125.24833      321.01525     -0.26544635     0.002856487  
    900000   13.66239       109.42902      123.09141      319.22755      0.084961305    0.002856487  
    910000   22.802638      95.790155      118.59279      279.4401       0.048300649    0.002856487  
    920000   7.5376717      103.6469       111.18457      302.35989      0.015913357    0.002856487  
    930000   1.6168963      120.74859      122.36549      352.24914      0.098058431    0.002856487  
    940000   2.7717238      98.763291      101.53501      288.11337     -0.26107535     0.002856487  
    950000   11.645026      113.97776      125.62279      332.49719      0.0026201075   0.002856487  
    960000   16.841445      98.428266      115.26971      287.13603      0.023816413    0.002856487  
    970000   0.50420101     99.764949      100.26915      291.03542      0.016935117    0.002856487  
    980000   14.871969      92.699155      107.57112      270.423       -0.25441703     0.002856487  
    990000   8.7926781      93.936693      102.72937      274.03316      0.060283837    0.002856487  
   1000000   0.63465229     94.416842      95.051494      275.43386      0.22701322     0.002856487  
   1010000   12.504696      102.98161      115.48631      300.4191       0.01401364     0.002856487  
   1020000   28.558413      110.16249      138.7209       321.36723     -0.13628238     0.002856487  
   1030000   10.564225      111.22287      121.7871       324.4606       0.44638356     0.002856487  
   1040000   14.924869      88.390701      103.31557      257.85434     -0.079079184    0.002856487  
   1050000   0.33259889     103.72432      104.05692      302.58573     -0.12038326     0.002856487  
   1060000   9.5339111      108.6148       118.14871      316.85231     -0.19877598     0.002856487  
   1070000   6.0201624      113.41699      119.43715      330.86131      0.078326782    0.002856487  
   1080000   29.700866      110.04098      139.74184      321.01276     -0.27416945     0.002856487  
   1090000  -5.2083087      116.92363      111.71532      341.09091     -0.5498687      0.002856487  
   1100000  -5.715529       107.25166      101.53614      312.87575      0.38462655     0.002856487  
   1110000  -4.0467008      103.56692      99.52022       302.12657     -0.31624919     0.002856487  
   1120000  -13.071417      102.99467      89.923255      300.4572       0.29865034     0.002856487  
   1130000   18.96366       95.746268      114.70993      279.31208      0.047474762    0.002856487  
   1140000  -1.4157749      98.296472      96.880697      286.75156      0.0083910487   0.002856487  
   1150000   7.1739112      91.881889      99.0558        268.03887      0.37735011     0.002856487  
   1160000   10.141859      111.17955      121.32141      324.33423     -0.3027193      0.002856487  
   1170000   6.0074005      100.07911      106.08651      291.95189      0.15682538     0.002856487  
   1180000   10.734138      102.24751      112.98165      298.27758      0.52164867     0.002856487  
   1190000   17.240819      103.99746      121.23828      303.38255      0.2865733      0.002856487  
   1200000   10.350111      86.914192      97.264303      253.54705     -0.068360601    0.002856487  
   1210000   18.648974      111.54722      130.19619      325.40679     -0.28438941     0.002856487  
   1220000   1.3613904      97.900799      99.262189      285.5973       0.30900724     0.002856487  
   1230000   16.781323      111.56162      128.34295      325.44881     -0.2642495      0.002856487  
   1240000   7.9391103      92.48634       100.42545      269.80218     -0.15827388     0.002856487  
   1250000   21.848346      110.51071      132.35906      322.38307     -0.3083846      0.002856487  
   1260000   15.704357      117.89377      133.59813      343.92102     -0.13756128     0.002856487  
   1270000   19.823951      96.010382      115.83433      280.08255     -0.071409773    0.002856487  
   1280000  -5.9390752      92.95531       87.016235      271.17026     -0.25321208     0.002856487  
   1290000   2.7591026      103.97738      106.73648      303.32395     -0.18771388     0.002856487  
   1300000   3.4040059      108.06754      111.47154      315.25582      0.33670505     0.002856487  
   1310000  -5.1559813      97.188074      92.032093      283.51813      0.2440829      0.002856487  
   1320000   9.9183834      94.140036      104.05842      274.62636      0.018422552    0.002856487  
   1330000   7.1922576      96.796817      103.98907      282.37675      0.34700282     0.002856487  
   1340000   9.2307721      101.02096      110.25173      294.69946     -0.33897268     0.002856487  
   1350000   7.7434213      103.27233      111.01575      301.2672       0.23436336     0.002856487  
   1360000   12.388341      96.647256      109.0356       281.94045      0.11755746     0.002856487  
   1370000  -12.107087      103.65947      91.552385      302.39657      0.10839763     0.002856487  
   1380000   4.4295748      95.417279      99.846854      278.35234      0.049101769    0.002856487  
   1390000  -17.964827      106.50792      88.543096      310.7061      -0.023596719    0.002856487  
   1400000  -3.6597828      102.71238      99.052602      299.63371     -0.22443286     0.002856487  
   1410000  -11.939616      93.842059      81.902443      273.7571      -0.078084775    0.002856487  
   1420000  -8.4250827      102.32537      93.900283      298.50469     -0.15539729     0.002856487  
   1430000  -2.656188       101.50763      98.851438      296.11917     -0.25448312     0.002856487  
   1440000   1.4721676      112.57327      114.04544      328.39999      0.097487703    0.002856487  
   1450000  -0.85503357     100.315        99.459969      292.64004      0.086375434    0.002856487  
   1460000  -1.8720147      96.262226      94.390212      280.81724     -0.0057692715   0.002856487  
   1470000   0.78270399     107.40174      108.18444      313.31354     -0.19433967     0.002856487  
   1480000   6.5980152      104.15971      110.75772      303.85585     -0.11926964     0.002856487  
   1490000   1.001205       92.450877      93.452082      269.69873     -0.21141053     0.002856487  
   1500000  -3.3899819      108.26313      104.87315      315.82641     -0.044451437    0.002856487  
   1510000  -14.060566      98.236125      84.175559      286.57551      0.17732572     0.002856487  
   1520000   4.4846886      91.918751      96.403439      268.1464       0.3794325      0.002856487  
   1530000  -9.6036493      105.62167      96.018024      308.12072      0.30265663     0.002856487  
   1540000  -9.6361101      100.83135      91.19524       294.14633     -0.15123896     0.002856487  
   1550000  -6.9800879      103.55166      96.571573      302.08206      0.22478501     0.002856487  
   1560000  -4.1583729      96.524517      92.366144      281.58239     -0.19247827     0.002856487  
   1570000  -8.5805758      114.29413      105.71355      333.4201      -0.54635226     0.002856487  
   1580000  -11.11436       103.8042       92.689838      302.81876      0.18451172     0.002856487  
   1590000  -19.620572      93.455126      73.834555      272.62833     -0.013808847    0.002856487  
   1600000  -1.8579322      93.781512      91.92358       273.58047     -0.22500571     0.002856487  
   1610000  -6.0541534      97.226907      91.172754      283.63141     -0.3264168      0.002856487  
   1620000  -2.3450086      118.37165      116.02664      345.31508     -0.27191354     0.002856487  
   1630000  -11.40173       113.38948      101.98775      330.78106      0.25338242     0.002856487  
   1640000   4.3725784      91.84035       96.212928      267.91769     -0.42678139     0.002856487  
   1650000   2.1854638      98.823741      101.00921      288.28971     -0.057411211    0.002856487  
   1660000  -11.045438      93.727797      82.682359      273.42377      0.23255597     0.002856487  
   1670000  -8.332801       113.73371      105.40091      331.78524     -0.45792502     0.002856487  
   1680000  -9.3319929      107.73135      98.399357      314.27509      0.33229362     0.002856487  
   1690000   2.9562227      108.75752      111.71374      317.26864      0.39987149     0.002856487  
   1700000  -27.312892      100.89997      73.587077      294.34651     -0.13465155     0.002856487  
   1710000  -7.7257646      93.37647       85.650705      272.39887     -0.2922421      0.002856487  
   1720000  -14.277613      107.04325      92.765636      312.26776      0.15551862     0.002856487  
   1730000   15.789266      99.167607      114.95687      289.29284     -0.17924177     0.002856487  
   1740000   17.273406      94.553185      111.82659      275.8316      -0.078790509    0.002856487  
   1750000  -4.3797152      111.27913      106.89942      324.62473     -0.21643618     0.002856487  
   1760000  -6.6872782      113.39228      106.705        330.78922     -0.38439805     0.002856487  
   1770000  -3.7922448      104.79015      100.99791      305.695       -0.49789284     0.002856487  
   1780000  -3.8605122      103.74728      99.886764      302.65271      0.18586718     0.002856487  
   1790000   1.1300085      105.99601      107.12602      309.21273     -0.044202198    0.002856487  
   1800000  -6.7566411      105.15995      98.40331       306.77378     -0.19937874     0.002856487  
   1810000  -0.0051899751   110.97182      110.96663      323.72823      0.57665855     0.002856487  
   1820000  -9.3929545      104.20004      94.807081      303.9735       0.11827995     0.002856487  
   1830000  -3.6465553      93.100216      89.45366       271.59298     -0.20104792     0.002856487  
   1840000  -4.9355021      121.20722      116.27172      353.58705     -0.32403677     0.002856487  
   1850000   3.9963468      101.45222      105.44857      295.95754     -0.4635945      0.002856487  
   1860000  -8.4600673      103.55995      95.09988       302.10623      0.085353377    0.002856487  
   1870000  -16.67106       114.77712      98.106058      334.82908      0.73688555     0.002856487  
   1880000   5.9024141      94.261086      100.1635       274.97949     -0.038327577    0.002856487  
   1890000   6.2790012      107.9359       114.2149       314.87181     -0.034938026    0.002856487  
   1900000   1.5290778      101.40876      102.93783      295.83075     -0.092377427    0.002856487  
   1910000   4.3315221      91.91238       96.243902      268.12781      0.33971651     0.002856487  
   1920000  -11.763113      105.39466      93.631544      307.45846     -0.31207757     0.002856487  
   1930000   1.7875088      124.42748      126.21499      362.98122      0.09610067     0.002856487  
   1940000  -5.0107486      90.625405      85.614656      264.37344      0.073187291    0.002856487  
   1950000  -2.7175573      101.67907      98.961516      296.61932      0.094892324    0.002856487  
   1960000  -5.6865732      99.327807      93.641233      289.76018      0.13231536     0.002856487  
   1970000  -5.3863313      102.88521      97.498874      300.13786     -0.052604868    0.002856487  
   1980000   7.9410759      94.505169      102.44625      275.69153      0.10281404     0.002856487  
   1990000   5.9990309      96.219585      102.21862      280.69284      0.026528488    0.002856487  
   2000000   27.100479      97.180287      124.28077      283.49541     -0.099001073    0.002856487  
   2010000   9.7690031      111.79549      121.56449      326.13104      0.11609341     0.002856487  
   2020000  -2.381245       93.328178      90.946933      272.258        0.099498147    0.002856487  
   2030000  -7.0433199      90.307789      83.264469      263.44689     -0.44410393     0.002856487  
   2040000   16.553457      102.64002      119.19348      299.42262      0.022299169    0.002856487  
   2050000   4.2085116      101.6884       105.89691      296.64654      0.32937495     0.002856487  
   2060000   1.9046131      95.737275      97.641888      279.28584     -0.15907328     0.002856487  
   2070000  -0.94608469     103.00406      102.05797      300.48457     -0.022019522    0.002856487  
   2080000   19.586655      97.441337      117.02799      284.25695     -0.1626384      0.002856487  
   2090000  -8.3427563      100.61485      92.272094      293.51476     -0.074863843    0.002856487  
   2100000  -8.1174005      113.91357      105.79617      332.30993     -0.27156335     0.002856487  
   2110000  -6.620805       100.49533      93.874524      293.16609     -0.21303379     0.002856487  
   2120000  -15.682099      101.37981      85.697708      295.7463      -0.16399283     0.002856487  
   2130000  -10.660786      100.00776      89.346972      291.74374      0.032607317    0.002856487  
   2140000  -20.861513      89.4142        68.552686      260.8401      -0.082260575    0.002856487  
   2150000  -6.858016       110.94862      104.09061      323.66055     -0.43068938     0.002856487  
   2160000  -0.78443316     99.093026      98.308593      289.07528     -0.11225636     0.002856487  
   2170000  -21.24538       98.774434      77.529054      288.14587      0.40391581     0.002856487  
   2180000  -5.8841135      115.6614       109.77728      337.40871      0.29392912     0.002856487  
   2190000  -20.692381      105.5504       84.85802       307.9128       0.20971491     0.002856487  
   2200000  -16.867763      113.88186      97.014096      332.21742      0.46415538     0.002856487  
   2210000  -6.6432814      103.01673      96.373446      300.52154     -0.34256066     0.002856487  
   2220000  -1.8450286      99.177056      97.332027      289.32041     -0.069795444    0.002856487  
   2230000  -8.4815665      104.81482      96.333253      305.76696     -0.2721486      0.002856487  
   2240000  -23.599654      91.95527       68.355616      268.25293     -0.43533202     0.002856487  
   2250000  -2.3439065      93.577405      91.233499      272.98505     -0.34962432     0.002856487  
   2260000   1.7435301      89.24049       90.98402       260.33335      0.2237423      0.002856487  
   2270000  -26.534581      90.692311      64.15773       264.56862     -0.067605282    0.002856487  
   2280000  -3.5602456      107.07348      103.51323      312.35594      0.017180553    0.002856487  
   2290000  -9.1710312      103.79004      94.619006      302.77745     -0.49328421     0.002856487  
   2300000   4.0918587      96.261432      100.35329      280.81492     -0.066583879    0.002856487  
   2310000  -0.23297893     91.714796      91.481817      267.55142     -0.39673459     0.002856487  
   2320000  -9.6573292      96.620355      86.963025      281.86197      0.0050923569   0.002856487  
   2330000  -16.699815      97.139388      80.439573      283.3761      -0.36796573     0.002856487  
   2340000  -3.1804551      100.92789      97.747433      294.42795     -0.12207069     0.002856487  
   2350000  -4.4512817      101.91983      97.468547      297.32166      0.50353477     0.002856487  
   2360000  -4.4795029      91.384868      86.905365      266.58895      0.30266425     0.002856487  
   2370000  -14.21791       92.193348      77.975437      268.94746     -0.60258454     0.002856487  
   2380000   2.0896523      89.646906      91.736558      261.51895     -0.055589902    0.002856487  
   2390000  -22.872318      96.686991      73.814673      282.05636      0.27399173     0.002856487  
   2400000  -10.194056      100.41515      90.221099      292.9322       0.16828967     0.002856487  
   2410000  -14.644902      102.53038      87.885483      299.10278      0.30409601     0.002856487  
   2420000  -18.123552      88.121348      69.997797      257.06858     -0.14258198     0.002856487  
   2430000  -4.6506308      106.12649      101.47586      309.59337     -0.2969677      0.002856487  
   2440000  -24.131044      105.69176      81.560719      308.32519     -0.67828162     0.002856487  
   2450000  -7.0140723      97.528538      90.514466      284.51133      0.098748229    0.002856487  
   2460000  -17.485873      118.31507      100.82919      345.15002     -0.31345427     0.002856487  
   2470000  -5.2752185      97.62563       92.350412      284.79457      0.08918151     0.002856487  
   2480000  -7.8940047      100.68427      92.790261      293.71726      0.016612697    0.002856487  
   2490000   13.207062      111.49456      124.70162      325.25316     -0.010352257    0.002856487  
   2500000  -2.0490507      94.632838      92.583787      276.06397     -0.2571371      0.002856487  
   2510000  -1.214505       103.90587      102.69136      303.11535     -0.011730531    0.002856487  
   2520000   14.381554      107.87125      122.2528       314.6832      -0.083806534    0.002856487  
   2530000   9.6807077      106.06162      115.74233      309.40415     -0.26969766     0.002856487  
   2540000   8.7685627      95.035609      103.80417      277.23894     -0.1775258      0.002856487  
   2550000   0.044606898    116.64683      116.69144      340.28344      0.0011468992   0.002856487  
   2560000   7.4708943      93.951353      101.42225      274.07593     -0.39837915     0.002856487  
   2570000  -11.342106      118.94036      107.59825      346.97413      0.079267388    0.002856487  
   2580000   0.25629366     94.490529      94.746823      275.64882      0.14401307     0.002856487  
   2590000  -1.2373799      111.66548      110.4281       325.75178      0.31647369     0.002856487  
   2600000   5.3995575      90.404167      95.803724      263.72804     -0.010133414    0.002856487  
   2610000  -9.9124275      88.201342      78.288915      257.30194      0.18601162     0.002856487  
   2620000  -30.747406      100.20326      69.455857      292.31407     -8.5093789e-05  0.002856487  
   2630000  -18.586199      101.15611      82.569907      295.09372     -0.21231494     0.002856487  
   2640000  -2.486264       96.887818      94.401554      282.64222      0.074129959    0.002856487  
   2650000  -11.229594      107.8642       96.634602      314.66263     -0.20616063     0.002856487  
   2660000  -26.682244      105.82014      79.137899      308.6997       0.41363613     0.002856487  
   2670000  -11.920526      121.46503      109.54451      354.33915     -0.043963125    0.002856487  
   2680000   0.18947425     103.74443      103.93391      302.64441      0.11622014     0.002856487  
   2690000   13.370702      102.63927      116.00997      299.42042      0.19326733     0.002856487  
   2700000  -2.5033712      93.499013      90.995642      272.75636     -0.53618653     0.002856487  
   2710000   2.9532832      109.87869      112.83197      320.53933      0.33494186     0.002856487  
   2720000   1.2148434      98.641852      99.856695      287.75911     -0.17604785     0.002856487  
   2730000  -8.5042164      96.724861      88.220644      282.16684      0.19225327     0.002856487  
   2740000  -3.5751352      99.103523      95.528387      289.1059      -0.014173234    0.002856487  
   2750000   3.3656309      114.71168      118.07731      334.6382       0.055161255    0.002856487  
   2760000  -4.2863004      108.83405      104.54775      317.49189     -0.086296153    0.002856487  
   2770000  -12.477687      96.986972      84.509285      282.93147     -0.1677779      0.002856487  
   2780000   23.207952      103.80686      127.01482      302.82653     -0.055010547    0.002856487  
   2790000   8.4783232      100.29441      108.77273      292.57997      0.40490215     0.002856487  
   2800000   11.480552      102.40678      113.88733      298.74218     -0.053591204    0.002856487  
   2810000   12.415389      110.04503      122.46041      321.02457      0.55587461     0.002856487  
   2820000   13.193934      102.39968      115.59362      298.72149      0.054032554    0.002856487  
   2830000  -5.8470207      106.56974      100.72272      310.88644     -0.53058194     0.002856487  
   2840000  -4.3645293      98.967263      94.602733      288.7084       0.00035316749  0.002856487  
   2850000   4.4053709      113.98147      118.38684      332.50801     -0.14041547     0.002856487  
   2860000   3.5017867      102.17442      105.67621      298.06435     -0.6203303      0.002856487  
   2870000   7.0241875      106.92997      113.95416      311.93729      0.21317114     0.002856487  
   2880000   11.010868      104.71071      115.72158      305.46324      0.20128429     0.002856487  
   2890000  -15.865299      98.483238      82.617939      287.29639     -0.36072404     0.002856487  
   2900000   10.962068      99.961493      110.92356      291.60878      0.32438653     0.002856487  
   2910000   3.0250952      97.523732      100.54883      284.49732      0.19874443     0.002856487  
   2920000   7.0119891      94.390437      101.40243      275.35683      0.56164899     0.002856487  
   2930000   7.2988139      94.27334       101.57215      275.01523      0.52630642     0.002856487  
   2940000   8.7858521      101.63046      110.41631      296.47751      0.42066137     0.002856487  
   2950000   7.284721       101.87232      109.15704      297.18307      0.16071467     0.002856487  
   2960000   1.3422332      90.51149       91.853723      264.04112      0.2784845      0.002856487  
   2970000  -2.9367584      100.76329      97.826529      293.94778      0.55610951     0.002856487  
   2980000   5.2461553      109.48741      114.73356      319.39788      0.088372495    0.002856487  
   2990000  -3.0903062      118.61483      115.52453      346.02451      0.19304764     0.002856487  
   3000000  -4.8719173      113.78137      108.90946      331.92428     -0.095183221    0.002856487  
   3010000   0.95264512     95.016909      95.969554      277.18438      0.16663198     0.002856487  
   3020000  -2.6786233      102.06525      99.386623      297.74587     -0.16290973     0.002856487  
   3030000  -4.1032012      112.50731      108.4041       328.20756      0.12581767     0.002856487  
   3040000  -1.6671694      102.68249      101.01532      299.5465      -0.014601126    0.002856487  
   3050000  -6.0455556      102.21953      96.173972      298.19594      0.14869757     0.002856487  
   3060000   1.3521094      110.74735      112.09946      323.0734       0.052134768    0.002856487  
   3070000  -10.326336      98.66956       88.343224      287.83993      0.13729208     0.002856487  
   3080000  -8.9991242      104.42359      95.424463      304.62565     -0.072820962    0.002856487  
   3090000   9.3588655      113.49612      122.85498      331.09214      0.5578537      0.002856487  
   3100000   3.4131807      99.59423       103.00741      290.53739     -0.20243431     0.002856487  
   3110000  -6.5961287      93.918657      87.322528      273.98055      0.44962698     0.002856487  
   3120000   4.5200971      109.40412      113.92422      319.15491     -0.33836289     0.002856487  
   3130000   0.61732135     109.17341      109.79073      318.48189      0.20895306     0.002856487  
   3140000  -9.6441331      94.844778      85.200645      276.68224      0.3660095      0.002856487  
   3150000   1.4506816      116.03477      117.48546      338.49793      0.37081721     0.002856487  
   3160000  -0.155534       107.88599      107.73046      314.72622     -0.092945125    0.002856487  
   3170000   2.4319034      105.28025      107.71216      307.12472     -0.23771571     0.002856487  
   3180000  -0.56950805     107.62665      107.05715      313.96967     -0.17861398     0.002856487  
   3190000  -10.553118      110.03789      99.484767      321.00374      0.26561228     0.002856487  
   3200000  -4.1364445      110.65792      106.52148      322.81251      0.065940757    0.002856487  
   3210000   9.2090625      110.81775      120.02682      323.27878     -0.22781911     0.002856487  
   3220000   13.586576      107.38922      120.9758       313.27703      0.26158326     0.002856487  
   3230000   8.1404557      98.173987      106.31444      286.39424     -0.10964911     0.002856487  
   3240000   15.172346      94.915612      110.08796      276.88888      0.36207024     0.002856487  
   3250000   19.176449      102.0704       121.24685      297.76091     -0.19151105     0.002856487  
   3260000   9.2960656      95.241496      104.53756      277.83955     -0.28671244     0.002856487  
   3270000   7.8894356      92.56746       100.4569       270.03882      0.016187112    0.002856487  
   3280000  -1.2824476      102.53244      101.25         299.10878      0.17984705     0.002856487  
   3290000   12.306355      95.86276       108.16912      279.65191      0.081254247    0.002856487  
   3300000   5.5769038      105.78236      111.35927      308.58948      0.0077163845   0.002856487  
   3310000  -7.0946618      96.116049      89.021387      280.3908       0.25697456     0.002856487  
   3320000   8.7426365      117.21043      125.95307      341.92757     -0.22679481     0.002856487  
   3330000   3.630038       107.73668      111.36672      314.29065     -0.19418913     0.002856487  
   3340000   17.170827      114.28557      131.4564       333.39513      0.28977108     0.002856487  
   3350000  -14.264589      106.63853      92.373936      311.08709     -0.27042761     0.002856487  
   3360000  -11.226595      107.82861      96.602013      314.55881     -0.42509561     0.002856487  
   3370000  -10.991812      96.427665      85.435853      281.29986      0.32650195     0.002856487  
   3380000  -8.4894174      83.041032      74.551614      242.24822     -0.21590393     0.002856487  
   3390000   2.0634575      98.774515      100.83797      288.14611      0.19534519     0.002856487  
   3400000  -18.840607      104.63566      85.795057      305.24432     -0.03910364     0.002856487  
   3410000  -19.099371      99.273669      80.174297      289.60225      0.33477441     0.002856487  
   3420000  -4.1904966      110.04199      105.85149      321.01571     -0.30711621     0.002856487  
   3430000  -14.162041      97.24772       83.085679      283.69213     -0.10375101     0.002856487  
   3440000  -5.9345921      96.409168      90.474576      281.24589     -0.41313466     0.002856487  
   3450000   4.355257       85.511701      89.866958      249.45568     -0.029898761    0.002856487  
   3460000  -11.760497      105.07376      93.313266      306.52235      0.061663472    0.002856487  
   3470000  -12.881244      114.73122      101.84998      334.6952      -0.22291813     0.002856487  
   3480000  -3.5866883      114.1176       110.53092      332.90514     -0.052026399    0.002856487  
   3490000  -5.1305862      108.80614      103.67556      317.41049      0.19897667     0.002856487  
   3500000  -17.703823      91.50475       73.800927      266.93867      0.46493385     0.002856487  
   3510000  -0.69331085     81.661933      80.968623      238.2251       0.054419374    0.002856487  
   3520000  -15.899941      96.457165      80.557224      281.38591      0.013249111    0.002856487  
   3530000  -15.076989      101.93676      86.859776      297.37106     -0.23433165     0.002856487  
   3540000  -8.5269288      109.07849      100.55156      318.20498      0.21871815     0.002856487  
   3550000  -29.035347      100.48016      71.444813      293.12184     -0.17200951     0.002856487  
   3560000  -19.524678      109.63233      90.10765       319.82064      0.02184487     0.002856487  
   3570000  -11.153554      100.52973      89.37618       293.26646      0.47443704     0.002856487  
   3580000  -0.19125768     107.86818      107.67692      314.67424     -0.25251436     0.002856487  
   3590000   0.67342942     103.02564      103.69907      300.54754      0.12942692     0.002856487  
   3600000   9.3929728      105.33246      114.72543      307.27701     -0.18351012     0.002856487  
   3610000  -9.4923947      98.965771      89.473376      288.70404      0.46149739     0.002856487  
   3620000  -2.9336098      101.40012      98.466509      295.80555     -0.66114579     0.002856487  
   3630000   5.7902881      104.02285      109.81314      303.45662     -0.37579303     0.002856487  
   3640000  -0.19178861     98.387739      98.195951      287.01781      0.015350724    0.002856487  
   3650000  -4.196024       95.411967      91.215943      278.33685     -0.35324767     0.002856487  
   3660000  -4.0565859      116.20348      112.1469       338.99009      0.4708837      0.002856487  
   3670000  -4.6921338      98.080757      93.388623      286.12227     -0.1664559      0.002856487  
   3680000  -4.1136832      102.31631      98.202622      298.47826      0.3193269      0.002856487  
   3690000  -10.90761       93.845007      82.937397      273.7657       0.39092203     0.002856487  
   3700000  -9.2571506      113.90053      104.64338      332.2719       0.2812977      0.002856487  
   3710000  -0.92986457     104.53157      103.60171      304.94066      0.13639434     0.002856487  
   3720000   5.8159349      99.778096      105.59403      291.07377      0.19222316     0.002856487  
   3730000   1.2883404      103.20107      104.48941      301.05929      0.14396906     0.002856487  
   3740000   4.1067931      96.944347      101.05114      282.80713      0.25728587     0.002856487  
   3750000  -8.1752659      102.51445      94.339188      299.0563      -0.050081837    0.002856487  
   3760000  -1.9865217      87.71754       85.731018      255.89058     -0.18798022     0.002856487  
   3770000  -1.2589978      100.72302      99.464026      293.83032      0.010415943    0.002856487  
   3780000   2.3515489      104.35915      106.71069      304.43766     -0.81810764     0.002856487  
   3790000  -1.5049442      110.02562      108.52068      320.96796      0.12716733     0.002856487  
   3800000   6.6341938      93.624939      100.25913      273.12371     -0.2368712      0.002856487  
   3810000  -4.0468411      99.336283      95.289442      289.78491     -0.16448037     0.002856487  
   3820000  -7.1453903      99.734451      92.589061      290.94645      0.17016029     0.002856487  
   3830000  -13.068941      91.28455       78.21561       266.2963      -0.17061998     0.002856487  
   3840000  -24.027076      105.75839      81.731316      308.51955      0.23094479     0.002856487  
   3850000   7.541233       102.01919      109.56042      297.61151      0.07536999     0.002856487  
   3860000   7.3065653      91.926233      99.232798      268.16823      0.2793129      0.002856487  
   3870000  -23.530992      89.768901      66.237909      261.87483      0.032413981    0.002856487  
   3880000  -18.094535      103.4553       85.360763      301.80095     -0.17347148     0.002856487  
   3890000  -7.0536194      112.6556       105.60198      328.64018      0.055406944    0.002856487  
   3900000  -22.07056       102.58823      80.517671      299.27153     -0.080157906    0.002856487  
   3910000   14.027191      112.17823      126.20542      327.24757     -0.2375931      0.002856487  
   3920000   0.87548685     101.29998      102.17546      295.51342      0.071470503    0.002856487  
   3930000  -8.4756861      98.473856      89.99817       287.26903     -0.54314762     0.002856487  
   3940000   1.5999127      100.7258       102.32572      293.83843      0.27352268     0.002856487  
   3950000  -23.24429       104.76566      81.521367      305.62354      0.6123384      0.002856487  
   3960000  -1.7903389      102.22083      100.43049      298.19975      0.077837932    0.002856487  
   3970000  -10.541463      94.378116      83.836653      275.32089     -0.19830816     0.002856487  
   3980000   16.113756      105.54785      121.66161      307.90536     -0.098750293    0.002856487  
   3990000   5.9771847      101.50416      107.48134      296.10906     -0.0072151537   0.002856487  
   4000000  -17.784518      101.83859      84.054072      297.08467     -0.18589257     0.002856487  
   4010000  -9.6509305      122.66923      113.0183       357.85203      0.39402217     0.002856487  
   4020000  -4.7976755      83.261164      78.463489      242.89039     -0.29507781     0.002856487  
   4030000  -17.706014      96.17788       78.471865      280.57118     -0.0857029      0.002856487  
   4040000  -17.160189      91.967884      74.807695      268.28973     -0.61622798     0.002856487  
   4050000  -15.406619      110.53584      95.129221      322.45638     -0.16875307     0.002856487  
   4060000  -12.132623      102.15766      90.025034      298.01545      0.36927284     0.002856487  
   4070000  -13.030332      108.54225      95.511916      316.64065     -0.27572572     0.002856487  
   4080000  -10.252526      107.02073      96.768199      312.20205      0.20636726     0.002856487  
   4090000  -11.14581       102.27294      91.127134      298.35177      0.046561554    0.002856487  
   4100000  -10.895215      96.978106      86.082891      282.90561     -0.26186739     0.002856487  
   4110000  -9.8494134      98.111803      88.26239       286.21284     -0.39068821     0.002856487  
   4120000  -4.5198108      90.99761       86.477799      265.45924      0.41447099     0.002856487  
   4130000  -2.5703772      96.725264      94.154887      282.16801     -0.27949377     0.002856487  
   4140000  -6.9360913      97.88033       90.944238      285.53758      0.26373081     0.002856487  
   4150000   4.3165066      113.72674      118.04324      331.7649      -0.054397296    0.002856487  
   4160000  -15.556452      106.28368      90.727226      310.05193     -0.26925936     0.002856487  
   4170000  -11.62991       93.90341       82.273499      273.93607      0.039810348    0.002856487  
   4180000   4.8890194      95.303441      100.19246      278.02026     -0.068206778    0.002856487  
   4190000  -8.8039534      112.6652       103.86124      328.66816     -0.27069527     0.002856487  
   4200000  -4.8856674      111.26279      106.37713      324.57706      0.0090024598   0.002856487  
   4210000  -2.7630113      92.180436      89.417425      268.90979     -0.078078429    0.002856487  
   4220000  -15.954759      112.27151      96.316747      327.51968     -0.029431213    0.002856487  
   4230000  -5.690408       106.81482      101.12441      311.60137     -0.47156119     0.002856487  
   4240000  -8.9217001      107.29613      98.374434      313.00547      0.1453942      0.002856487  
   4250000  -15.315084      109.45783      94.142749      319.31161      0.34458593     0.002856487  
   4260000  -12.694717      101.3226       88.627883      295.57941     -0.33083608     0.002856487  
   4270000  -6.9430395      88.533216      81.590177      258.27008      0.32153751     0.002856487  
   4280000   4.5440067      94.046232      98.590239      274.35271      0.21732011     0.002856487  
   4290000   3.9608286      96.530039      100.49087      281.5985      -0.039287482    0.002856487  
   4300000   5.2716683      105.3757       110.64737      307.40318      0.28197548     0.002856487  
   4310000   2.2950632      97.604329      99.899393      284.73243     -0.26013418     0.002856487  
   4320000  -10.228226      99.148982      88.920756      289.23851     -0.15542045     0.002856487  
   4330000   5.2576122      87.031547      92.28916       253.8894       0.026481315    0.002856487  
   4340000   3.1340681      119.70151      122.83558      349.19459      0.49568689     0.002856487  
   4350000  -7.1011307      98.036941      90.935811      285.99445      0.039545042    0.002856487  
   4360000   3.6900116      100.99104      104.68106      294.6122       0.13698415     0.002856487  
   4370000   1.0969796      108.8498       109.94678      317.53784     -0.022764425    0.002856487  
   4380000  -10.739704      104.66839      93.928688      305.33979      0.20082708     0.002856487  
   4390000  -13.612468      105.88399      92.271522      308.88595      0.37372598     0.002856487  
   4400000  -1.5727133      112.8738       111.30109      329.2767       0.0020815884   0.002856487  
   4410000  -19.226768      119.46843      100.24166      348.51464     -0.41631027     0.002856487  
   4420000   8.0680109      109.27231      117.34033      318.77041      0.13386805     0.002856487  
   4430000   16.189382      92.658883      108.84827      270.30552     -0.2031531      0.002856487  
   4440000   11.760231      121.20757      132.9678       353.58808      0.027917315    0.002856487  
   4450000  -0.16766952     95.740789      95.573119      279.29609     -0.065028137    0.002856487  
   4460000   23.583011      107.8006       131.38361      314.4771      -0.19387469     0.002856487  
   4470000  -5.0949557      103.73166      98.636706      302.60715     -0.15902584     0.002856487  
   4480000   3.9342899      104.95063      108.88492      306.16313      0.35315766     0.002856487  
   4490000   12.39551       91.729059      104.12457      267.59303     -0.0099293257   0.002856487  
   4500000   4.149851       85.054923      89.204774      248.12317      0.45920454     0.002856487  
   4510000   13.517119      109.64931      123.16643      319.87018     -0.27635397     0.002856487  
   4520000  -15.515288      96.339073      80.823785      281.04141      0.20199482     0.002856487  
   4530000  -2.5998824      101.98413      99.384251      297.50924     -0.17854916     0.002856487  
   4540000   6.8766378      100.42438      107.30101      292.95911     -0.1968502      0.002856487  
   4550000   21.670462      104.78637      126.45684      305.68397     -0.45308914     0.002856487  
   4560000   6.8369524      95.076051      101.913        277.35691      0.33752521     0.002856487  
   4570000   2.7540676      99.515089      102.26916      290.30652      0.16482759     0.002856487  
   4580000   8.1932052      117.14685      125.34006      341.7421       0.20550624     0.002856487  
   4590000  -2.5854642      89.782767      87.197303      261.91528      0.2933289      0.002856487  
   4600000  -1.3041983      109.10038      107.79619      318.26885     -0.22670401     0.002856487  
   4610000   19.107089      115.10927      134.21636      335.79805      0.40243941     0.002856487  
   4620000  -6.4070859      94.706131      88.299045      276.27778      0.15144217     0.002856487  
   4630000   1.0517177      89.073089      90.124807      259.845       -0.10542289     0.002856487  
   4640000  -7.4692175      85.128979      77.659761      248.3392      -0.079548714    0.002856487  
   4650000  -3.5750881      117.11194      113.53685      341.64025      0.1150576      0.002856487  
   4660000  -0.57681599     87.942552      87.365736      256.54699      0.14319099     0.002856487  
   4670000  -0.54845291     111.45943      110.91098      325.1507      -0.19233936     0.002856487  
   4680000  -2.3534423      108.48408      106.13064      316.47096     -0.50266036     0.002856487  
   4690000   17.195043      103.38357      120.57862      301.59171     -0.27801234     0.002856487  
   4700000   7.0391451      108.93581      115.97496      317.78876      0.2043232      0.002856487  
   4710000   3.3974144      96.20803       99.605444      280.65913     -0.29932971     0.002856487  
   4720000   3.9245815      91.464948      95.38953       266.82256     -0.081227932    0.002856487  
   4730000   8.5557713      111.38537      119.94114      324.93463     -0.33346538     0.002856487  
   4740000   2.6188463      105.47333      108.09218      307.68797     -0.11928594     0.002856487  
   4750000   0.88653758     96.938264      97.824802      282.78938      0.015486792    0.002856487  
   4760000  -6.6974485      100.92373      94.226281      294.41583     -0.068846523    0.002856487  
   4770000   1.0269333      89.113902      90.140835      259.96406      0.28768854     0.002856487  
   4780000  -5.2538486      103.95047      98.696625      303.24548      0.094611238    0.002856487  
   4790000   0.046646471    100.16294      100.20958      292.19644      0.0400882      0.002856487  
   4800000  -4.9555413      92.915577      87.960035      271.05435      0.12233816     0.002856487  
   4810000  -8.6266162      99.613425      90.986808      290.59339     -0.1627255      0.002856487  
   4820000   1.7000147      97.76407       99.464085      285.19843     -0.011600001    0.002856487  
   4830000  -0.33105908     97.621799      97.29074       284.7834       0.031217213    0.002856487  
   4840000  -9.3680274      91.012396      81.644369      265.50237     -0.13108449     0.002856487  
   4850000   4.1547142      96.083805      100.23852      280.29674     -0.15593939     0.002856487  
   4860000  -8.4421035      120.73694      112.29483      352.21513      0.20197097     0.002856487  
   4870000  -21.718328      108.07424      86.355908      315.27536      0.52829588     0.002856487  
   4880000  -21.215714      88.67671       67.460997      258.68868     -0.0011213552   0.002856487  
   4890000  -29.386012      84.806971      55.420958      247.39984     -0.13716357     0.002856487  
   4900000  -3.7230539      103.60422      99.881166      302.23538      0.29312483     0.002856487  
   4910000  -17.234197      98.57598       81.341783      287.56694     -0.23913908     0.002856487  
   4920000  -9.0135651      101.33418      92.320614      295.61319      0.18084411     0.002856487  
   4930000  -14.460096      110.23486      95.77476       321.57835      0.019291878    0.002856487  
   4940000  -11.661768      99.060025      87.398257      288.979        0.08407335     0.002856487  
   4950000  -18.212391      109.56319      91.350803      319.61896      0.2601152      0.002856487  
   4960000  -5.8393066      102.68533      96.846025      299.55479      0.4264006      0.002856487  
   4970000  -15.8668        97.329296      81.462496      283.9301      -0.37129241     0.002856487  
   4980000  -5.5348973      94.330416      88.795519      275.18174     -0.38144899     0.002856487  
   4990000  -14.853537      97.545177      82.69164       284.55987      0.12215978     0.002856487  
   5000000  -14.024097      120.36831      106.34421      351.13976      0.12255914     0.002856487  
Loop time of 268.287 on 4 procs for 5000000 steps with 116 atoms

Performance: 16102.161 ns/day, 0.001 hours/ns, 18636.761 timesteps/s, 2.162 Matom-step/s
99.7% CPU use with 4 MPI tasks x 1 OpenMP threads

MPI task timing breakdown:
Section |  min time  |  avg time  |  max time  |%varavg| %total
---------------------------------------------------------------
Pair    | 27.223     | 88.482     | 205.76     | 764.7 | 32.98
Bond    | 4.6393     | 9.907      | 17.956     | 164.4 |  3.69
Neigh   | 0.26304    | 0.26677    | 0.26993    |   0.5 |  0.10
Comm    | 35.024     | 162.84     | 229.14     | 616.7 | 60.70
Output  | 0.037873   | 0.058915   | 0.12123    |  14.8 |  0.02
Modify  | 2.9344     | 5.023      | 7.6925     |  83.3 |  1.87
Other   |            | 1.709      |            |       |  0.64

Nlocal:             29 ave          61 max           5 min
Histogram: 1 1 0 0 0 1 0 0 0 1
Nghost:           57.5 ave          69 max          43 min
Histogram: 1 0 0 0 0 1 1 0 0 1
Neighs:         191.25 ave         570 max           5 min
Histogram: 2 0 1 0 0 0 0 0 0 1

Total # of neighbors = 765
Ave neighs/atom = 6.5948276
Ave special neighs/atom = 5.3793103
Neighbor list builds = 6264
Dangerous builds = 0

# --- Production (1 µs) -------------------------------------------
unfix favg
fix favg all ave/time 10000 10 100000 v_vpe v_vke v_vT v_vE v_vRg     file outputs/thermo_${tag}_production.dat
fix favg all ave/time 10000 10 100000 v_vpe v_vke v_vT v_vE v_vRg     file outputs/thermo_7LYJ_aso_n5_production.dat

restart 10000000 outputs/backup_${tag}.*.restart
restart 10000000 outputs/backup_7LYJ_aso_n5.*.restart
run 100000000
Generated 0 of 6 mixed pair_coeff terms from geometric mixing rule
Per MPI rank memory allocation (min/avg/max) = 8.561 | 8.762 | 8.829 Mbytes
   Step         PotEng         KinEng         TotEng          Temp          Press         Density    
   5000000  -14.024097      120.36831      106.34421      351.13976      0.12255914     0.002856487  
   5010000  -18.455767      94.850735      76.394968      276.69962      0.4008441      0.002856487  
   5020000  -5.795808       99.164687      93.368879      289.28433     -0.23423775     0.002856487  
   5030000  -6.6778613      108.40228      101.72442      316.23233      0.073738945    0.002856487  
   5040000  -20.781646      114.29329      93.511639      333.41764      0.17170978     0.002856487  
   5050000  -10.159056      100.8211       90.662042      294.11643      0.10576535     0.002856487  
   5060000  -13.643855      101.54982      87.905966      296.24227      0.032001843    0.002856487  
   5070000  -8.5021495      94.327145      85.824995      275.17219      0.38077707     0.002856487  
   5080000   4.9431634      99.900904      104.84407      291.43203      0.15258429     0.002856487  
   5090000   14.854759      95.472834      110.32759      278.51441     -0.1813629      0.002856487  
   5100000  -8.5472848      88.437517      79.890232      257.99091      0.64717808     0.002856487  
   5110000  -13.022177      100.98753      87.965356      294.60195     -0.008171208    0.002856487  
   5120000  -1.8277644      101.40773      99.579967      295.82776     -0.29113023     0.002856487  
   5130000   0.71193821     113.76165      114.47359      331.86674     -0.041380522    0.002856487  
   5140000  -8.7030073      90.190431      81.487424      263.10453     -0.4471821      0.002856487  
   5150000   11.869719      107.20068      119.0704       312.72702      0.031026373    0.002856487  
   5160000   9.7098602      112.54897      122.25883      328.32909      0.34743565     0.002856487  
   5170000  -1.7222432      102.57787      100.85563      299.24131     -0.030233724    0.002856487  
   5180000  -4.1346118      95.869284      91.734672      279.67094     -0.0033030307   0.002856487  
   5190000  -7.9906348      101.76804      93.777403      296.87885      0.24654899     0.002856487  
   5200000  -15.258802      97.402001      82.143198      284.1422      -0.019385677    0.002856487  
   5210000   1.8717797      114.3473       116.21908      333.57522      0.79534573     0.002856487  
   5220000  -26.245435      118.45359      92.208155      345.55413     -0.015038653    0.002856487  
   5230000  -3.9047618      98.98895       95.084188      288.77166      0.11911432     0.002856487  
   5240000  -20.8557        103.29966      82.443959      301.34691     -0.25360464     0.002856487  
   5250000  -22.738146      100.61167      77.87352       293.50547      0.28393399     0.002856487  
   5260000  -14.020744      113.65413      99.633385      331.55309     -0.021315353    0.002856487  
   5270000  -6.3694967      100.45076      94.081266      293.03608     -0.18161247     0.002856487  
   5280000  -3.3794183      112.18144      108.80202      327.25694     -0.064440952    0.002856487  
   5290000   1.7195304      105.68452      107.40405      308.30406     -0.096373689    0.002856487  
   5300000   0.93087906     106.10926      107.04014      309.5431       0.098386778    0.002856487  
   5310000   0.43455386     104.7974       105.23195      305.71613     -0.03536082     0.002856487  
   5320000   4.5825222      105.64039      110.22291      308.17531     -0.085321717    0.002856487  
   5330000   5.0621155      112.159        117.22112      327.19149     -0.29466475     0.002856487  
   5340000  -0.56989258     106.94818      106.37829      311.99043      0.0264658      0.002856487  
   5350000  -15.733348      84.189062      68.455713      245.59727      0.040060445    0.002856487  
   5360000  -23.932787      108.61242      84.679633      316.84536      0.10508182     0.002856487  
   5370000  -4.1230802      87.011938      82.888858      253.83219      0.42081567     0.002856487  
   5380000  -11.794802      109.4713       97.676499      319.3509      -0.40976649     0.002856487  
   5390000  -6.8344849      104.76164      97.927155      305.61182      0.26133044     0.002856487  
   5400000  -13.893548      97.714991      83.821443      285.05526     -0.26056553     0.002856487  
   5410000  -16.149553      111.7835       95.633944      326.09606      0.35928832     0.002856487  
   5420000  -10.228646      91.869254      81.640608      268.00201     -0.052511868    0.002856487  
   5430000  -10.802423      106.33859      95.536169      310.21212      0.16650081     0.002856487  
   5440000   4.7845708      111.71601      116.50058      325.89918     -0.55675099     0.002856487  
   5450000  -6.1180694      98.195017      92.076947      286.45559     -0.043631173    0.002856487  
   5460000   13.036588      107.72934      120.76592      314.26921     -0.046758731    0.002856487  
   5470000   9.3495815      90.877064      100.22665      265.10758     -0.11112076     0.002856487  
   5480000  -0.055240973    121.30933      121.25409      353.88492      0.60324386     0.002856487  
   5490000   11.39017       105.79893      117.1891       308.63781      0.049324854    0.002856487  
   5500000  -1.3436185      116.4955       115.15188      339.84197     -0.010681708    0.002856487  
   5510000   10.975776      91.963524      102.9393       268.27701      0.04925656     0.002856487  
   5520000   9.7247892      95.040789      104.76558      277.25405      0.040355703    0.002856487  
   5530000   3.755217       94.74864       98.503857      276.40178      0.48144871     0.002856487  
   5540000  -2.3330326      101.55578      99.222748      296.25965      0.2360328      0.002856487  
   5550000  -4.40518        101.17413      96.768951      295.1463       0.3166384      0.002856487  
   5560000   4.6018453      112.47583      117.07768      328.11574     -0.2699514      0.002856487  
   5570000  -5.620111       100.14868      94.528571      292.15485     -0.77033294     0.002856487  
   5580000  -14.300304      110.39         96.089698      322.03094      0.19735517     0.002856487  
   5590000  -13.937906      114.5852       100.6473       334.26922      0.031664581    0.002856487  
   5600000  -12.105282      103.32457      91.219283      301.41957     -0.36581156     0.002856487  
   5610000   1.2518074      105.80131      107.05312      308.64476      0.30563969     0.002856487  
   5620000   1.0261199      108.64281      109.66893      316.934        0.019153859    0.002856487  
   5630000  -9.6129098      96.59825       86.98534       281.79749      0.14385532     0.002856487  
   5640000  -5.7209392      123.78227      118.06133      361.09901     -0.018157601    0.002856487  
   5650000  -24.50011       107.97341      83.473295      314.98122      0.090340779    0.002856487  
   5660000  -4.5205922      91.900987      87.380395      268.09458     -0.092918452    0.002856487  
   5670000   0.72052379     99.891327      100.61185      291.40409     -0.13532761     0.002856487  
   5680000  -40.348206      87.601945      47.253739      255.55337      0.27300832     0.002856487  
   5690000  -1.7845         110.90742      109.12292      323.54037     -0.078429826    0.002856487  
   5700000  -8.8506421      106.37734      97.526698      310.32516      0.12329362     0.002856487  
   5710000  -0.35059231     106.03282      105.68223      309.32011      0.039711392    0.002856487  
   5720000  -3.8215342      106.40158      102.58005      310.39587      0.047422664    0.002856487  
   5730000  -18.071557      98.77503       80.703473      288.14761      0.024574925    0.002856487  
   5740000  -10.723659      108.7683       98.04464       317.30009     -0.077944911    0.002856487  
   5750000  -11.321556      96.049         84.727444      280.19521     -0.13137932     0.002856487  
   5760000  -22.970879      108.36367      85.392793      316.11971     -0.82273255     0.002856487  
   5770000  -10.134162      112.91333      102.77917      329.39202     -0.23881602     0.002856487  
   5780000   4.7941801      128.26737      133.06155      374.183       -0.3301855      0.002856487  
   5790000  -7.9553944      96.608074      88.652679      281.82614      0.023402993    0.002856487  
   5800000  -9.872029       101.9338       92.061767      297.3624       0.21770242     0.002856487  
   5810000  -24.603628      98.318735      73.715108      286.81651     -0.26132761     0.002856487  
   5820000  -11.575793      98.945374      87.369581      288.64454      0.0090388606   0.002856487  
   5830000   0.5977777      104.91702      105.51479      306.06508      0.23787354     0.002856487  
   5840000  -12.464576      102.78543      90.32085       299.84679      0.21713069     0.002856487  
   5850000  -12.109766      104.26712      92.157357      304.16921     -0.24032573     0.002856487  
   5860000  -2.3774938      116.13002      113.75253      338.77579     -0.26363256     0.002856487  
   5870000  -17.692283      113.60573      95.913446      331.41189      0.14469052     0.002856487  
   5880000  -13.193124      123.27616      110.08304      359.62258      0.25905869     0.002856487  
   5890000   7.088305       109.34529      116.4336       318.9833       0.47305744     0.002856487  
   5900000  -22.294324      101.61546      79.32114       296.43376      0.20987191     0.002856487  
   5910000  -16.097779      97.852471      81.754692      285.45632      0.094184013    0.002856487  
   5920000  -9.6285161      116.66821      107.0397       340.34581      0.088612799    0.002856487  
   5930000  -18.117154      93.01054       74.893387      271.33138      0.20753602     0.002856487  
   5940000  -17.084493      101.66087      84.57638       296.56623      0.3390147      0.002856487  
   5950000  -17.678151      104.38132      86.703168      304.50234      0.37349174     0.002856487  
   5960000  -19.873905      84.065613      64.191707      245.23714     -0.37919769     0.002856487  
   5970000  -19.480693      97.082277      77.601584      283.2095       0.3090534      0.002856487  
   5980000  -2.9648853      106.93651      103.97162      311.95636      0.24817725     0.002856487  
   5990000  -5.2840004      113.33315      108.04915      330.61674      0.83814077     0.002856487  
   6000000   1.9462929      103.50536      105.45165      301.94698     -0.5844561      0.002856487  
   6010000  -18.768346      93.597815      74.829469      273.04459     -0.035174793    0.002856487  
   6020000  -11.604059      100.98543      89.381373      294.59582      0.20609659     0.002856487  
   6030000   11.780186      101.55093      113.33111      296.2455       0.20918679     0.002856487  
   6040000   6.3771816      109.65226      116.02944      319.87879      0.082238441    0.002856487  
   6050000   4.2928261      102.34229      106.63512      298.55407     -0.081347481    0.002856487  
   6060000  -13.906182      104.52396      90.61778       304.91846     -0.25053553     0.002856487  
   6070000  -12.202454      103.66509      91.462632      302.41294      0.11414617     0.002856487  
   6080000   0.48305638     104.78429      105.26735      305.6779      -0.25507537     0.002856487  
   6090000  -5.884255       115.3416       109.45734      336.47579     -0.14194418     0.002856487  
   6100000  -0.29180255     87.769031      87.477228      256.04079     -0.11945239     0.002856487  
   6110000   0.86812618     92.767822      93.635949      270.62332      0.1756125      0.002856487  
   6120000  -22.020811      92.845776      70.824965      270.85073      0.025272126    0.002856487  
   6130000  -11.313332      102.13806      90.824723      297.95827     -0.50746319     0.002856487  
   6140000   1.3737653      108.58789      109.96166      316.7738      -0.34441496     0.002856487  
   6150000  -13.165954      94.185703      81.019749      274.75958     -0.15330433     0.002856487  
   6160000  -6.9652075      100.81506      93.849848      294.0988       0.16949308     0.002856487  
   6170000  -2.0552532      99.99602       97.940767      291.7095      -0.35122129     0.002856487  
   6180000  -11.654985      100.3329       88.67792       292.69226      0.15503275     0.002856487  
   6190000  -1.0484171      99.278237      98.22982       289.61558      0.1552113      0.002856487  
   6200000  -2.9428937      103.09913      100.15623      300.76191      0.090163888    0.002856487  
   6210000   3.2790001      106.24517      109.52417      309.9396       0.2567126      0.002856487  
   6220000  -6.9363895      110.83355      103.89716      323.32485      0.26035988     0.002856487  
   6230000   6.8190957      88.667636      95.486732      258.66221     -0.1280404      0.002856487  
   6240000  -5.2532676      94.5005        89.247232      275.67791     -0.26577629     0.002856487  
   6250000   16.850331      104.54618      121.39651      304.98326     -0.23832381     0.002856487  
   6260000  -5.911557       102.18814      96.276579      298.10437      0.50104479     0.002856487  
   6270000  -0.54020051     103.26446      102.72426      301.24422     -0.10125903     0.002856487  
   6280000   12.752862      102.30159      115.05445      298.43533      0.033070279    0.002856487  
   6290000   3.6663241      107.06546      110.73178      312.33254      0.0052440288   0.002856487  
   6300000   2.6456542      115.04762      117.69328      335.61821      0.042163866    0.002856487  
   6310000   2.3369709      100.57186      102.90883      293.38934      0.2381887      0.002856487  
   6320000  -2.0721935      93.679712      91.607519      273.2835       0.10385399     0.002856487  
   6330000   2.1717636      87.96519       90.136954      256.61303     -0.13763536     0.002856487  
   6340000  -6.9520729      94.268505      87.316432      275.00113     -0.013861783    0.002856487  
   6350000   19.020475      98.802757      117.82323      288.2285       0.17026779     0.002856487  
   6360000  -3.7210062      113.65493      109.93392      331.55542      0.15839734     0.002856487  
   6370000  -5.9229956      90.622621      84.699626      264.36532     -0.11643777     0.002856487  
   6380000   5.4188267      109.48778      114.90661      319.39896     -0.016285951    0.002856487  
   6390000   13.178134      109.28089      122.45903      318.79544     -0.39147788     0.002856487  
   6400000   6.3303811      108.59918      114.92956      316.80674      0.1899432      0.002856487  
   6410000   14.213828      100.89043      115.10426      294.31868      0.31255311     0.002856487  
   6420000  -9.3662714      89.77103       80.404759      261.88105     -0.10765791     0.002856487  
   6430000  -2.3513899      101.08584      98.734448      294.88873      0.41947542     0.002856487  
   6440000   8.6499562      103.51223      112.16219      301.96702      0.1670719      0.002856487  
   6450000   7.5350598      92.698081      100.23314      270.41987     -0.076487038    0.002856487  
   6460000   10.675033      90.94104       101.61607      265.29421      0.35777223     0.002856487  
   6470000  -5.2054322      108.29366      103.08823      315.91548     -0.37122676     0.002856487  
   6480000   5.4807078      104.55973      110.04043      305.02279     -0.10740528     0.002856487  
   6490000   4.3561223      118.98347      123.33959      347.09989     -0.5330038      0.002856487  
   6500000  -1.071256       87.640652      86.569396      255.66628      0.075131754    0.002856487  
   6510000  -5.7271037      106.53975      100.81264      310.79893      0.36857038     0.002856487  
   6520000   8.8200278      104.14141      112.96144      303.80249     -0.13759242     0.002856487  
   6530000  -5.361668       86.602229      81.240561      252.63698      0.16421832     0.002856487  
   6540000  -2.4004154      95.728897      93.328481      279.2614      -0.18166461     0.002856487  
   6550000   2.7834239      96.228034      99.011458      280.71749     -0.21163874     0.002856487  
   6560000   18.439493      92.220213      110.65971      269.02583     -0.27513818     0.002856487  
   6570000   17.341142      93.064823      110.40597      271.48974      0.026812794    0.002856487  
   6580000   16.067418      111.7822       127.84962      326.09227     -0.21039052     0.002856487  
   6590000   2.0903566      107.1159       109.20626      312.4797      -0.54274487     0.002856487  
   6600000  -19.664138      102.69608      83.031941      299.58614      0.093104728    0.002856487  
   6610000   5.7542168      98.01829       103.77251      285.94005     -0.11699102     0.002856487  
   6620000   14.048793      100.68277      114.73157      293.71291     -0.16952157     0.002856487  
   6630000  -10.35814       101.95217      91.594033      297.41601      0.34702153     0.002856487  
   6640000  -18.156603      95.245935      77.089332      277.8525       0.43807968     0.002856487  
   6650000  -3.8235516      94.119678      90.296126      274.56697      0.25816037     0.002856487  
   6660000  -6.6692287      95.330825      88.661596      278.10014      0.24402431     0.002856487  
   6670000   2.9016592      105.09131      107.99297      306.57354     -0.10203722     0.002856487  
   6680000   7.9776023      114.05191      122.02952      332.71351     -0.2160737      0.002856487  
   6690000   5.6902414      110.64541      116.33566      322.77603     -0.15704272     0.002856487  
   6700000   6.0012739      106.16017      112.16145      309.69163     -0.064227564    0.002856487  
   6710000   17.27379       86.952937      104.22673      253.66007     -0.21157427     0.002856487  
   6720000  -22.115023      98.954705      76.839683      288.67176      0.2140362      0.002856487  
   6730000  -4.1451406      111.00529      106.86015      323.82587     -0.3003496      0.002856487  
   6740000  -16.030011      91.772979      75.742968      267.72115      0.07532396     0.002856487  
   6750000  -0.049469521    85.746811      85.697341      250.14155     -0.20628052     0.002856487  
   6760000  -14.527153      94.16347       79.636317      274.69472      0.24987187     0.002856487  
   6770000   7.3855113      111.36583      118.75135      324.87765      0.20478451     0.002856487  
   6780000   4.3842292      93.246308      97.630538      272.01917     -0.25615479     0.002856487  
   6790000   5.3567296      96.567196      101.92393      281.7069      -0.034890408    0.002856487  
   6800000  -11.592889      93.412334      81.819445      272.5035      -0.22737247     0.002856487  
   6810000  -4.2777933      107.14714      102.86934      312.57082     -0.082583079    0.002856487  
   6820000  -2.270955       97.967072      95.696117      285.79063     -0.22967237     0.002856487  
   6830000  -2.4425583      107.5389       105.09634      313.71368      0.0024641184   0.002856487  
   6840000  -4.1834399      106.29848      102.11504      310.0951      -0.021474163    0.002856487  
   6850000  -7.7654607      107.94312      100.17766      314.89287      0.22373003     0.002856487  
   6860000  -4.3338789      96.975653      92.641774      282.89845      0.033319711    0.002856487  
   6870000  -7.1314485      107.44755      100.3161       313.44718     -0.16867178     0.002856487  
   6880000  -7.1750521      96.131308      88.956256      280.43532     -0.29187683     0.002856487  
   6890000  -0.46699261     115.05274      114.58575      335.63313      0.55840489     0.002856487  
   6900000  -1.0424884      104.54879      103.5063       304.99089      0.046153006    0.002856487  
   6910000   7.4396935      107.06616      114.50585      312.33458      0.12766113     0.002856487  
   6920000  -8.2470503      101.74029      93.493244      296.79792      0.054630953    0.002856487  
   6930000  -6.3662582      109.19288      102.82662      318.53867     -0.59327813     0.002856487  
   6940000   4.2172911      125.42384      129.64113      365.88782     -0.1961666      0.002856487  
   6950000  -1.9550505      104.36434      102.40929      304.45281     -0.032969381    0.002856487  
   6960000  -3.3409654      104.08295      100.74199      303.63195     -0.12781412     0.002856487  
   6970000   0.1432135      95.656678      95.799892      279.05072     -0.14123614     0.002856487  
   6980000  -4.2176234      97.78411       93.566486      285.25689     -0.054858937    0.002856487  
   6990000  -5.4459959      92.531798      87.085802      269.93479     -0.034891658    0.002856487  
   7000000   4.300268       102.01603      106.31629      297.60228      0.14290853     0.002856487  
   7010000  -2.7120689      96.669502      93.957433      282.00534      0.61162046     0.002856487  
   7020000  -8.6382957      118.30452      109.66623      345.11927     -0.25070846     0.002856487  
   7030000  -26.590135      119.08177      92.491639      347.38667      0.38174797     0.002856487  
   7040000  -10.467694      102.60758      92.139887      299.32797      0.42255355     0.002856487  
   7050000  -25.70321       119.65369      93.950483      349.05508      0.18601201     0.002856487  
   7060000  -12.993287      93.055755      80.062468      271.46328     -0.37858419     0.002856487  
   7070000  -14.195897      109.34913      95.153233      318.9945      -0.084098129    0.002856487  
[...]
 103190000  -0.88426219     102.86199      101.97773      300.07013     -0.23743495     0.002856487  
 103200000  -23.608602      96.241023      72.632421      280.75538      0.16195493     0.002856487  
 103210000  -17.018636      111.1916       94.172961      324.36936      0.15851082     0.002856487  
 103220000  -16.279575      111.68133      95.401758      325.79802      0.048639587    0.002856487  
 103230000  -7.0297206      102.64484      95.615121      299.43667     -0.22560606     0.002856487  
 103240000  -5.7325595      118.42108      112.68852      345.45928     -0.60604405     0.002856487  
 103250000   2.0011446      107.32405      109.32519      313.0869       0.14994218     0.002856487  
 103260000  -16.735722      106.57624      89.840516      310.90539     -0.40754234     0.002856487  
 103270000   12.792652      95.938347      108.731        279.87241     -0.18848582     0.002856487  
 103280000  -22.44072       108.35972      85.918998      316.10817     -0.023701079    0.002856487  
 103290000   10.665426      95.830975      106.4964       279.55918      0.082550926    0.002856487  
 103300000   7.4669232      108.29729      115.76421      315.92604     -0.10201681     0.002856487  
 103310000  -5.1592755      112.89967      107.7404       329.35219     -0.47061947     0.002856487  
 103320000  -4.2265725      91.179956      86.953384      265.99118     -0.25429162     0.002856487  
 103330000   18.230805      105.66307      123.89388      308.24149      0.40861649     0.002856487  
 103340000   4.1901645      117.60294      121.7931       343.07259      0.23056164     0.002856487  
 103350000  -8.6141298      91.891974      83.277844      268.06829     -0.24818957     0.002856487  
 103360000  -3.533771       97.326843      93.793072      283.92295      0.26148838     0.002856487  
 103370000  -7.3093938      93.436668      86.127274      272.57448      0.24544579     0.002856487  
 103380000   12.667848      102.51834      115.18618      299.06763      0.40085167     0.002856487  
 103390000   3.6233656      104.21079      107.83415      304.00486      0.051385481    0.002856487  
 103400000  -0.24597236     101.63927      101.3933       296.50321     -0.057706586    0.002856487  
 103410000   5.6556617      112.4304       118.08607      327.98322     -0.30667483     0.002856487  
 103420000   8.4546125      98.324784      106.7794       286.83415      0.13559023     0.002856487  
 103430000  -8.0783406      107.34357      99.265226      313.14384      0.2890181      0.002856487  
 103440000   12.416065      91.316156      103.73222      266.3885      -0.080382096    0.002856487  
 103450000   13.446918      90.673053      104.11997      264.51244     -0.25333958     0.002856487  
 103460000   9.2250926      103.83283      113.05792      302.90227     -0.15226409     0.002856487  
 103470000   8.6729227      100.46523      109.13815      293.07829     -0.24212844     0.002856487  
 103480000   3.2585248      96.584481      99.843006      281.75732      0.31739434     0.002856487  
 103490000   0.85855442     105.39209      106.25065      307.45099      0.70884831     0.002856487  
 103500000   2.2735238      90.902247      93.175771      265.18104      0.11306241     0.002856487  
 103510000  -14.844749      103.19388      88.349133      301.03834      0.30621847     0.002856487  
 103520000  -1.7061244      93.621738      91.915614      273.11437      0.69418046     0.002856487  
 103530000  -9.9884405      102.80897      92.820531      299.91547      0.39872524     0.002856487  
 103540000  -11.072218      113.41583      102.34361      330.85792      0.12738308     0.002856487  
 103550000  -11.122345      108.0502       96.927854      315.20524     -0.71996385     0.002856487  
 103560000  -8.1799327      100.45402      92.274089      293.04559     -0.41406776     0.002856487  
 103570000  -7.0366527      104.69714      97.660492      305.42367     -0.098163297    0.002856487  
 103580000   4.4559305      112.15793      116.61386      327.18836     -0.21670193     0.002856487  
 103590000  -11.622669      105.39635      93.773685      307.46341      0.41128157     0.002856487  
 103600000   5.6220123      119.78869      125.4107       349.44889      0.4528786      0.002856487  
 103610000  -4.2120689      93.666273      89.454204      273.24429     -0.044329691    0.002856487  
 103620000  -7.1491846      105.08474      97.935554      306.55437      0.27300574     0.002856487  
 103630000  -5.5867444      105.44439      99.857641      307.60353     -0.14239399     0.002856487  
 103640000  -3.397844       114.81572      111.41788      334.9417      -0.46127798     0.002856487  
 103650000   6.4424183      106.65662      113.09903      311.13986      0.10025051     0.002856487  
 103660000   1.7088759      100.101        101.80988      292.01576     -0.24807944     0.002856487  
 103670000  -12.448979      111.4381       98.989117      325.08845      0.44963395     0.002856487  
 103680000  -0.94283931     99.882529      98.93969       291.37842     -0.20612652     0.002856487  
 103690000  -1.6518268      96.372931      94.721104      281.14018     -0.048103373    0.002856487  
 103700000   6.304707       114.62453      120.92924      334.38396     -0.28268313     0.002856487  
 103710000  -8.3704757      111.73769      103.36722      325.96244     -0.084240164    0.002856487  
 103720000  -3.2136572      99.77362       96.559962      291.06071     -0.28113798     0.002856487  
 103730000  -12.350281      98.522732      86.172451      287.41161     -0.074835006    0.002856487  
 103740000   6.3969564      100.97384      107.37079      294.56199      0.046789518    0.002856487  
 103750000  -11.196214      101.74063      90.544412      296.79888      0.30456342     0.002856487  
 103760000   4.047303       107.81423      111.86153      314.51687     -0.030851327    0.002856487  
 103770000   3.6087443      97.852547      101.46129      285.45654      0.16428352     0.002856487  
 103780000  -1.9308826      99.623114      97.692232      290.62166      0.27714743     0.002856487  
 103790000   2.7512244      93.840514      96.591739      273.75259     -0.12239561     0.002856487  
 103800000   14.374473      96.782744      111.15722      282.33569     -0.38621144     0.002856487  
 103810000   14.544371      119.86155      134.40592      349.66145     -0.10275697     0.002856487  
 103820000   7.8007183      118.65963      126.46035      346.1552       0.60519056     0.002856487  
 103830000   9.1384631      100.32106      109.45952      292.6577      -0.32952595     0.002856487  
 103840000   25.501366      89.786507      115.28787      261.92619     -0.053489574    0.002856487  
 103850000   10.158882      93.978862      104.13774      274.15618      0.076430706    0.002856487  
 103860000   14.543511      116.51603      131.05955      339.90187      0.12633344     0.002856487  
 103870000   1.3826236      104.51202      105.89465      304.88364     -0.55065629     0.002856487  
 103880000   24.324799      108.45563      132.78042      316.38795     -0.27136818     0.002856487  
 103890000   40.565121      110.85733      151.42246      323.39425     -0.40097874     0.002856487  
 103900000   15.299949      89.831836      105.13179      262.05843     -0.40810503     0.002856487  
 103910000   23.991122      110.14728      134.1384       321.32287      0.27168133     0.002856487  
 103920000   4.3273239      111.03353      115.36086      323.90825      0.11285202     0.002856487  
 103930000   12.064523      107.05998      119.1245       312.31656     -0.36901099     0.002856487  
 103940000   2.4757595      104.50174      106.9775       304.85363      0.012077416    0.002856487  
 103950000   9.3849987      108.25221      117.63721      315.79456      0.14076534     0.002856487  
 103960000   14.001018      121.48952      135.49054      354.41057      0.74413947     0.002856487  
 103970000   24.162751      106.20602      130.36877      309.82538      0.10460516     0.002856487  
 103980000   2.7849049      103.69105      106.47596      302.48869      0.28013873     0.002856487  
 103990000   10.886276      101.00434      111.89062      294.65098      0.070989366    0.002856487  
 104000000   3.6172437      96.41962       100.03686      281.27639     -0.33415092     0.002856487  
 104010000  -10.797516      108.12147      97.323959      315.41317     -0.2086686      0.002856487  
 104020000  -2.4402926      95.967437      93.527144      279.95727      0.24030683     0.002856487  
 104030000   1.0951694      90.365366      91.460535      263.61485     -0.027353758    0.002856487  
 104040000  -8.90353        93.129652      84.226122      271.67886     -0.2312312      0.002856487  
 104050000  -2.0944739      92.384598      90.290124      269.50538      0.37649756     0.002856487  
 104060000  -15.228387      113.07017      97.84178       329.84954     -0.10398789     0.002856487  
 104070000   3.2290873      97.289764      100.51885      283.81478      0.12030292     0.002856487  
 104080000   5.293933       103.1158       108.40973      300.81056      0.0036546163   0.002856487  
 104090000  -18.600621      112.28328      93.682662      327.55404      0.11113381     0.002856487  
 104100000  -13.785959      103.22764      89.441678      301.13681      0.55785106     0.002856487  
 104110000   4.2152084      97.753808      101.96902      285.16849     -0.51874521     0.002856487  
 104120000  -5.6348192      96.311203      90.676384      280.96011     -0.32528534     0.002856487  
 104130000  -6.6870048      98.411175      91.72417       287.08617     -0.78565499     0.002856487  
 104140000  -4.3177581      91.745627      87.427869      267.64136      0.19476852     0.002856487  
 104150000   3.7617624      93.771161      97.532923      273.55027      0.10763529     0.002856487  
 104160000  -7.2664676      116.57407      109.3076       340.07118     -0.3280816      0.002856487  
 104170000   7.3185131      96.837498      104.15601      282.49542      0.016781533    0.002856487  
 104180000  -10.130815      105.00837      94.877558      306.33159      0.055045036    0.002856487  
 104190000  -14.221465      101.22678      87.00531       295.29987     -0.22926713     0.002856487  
 104200000   9.9507264      111.31903      121.26976      324.74112      0.1342018      0.002856487  
 104210000   1.5813048      110.04951      111.63082      321.03766     -0.30444687     0.002856487  
 104220000  -6.6003216      96.967454      90.367132      282.87453     -0.039732417    0.002856487  
 104230000  -9.8709603      97.055782      87.184821      283.1322      -0.16129327     0.002856487  
 104240000  -7.6727012      104.75648      97.083774      305.59675     -0.27763512     0.002856487  
 104250000  -5.3449407      113.33521      107.99027      330.62274      0.030552271    0.002856487  
 104260000   0.6938577      98.844874      99.538731      288.35136     -0.29289331     0.002856487  
 104270000  -14.224062      99.834953      85.610891      291.23963     -0.46969464     0.002856487  
 104280000  -11.229871      122.54735      111.31748      357.49649     -0.16160317     0.002856487  
 104290000  -3.6171784      108.02999      104.41281      315.14629     -0.019333708    0.002856487  
 104300000   10.336628      90.707965      101.04459      264.61428     -0.15636046     0.002856487  
 104310000   15.455041      101.039        116.49404      294.75208      0.17836945     0.002856487  
 104320000   15.520864      98.722861      114.24372      287.99543     -0.27060812     0.002856487  
 104330000   12.120705      106.67169      118.7924       311.18385      0.19706153     0.002856487  
 104340000  -4.9586842      109.81584      104.85716      320.356        0.43537973     0.002856487  
 104350000  -4.7000453      93.065201      88.365156      271.49084     -0.18816519     0.002856487  
 104360000   15.599913      99.315846      114.91576      289.72529     -0.29997128     0.002856487  
 104370000   15.518162      99.978648      115.49681      291.65882     -0.54855198     0.002856487  
 104380000   0.97404267     93.10819       94.082232      271.61624      0.23779911     0.002856487  
 104390000   8.5036323      104.43668      112.94031      304.66384      0.18081418     0.002856487  
 104400000   10.111244      113.6649       123.77614      331.58449      0.24279714     0.002856487  
 104410000   3.3194294      100.14329      103.46272      292.1391      -0.025850597    0.002856487  
 104420000   3.8652025      110.51936      114.38456      322.40829     -0.1392298      0.002856487  
 104430000  -3.8965088      93.62626       89.729751      273.12757     -0.034760178    0.002856487  
 104440000   7.2669092      89.629978      96.896887      261.46957     -0.18183723     0.002856487  
 104450000   8.3833134      112.62992      121.01323      328.56524     -0.70363592     0.002856487  
 104460000  -5.420581       119.35248      113.9319       348.17638     -0.035633711    0.002856487  
 104470000   1.2587999      104.54903      105.80783      304.99158     -0.05177069     0.002856487  
 104480000  -7.1164967      101.99884      94.882344      297.55215      0.32210553     0.002856487  
 104490000  -5.1917004      104.53044      99.338736      304.93735      0.4301961      0.002856487  
 104500000  -12.315961      104.47223      92.156265      304.76754     -0.14717928     0.002856487  
 104510000  -0.59023054     121.22063      120.6304       353.62617      0.11711446     0.002856487  
 104520000   3.0723372      100.46978      103.54211      293.09155      0.037806499    0.002856487  
 104530000   3.9847044      92.338201      96.322905      269.37002     -0.023208044    0.002856487  
 104540000  -5.4548874      99.787553      94.332665      291.10136     -0.19145897     0.002856487  
 104550000   3.0534778      106.21749      109.27097      309.85884      0.077001014    0.002856487  
 104560000   2.2298187      101.28506      103.51488      295.46989      0.2364785      0.002856487  
 104570000  -2.377889       109.34031      106.96242      318.96875      0.2943063      0.002856487  
 104580000  -7.193851       106.21671      99.022859      309.85657     -0.05285681     0.002856487  
 104590000   6.2591298      118.00508      124.26421      344.24572      0.13366438     0.002856487  
 104600000   6.1833421      98.837384      105.02073      288.32951      0.30324035     0.002856487  
 104610000  -1.4942743      105.88907      104.3948       308.90079      0.11600717     0.002856487  
 104620000  -3.0568452      104.71783      101.66098      305.48401     -0.0094006336   0.002856487  
 104630000   17.736456      92.416261      110.15272      269.59774     -0.038858969    0.002856487  
 104640000   0.70490909     102.33988      103.04478      298.54702     -0.16693328     0.002856487  
 104650000  -1.6924982      104.56524      102.87274      305.03888      0.19499166     0.002856487  
 104660000   5.112973       105.05235      110.16532      306.45987      0.040158275    0.002856487  
 104670000  -6.4444896      108.08817      101.64368      315.31601     -0.13657961     0.002856487  
 104680000   1.5750541      94.894091      96.469145      276.8261      -0.10712485     0.002856487  
 104690000  -15.757557      83.642537      67.884981      244.00294      0.0054400667   0.002856487  
 104700000   21.260375      115.5101       136.77047      336.96735      0.24934886     0.002856487  
 104710000  -4.2004349      96.850839      92.650404      282.53434     -0.30426643     0.002856487  
 104720000  -4.9243283      106.8594       101.93507      311.73143     -0.20555162     0.002856487  
 104730000   2.3228422      124.18017      126.50301      362.25976      0.29390942     0.002856487  
 104740000   0.031718694    114.74422      114.77594      334.73312     -0.019886448    0.002856487  
 104750000   5.8198289      98.708381      104.52821      287.95319      0.049762664    0.002856487  
 104760000  -8.4655679      105.02466      96.559093      306.37911      0.11777869     0.002856487  
 104770000  -8.626999       90.505502      81.878503      264.02365     -0.033433002    0.002856487  
 104780000   5.2774991      113.87617      119.15367      332.20082     -0.16545131     0.002856487  
 104790000  -0.95156911     101.17841      100.22684      295.15879      0.023317486    0.002856487  
 104800000  -9.9915062      111.04649      101.05499      323.94606      0.38012046     0.002856487  
 104810000  -0.39274999     107.02704      106.63429      312.22047      0.17993444     0.002856487  
 104820000  -12.509572      111.67492      99.165346      325.77931      0.15087339     0.002856487  
 104830000  -7.3192167      96.580973      89.261756      281.74709      0.19942462     0.002856487  
 104840000   8.2574061      93.247508      101.50491      272.02267      0.27599501     0.002856487  
 104850000  -7.0202195      92.698932      85.678712      270.42235      0.049069965    0.002856487  
 104860000  -11.926572      104.19304      92.266472      303.9531       0.36198584     0.002856487  
 104870000  -8.9187371      107.69385      98.77511       314.16569      0.13162855     0.002856487  
 104880000   3.3406403      105.56521      108.90585      307.95602     -0.21795944     0.002856487  
 104890000  -25.422071      98.695605      73.273533      287.91591      0.31873964     0.002856487  
 104900000  -12.266406      106.66651      94.400104      311.16873     -0.38970057     0.002856487  
 104910000   13.767663      101.77894      115.5466       296.91065     -0.098457589    0.002856487  
 104920000   13.212554      103.7944       117.00695      302.79017     -0.018058287    0.002856487  
 104930000   10.322516      94.934564      105.25708      276.94416      0.16952631     0.002856487  
 104940000  -4.5998862      114.62058      110.02069      334.37242      0.092994734    0.002856487  
 104950000   3.6760385      97.660048      101.33609      284.89498      0.020033087    0.002856487  
 104960000   0.15030054     102.80216      102.95246      299.8956      -0.27859835     0.002856487  
 104970000  -1.8825944      96.181182      94.298588      280.58081     -0.13640945     0.002856487  
 104980000  -6.3500029      116.73014      110.38014      340.52647      0.27426242     0.002856487  
 104990000  -5.3362104      89.47264       84.13643       261.01058      0.090237892    0.002856487  
 105000000  -8.8514575      99.164476      90.313019      289.28371      0.049931618    0.002856487  
Loop time of 6518.09 on 4 procs for 100000000 steps with 116 atoms

Performance: 13255.415 ns/day, 0.002 hours/ns, 15341.916 timesteps/s, 1.780 Matom-step/s
99.6% CPU use with 4 MPI tasks x 1 OpenMP threads

MPI task timing breakdown:
Section |  min time  |  avg time  |  max time  |%varavg| %total
---------------------------------------------------------------
Pair    | 1184.3     | 1738.7     | 2664.4     |1381.7 | 26.67
Bond    | 180.04     | 236.15     | 340.58     | 401.7 |  3.62
Neigh   | 6.2474     | 6.2727     | 6.2982     |   0.7 |  0.10
Comm    | 3350.5     | 4402.8     | 5025.5     | 977.5 | 67.55
Output  | 0.87227    | 1.3044     | 2.5907     |  65.0 |  0.02
Modify  | 77.005     | 92.843     | 119.57     | 170.7 |  1.42
Other   |            | 40.07      |            |       |  0.61

Nlocal:             29 ave          65 max          11 min
Histogram: 1 1 1 0 0 0 0 0 0 1
Nghost:             41 ave          65 max          30 min
Histogram: 2 0 1 0 0 0 0 0 0 1
Neighs:            163 ave         531 max          15 min
Histogram: 3 0 0 0 0 0 0 0 0 1

Total # of neighbors = 652
Ave neighs/atom = 5.6206897
Ave special neighs/atom = 5.3793103
Neighbor list builds = 125357
Dangerous builds = 0

write_data outputs/${tag}_final.data
write_data outputs/7LYJ_aso_n5_final.data
System init for write_data ...
Generated 0 of 6 mixed pair_coeff terms from geometric mixing rule
Total wall time: 1:53:06
