LAMMPS data file via write_data, version 29 Aug 2024, timestep = 105000000, units = real

547 atoms
4 atom types
496 bonds
1 bond types
445 angles
1 angle types

-300 300 xlo xhi
-300 300 ylo yhi
-300 300 zlo zhi

Masses

1 329.2
2 305.2
3 345.2
4 306.2

Bond Coeffs # harmonic

1 7.5 5.9

Angle Coeffs # harmonic

1 5 150

Atoms # full

522 49 2 0 -283.4695600755306 -3.318132786436207 -153.1762770586074 0 1 0
524 49 2 0 -287.3301957452885 -4.964516353994028 -143.10669573364683 0 1 0
525 49 2 0 -286.8058021124213 -3.0563227276868994 -137.33058726523365 0 1 0
523 49 4 0 -285.0102690025668 -5.914783340360304 -147.95831108245795 0 1 0
348 32 2 0 -26.175670916627777 -287.4976129990654 -119.83778610748776 0 0 -1
270 24 4 0 -65.31874918848351 -286.65237644181394 -99.89222714509778 0 0 0
272 24 2 0 -58.05674252606958 -295.81872023246257 -101.00310262223792 0 0 0
273 24 4 0 -52.959056167229825 -298.3625546475727 -102.01225078826394 0 0 0
269 24 3 0 -65.26848015936788 -282.3840511448304 -103.9291259207884 0 0 0
349 32 3 0 -30.6514305125401 -286.3530200168177 -115.92383298787846 0 0 -1
268 24 2 0 -64.25501916488531 -281.28066842868554 -109.82153108479508 0 0 0
350 32 4 0 -32.54888957148117 -282.54000259838296 -111.53321350127123 0 0 -1
352 32 2 0 -27.29169577399483 -276.080885778247 -104.72201665240941 0 0 -1
351 32 1 0 -31.1928530926764 -279.9611003192007 -106.3716129490525 0 0 -1
353 32 4 0 -24.797534513593437 -271.98564396298167 -101.87977785345299 0 0 -1
271 24 1 0 -61.346234185167255 -291.1977023954758 -98.59651563151233 0 0 0
354 32 2 0 -20.59243721377284 -269.7051803441295 -99.14723216709102 0 0 -1
356 32 3 0 -10.873750393288992 -270.2153422276547 -95.05925923858166 0 0 -1
355 32 2 0 -15.206949016773605 -271.7587827006114 -98.26035787962097 0 0 -1
357 32 2 0 -9.29009318110751 -264.90418308025903 -93.46809989078058 0 0 -1
364 33 2 0 -48.197066284606244 -185.66895213480345 -83.54964065242476 1 1 1
365 33 2 0 -52.60986451992042 -182.31602970678506 -85.4050339107689 1 1 1
367 33 2 0 -58.279248865518326 -175.65907291079404 -90.1163359855665 1 1 1
366 33 3 0 -56.45719817785531 -181.34912805981747 -89.51084696294711 1 1 1
362 33 2 0 -46.73561915386169 -188.74608551469476 -72.71336612638365 1 1 1
363 33 4 0 -46.915823851033565 -187.7001524919715 -78.13799542193861 1 1 1
361 33 1 0 -42.30816019930243 -188.61544925686948 -68.3847047778834 1 1 1
360 33 4 0 -38.42679834454963 -185.4985260746083 -66.04502788763712 1 1 1
359 33 3 0 -32.90266341550627 -185.68210398778638 -63.95015350233357 1 1 1
358 33 2 0 -29.66269271891187 -181.6707470782541 -61.054927606461 1 1 1
129 10 3 0 -287.9613430906425 -33.23221704713787 -21.7572665932284 0 -1 -1
128 10 2 0 -283.1997172139348 -35.03574454658388 -25.039745205106012 0 -1 -1
130 10 4 0 -292.72264050585954 -29.912934422648547 -23.38309850492101 0 -1 -1
131 10 1 0 -298.0387988326253 -27.030799692494114 -23.335589193748394 0 -1 -1
521 49 1 0 -280.10971332851796 -1.5402137171850576 -157.76424912340264 0 1 0
148 12 2 0 -153.90229184309356 -185.61235842664198 44.08802292766595 0 1 0
149 12 3 0 -154.60329071572974 -187.30370395986802 49.33906035355923 0 1 0
150 12 4 0 -158.01544113038267 -188.74132007877975 53.92000019448593 0 1 0
152 12 2 0 -165.7234546743123 -185.18828565063208 61.63005481123292 0 1 0
151 12 1 0 -163.08057892349325 -187.36101085848676 57.087538159958314 0 1 0
157 12 2 0 -151.7493430509385 -202.74331004999402 71.53128043235468 0 1 0
156 12 3 0 -155.05020670805357 -197.89633664317284 72.55540070812432 0 1 0
154 12 2 0 -160.23071570134408 -187.94695117545433 70.18832412415479 0 1 0
155 12 2 0 -159.1499553701579 -193.39719969541844 72.38530320973936 0 1 0
153 12 4 0 -164.6928159880255 -185.34660388464104 67.37281785220739 0 1 0
239 21 3 0 -183.50890298928113 -26.066312943571518 146.00583719645624 0 1 -1
238 21 2 0 -178.91360644909136 -27.937843793950716 142.8508090045091 0 1 -1
241 21 1 0 -188.72258042983935 -23.235949312937567 155.78992354813118 0 1 -1
240 21 4 0 -185.84793005196312 -25.947578849341536 151.38078850956387 0 1 -1
242 21 2 0 -190.49450596948046 -19.127016387459914 159.6100129845121 0 1 -1
243 21 4 0 -192.67431396659686 -19.764503431050038 165.1979309403969 0 1 -1
244 21 2 0 -193.49136895466887 -19.496188779084253 171.32684025372362 0 1 -1
245 21 2 0 -197.4374322405041 -19.9138714029988 175.5500392062665 0 1 -1
246 21 3 0 -199.86673870490444 -17.784960075364776 180.30207310980975 0 1 -1
247 21 2 0 -200.03263006475612 -13.455279035924619 184.29334827011087 0 1 -1
447 41 2 0 -216.92529188427093 -15.706400993143669 202.0384331915694 1 1 -1
445 41 2 0 -213.49338410742712 -6.648803738714801 195.75023925802307 1 1 -1
444 41 2 0 -212.84615625450212 -3.258908034681932 190.57128313909996 1 1 -1
446 41 3 0 -215.94390307517196 -10.257185882552928 199.76051913065783 1 1 -1
229 20 3 0 -202.3790446056991 -251.76349432714233 205.00294840281833 0 -1 1
228 20 2 0 -200.20895198198122 -257.1212531357933 206.6448162854619 0 -1 1
230 20 4 0 -203.07213113500347 -245.81826978640805 205.13162862414447 0 -1 1
231 20 1 0 -200.95931217054564 -240.7458995711479 206.56671485516395 0 -1 1
232 20 2 0 -195.84497630182992 -237.75623930560164 205.158042339318 0 -1 1
233 20 4 0 -192.3227846355028 -233.16589162339434 205.4584892965475 0 -1 1
234 20 2 0 -190.9344155785967 -228.10733315650555 207.78704791560585 0 -1 1
235 20 2 0 -189.11022880377206 -225.1199482261679 212.718618522976 0 -1 1
87 5 2 0 -228.36295024943396 -137.67522845815827 218.05673077792216 1 -1 0
236 20 3 0 -183.4565511522218 -223.8945195649856 214.89864794392147 0 -1 1
237 20 2 0 -179.03462028228688 -226.88715399472963 217.26029959893904 0 -1 1
78 5 2 0 -271.91042013080335 -137.99322396566586 231.56232015120582 1 -1 0
82 5 2 0 -250.58691339658833 -139.9542255564545 230.5996708220394 1 -1 0
80 5 4 0 -261.37372784683816 -136.1553900864522 228.70198925442304 1 -1 0
81 5 1 0 -256.13151505624995 -137.64128260614063 231.64861210297684 1 -1 0
79 5 3 0 -267.2560682767717 -137.27382994184836 228.45265005540114 1 -1 0
83 5 4 0 -245.22301307396367 -140.21297069604026 227.59835185865384 1 -1 0
84 5 2 0 -238.91940808257795 -140.26572325997378 228.32444313635935 1 -1 0
85 5 2 0 -233.13044549639275 -138.36843928256772 228.24174661221338 1 -1 0
86 5 3 0 -229.1343001266346 -138.15224796096274 223.94376354567666 1 -1 0
220 19 4 0 -3.1411882352540457 -12.18323475007717 226.3342239055628 1 0 -1
250 22 4 0 -184.92933639151536 -275.0665650400279 246.34536158222323 0 1 -1
249 22 3 0 -181.59478170188385 -270.86297351734356 249.60890557474573 0 1 -1
251 22 1 0 -185.5094115887599 -280.15322377011114 247.93739635265032 0 1 -1
218 19 2 0 -3.896814752325214 -13.362407451633292 236.5754625524755 1 0 -1
219 19 3 0 -6.09530364928588 -12.290725171856748 231.24087207475267 1 0 -1
254 22 2 0 -191.73591221050415 -293.1325014714532 255.54541701464444 0 1 -1
253 22 4 0 -188.9127488950098 -288.6679326902942 254.941851416635 0 1 -1
255 22 2 0 -189.8950513354361 -298.9088895172722 256.2945737183747 0 1 -1
252 22 2 0 -186.5886533160067 -285.0081396524266 250.80225527553768 0 1 -1
248 22 2 0 -180.02164714963715 -265.3790283120229 249.53839155300412 0 1 -1
188 16 2 0 -21.461538528529722 -149.44595768314895 281.7415884212786 1 0 -1
190 16 4 0 -25.526762786220857 -139.48519807116162 279.7348178080528 1 0 -1
189 16 3 0 -24.41683450030056 -145.01800969081114 279.1461747372085 1 0 -1
191 16 1 0 -28.10695884752151 -134.44127611477253 280.19758773547164 1 0 -1
192 16 2 0 -27.175498863367057 -129.22337732341845 277.75769753086007 1 0 -1
193 16 4 0 -24.03510240379319 -125.92446486818812 274.2433328865903 1 0 -1
194 16 2 0 -20.168500937495033 -121.6953615695733 275.3139374582153 1 0 -1
195 16 2 0 -15.331000826970815 -119.13277433283798 274.97238269082663 1 0 -1
196 16 3 0 -10.235367126510411 -117.11900015035874 272.65119493731186 1 0 -1
197 16 2 0 -8.99350218007322 -112.73829876684555 269.0691476317065 1 0 -1
285 25 2 0 -208.53738017913454 59.73996969377124 -299.3594642683427 0 0 1
283 25 4 0 -211.4700394199057 59.14288211601345 -288.0839113723226 0 0 1
284 25 2 0 -211.8517099065055 59.44164949090109 -294.09343649940365 0 0 1
341 31 1 0 -147.83709296201707 90.989742187959 -298.1334559131406 -1 0 0
340 31 4 0 -144.01761616508156 95.26732550104539 -297.6118732149642 -1 0 0
339 31 3 0 -143.40256261137077 99.43988380543675 -293.69355920081 -1 0 0
338 31 2 0 -145.07649577223611 104.9276113445154 -293.3425899396202 -1 0 0
280 25 4 0 -207.243900335148 62.140332225220895 -273.06187272113056 0 0 1
282 25 2 0 -211.04617634180136 63.65875938672219 -283.54797204032076 0 0 1
281 25 1 0 -207.51481265387912 64.23583660626232 -278.7151257345093 0 0 1
279 25 3 0 -207.40644425979548 61.88508766706277 -267.4981903147164 0 0 1
278 25 2 0 -209.87518608868155 63.05840907732275 -262.13684258574983 0 0 1
518 49 2 0 -275.0538483978286 9.288270328769777 -169.83361186726296 0 1 0
8 1 2 0 -195.4540728681814 169.88702959714712 -28.124405562611333 0 0 -1
519 49 3 0 -276.00397918424113 4.2082820744912715 -167.0225419785891 0 1 0
520 49 4 0 -279.1494848021088 0.33256277977814785 -163.2709795252565 0 1 0
526 49 3 0 -284.05912730381584 1.0627007697947553 -133.81619229358392 0 1 0
527 49 2 0 -278.6773448407039 3.3840248314441697 -133.10936599279972 0 1 0
167 13 2 0 -61.891127240638866 105.43135577119452 -100.80004260497542 1 1 0
7 1 2 0 -190.4474218200848 171.93369032242353 -30.44656416647248 0 0 -1
98 7 2 0 -2.9022404436401974 174.95487406486 -111.28946850511379 -1 0 0
9 1 3 0 -200.4776242914502 169.31542318533184 -24.80968644327321 0 0 -1
277 24 2 0 -42.7140708318141 285.6718580667052 -111.89526054657102 0 -1 0
275 24 2 0 -45.1034411887035 293.5863580044294 -104.57552688747494 0 -1 0
276 24 3 0 -44.058673711369046 287.89866439600416 -106.65094029704021 0 -1 0
274 24 2 0 -49.21355101832563 298.1574277679141 -105.33996160238462 0 -1 0
166 13 3 0 -65.51949926792653 101.59552850092362 -97.98758241154405 1 1 0
164 13 2 0 -76.27899052289041 104.23053574289412 -96.57129456739727 1 1 0
165 13 2 0 -70.5940822035472 102.6308502669617 -95.77248073416801 1 1 0
163 13 4 0 -79.53357329737644 108.87479473130685 -96.5120005640735 1 1 0
162 13 2 0 -78.7848150242296 114.617092249456 -97.43401451466606 1 1 0
161 13 1 0 -76.98620698738654 120.33459654113103 -96.20810400501182 1 1 0
160 13 4 0 -75.43884024318314 124.07091955283128 -91.70950372700507 1 1 0
159 13 3 0 -72.22229318103342 126.21687104528715 -87.333192233642 1 1 0
158 13 2 0 -70.25935927870628 131.09143774191162 -84.08855812116087 1 1 0
106 7 3 0 -2.401536545386875 213.72520179445473 -98.36547335093766 -1 0 0
107 7 2 0 -6.726053716318079 214.1060575703681 -94.61804096491196 -1 0 0
2 1 3 0 -176.3758914174245 162.64264372257162 -50.478195185194366 0 0 -1
1 1 2 0 -172.60360982220456 158.60934032234988 -52.08522402550418 0 0 -1
6 1 4 0 -186.37442651957005 171.49750128215817 -34.61727953018048 0 0 -1
5 1 2 0 -185.3758363737244 172.30052860431195 -40.19734993641596 0 0 -1
4 1 1 0 -181.85889741275642 169.9505111919838 -44.15095899847308 0 0 -1
3 1 4 0 -180.26426972133837 166.22212500512947 -48.74955237524499 0 0 -1
10 1 2 0 -205.11837548088727 172.02402844263503 -23.064824733423603 0 0 -1
455 42 2 0 -18.38839188232262 234.94945957432526 12.874172359190814 1 -1 1
454 42 2 0 -13.842950152975865 231.17748372895315 12.194903177767307 1 -1 1
453 42 4 0 -9.482322490435498 227.01990885998472 12.84236528901599 1 -1 1
456 42 3 0 -21.799076675146416 238.23164326703014 9.372967679590309 1 -1 1
457 42 2 0 -27.397652514719613 240.41064360476153 9.623642972140884 1 -1 1
489 46 3 0 -134.63936513545409 42.6882888054231 34.007218500264536 2 0 0
490 46 4 0 -138.36084309873877 37.76135667785983 33.27990922800395 2 0 0
488 46 2 0 -134.59094831080202 48.34827142196278 32.37536552319362 2 0 0
452 42 2 0 -6.376423464197561 224.76668456281294 17.360591636970742 1 -1 1
451 42 1 0 -1.7232936810880117 226.91869323197315 20.262049537800067 1 -1 1
450 42 4 0 -3.0649703786694924 229.39282983382964 25.392442739734705 1 -1 1
497 46 2 0 -113.13077535203054 14.229670254553715 37.49686034808528 2 0 0
492 46 2 0 -137.12780890304919 27.595528884134822 35.628160188548144 2 0 0
494 46 2 0 -125.96394507005459 24.65446961819508 36.193874678835584 2 0 0
493 46 4 0 -131.5897865580521 25.98125341053114 37.15067205790761 2 0 0
496 46 3 0 -117.17302334911372 18.04848373963801 40.212063502094736 2 0 0
495 46 2 0 -121.97812377940365 21.266529662503686 39.18890820738284 2 0 0
491 46 1 0 -138.48611271409015 32.038104098608365 32.485985125809 2 0 0
198 17 2 0 -283.49656268903175 148.7106980548302 43.02350814724363 0 -1 0
201 17 1 0 -296.66535179557565 150.48701690416001 48.806627487133085 0 -1 0
199 17 3 0 -287.30875109268106 153.31664454339597 43.638092940215294 0 -1 0
200 17 4 0 -292.3630747367408 154.1378680395044 46.73016910568199 0 -1 0
398 37 2 0 -242.8982623932272 123.30151104702382 101.43514007003093 1 -1 0
404 37 2 0 -220.49493915399609 130.46607513924164 98.56341157438122 1 -1 0
435 40 2 0 -0.6811316611477501 83.08469363837742 102.772699754865 0 -1 0
434 40 2 0 -1.2426623607982907 86.02224699660042 107.69931404751343 0 -1 0
399 37 3 0 -239.3688887806178 121.24242612036386 105.6040808969991 1 -1 0
400 37 4 0 -234.75256107116832 123.22239800823799 108.7806925208591 1 -1 0
401 37 1 0 -232.37841450098009 128.31510045201549 107.91190689307994 1 -1 0
403 37 4 0 -225.80492229850475 132.48719456791636 100.08797645205064 1 -1 0
402 37 2 0 -228.6732636306442 131.73340620394998 104.93470769592007 1 -1 0
406 37 3 0 -210.9025317594536 125.05346324142356 100.96217874741188 1 -1 0
405 37 2 0 -215.66774039628297 128.66202577576166 101.13446025059643 1 -1 0
407 37 2 0 -205.45037039375723 124.15191542393652 98.78793381579092 1 -1 0
168 14 2 0 -225.12608990356637 47.69137180296964 133.0752819033297 0 0 0
170 14 4 0 -224.19766131932155 58.07588954889913 129.00561492668064 0 0 0
171 14 1 0 -221.28222990058484 63.058095131373626 129.04123442890779 0 0 0
169 14 3 0 -223.0039591673376 53.307166039713664 132.63757963754105 0 0 0
175 14 2 0 -203.66840558731437 61.59068297655903 131.31117841070719 0 0 0
174 14 2 0 -208.626418744795 62.81984319722821 133.99767832080272 0 0 0
173 14 4 0 -213.33940879306726 66.27092782899264 135.22185944375178 0 0 0
176 14 3 0 -199.81370250419886 61.613783916271586 127.04749572910296 0 0 0
177 14 2 0 -195.0917958367514 65.1593258539957 125.90207607913818 0 0 0
172 14 2 0 -217.63390118144872 66.91062914317234 131.03782372810568 0 0 0
428 40 2 0 -1.8614760985708896 100.21166549832655 128.6737675977626 0 -1 0
438 41 2 0 -191.03468929310628 12.917419106738551 179.1634971275709 1 1 -1
439 41 3 0 -196.49396255926374 15.605317059476944 180.46168925234875 1 1 -1
443 41 4 0 -211.65281682315944 1.7968395690422112 187.2960281403619 1 1 -1
442 41 2 0 -209.22541332574932 6.519530674132713 185.22435729028206 1 1 -1
441 41 1 0 -206.39542359651043 11.299172730227982 184.20431095786884 1 1 -1
440 41 4 0 -202.1814174435627 14.611690672204409 181.21280101714478 1 1 -1
334 30 2 0 -69.30426062538481 37.915090533776905 196.89203582001898 -1 0 0
337 30 2 0 -55.476943470818284 42.367768428097875 197.56796860970255 -1 0 0
336 30 3 0 -58.68179350055722 39.227563882198105 193.8397702211253 -1 0 0
335 30 2 0 -64.02548095570543 36.62080207507263 194.86773991168639 -1 0 0
332 30 2 0 -70.61064089864227 40.01616065860352 207.59168556562852 -1 0 0
331 30 1 0 -73.42017010806921 44.665930193009785 210.63053642625047 -1 0 0
330 30 4 0 -78.93229925367498 45.59738467420462 212.73689618048218 -1 0 0
333 30 4 0 -71.80550140589065 38.292096034154 202.06143248933682 -1 0 0
328 30 2 0 -83.85527004044984 37.29569513960871 218.12979903348682 -1 0 0
329 30 3 0 -82.45630701980278 42.3737861641165 216.27484081884538 -1 0 0
257 22 2 0 -187.891459794897 290.5407612505837 257.74529102873885 0 0 -1
256 22 3 0 -190.56544301370576 295.58622695807685 258.11357988699694 0 0 -1
287 25 2 0 -207.37479679141668 63.901336325220655 290.41940202149516 0 0 0
286 25 3 0 -208.0547364258261 59.59649392431823 294.6631860211399 0 0 0
346 31 3 0 -164.26231042601313 97.50047991426813 290.12866733345277 -1 0 -1
347 31 2 0 -161.771759462277 102.51414009173774 291.1054454176705 -1 0 -1
344 31 2 0 -160.21539881656597 87.64995217574476 294.71320296527193 -1 0 -1
343 31 4 0 -155.0759320871768 85.75511689531652 296.9430642477959 -1 0 -1
345 31 2 0 -162.4710307583416 91.98543180410027 291.03941761188617 -1 0 -1
342 31 2 0 -149.4633252132989 87.15644229980765 297.7294977467415 -1 0 -1
68 4 2 0 137.66585897578128 -221.3050327045278 -251.62135544316914 -1 1 2
69 4 3 0 139.23257662733715 -215.58011186784714 -253.02705644064255 -1 1 2
70 4 4 0 143.21542775762364 -211.32997798926337 -252.73246163647877 -1 1 2
71 4 1 0 149.17246529869027 -211.17378881808676 -250.80691146629712 -1 1 2
72 4 2 0 153.25955183564668 -209.07990998778325 -246.97592761725184 -1 1 2
73 4 4 0 158.17615622505804 -209.58531231506822 -244.25414601653424 -1 1 2
74 4 2 0 163.94167910565753 -210.4113370625397 -243.67231561359065 -1 1 2
75 4 2 0 167.57332036730008 -209.81258492198344 -239.41835740271097 -1 1 2
76 4 3 0 171.6387731858411 -212.10791172014228 -235.77630705432406 -1 1 2
77 4 2 0 175.04389029113156 -210.44253885163147 -231.37353402271657 -1 1 2
44 2 3 0 206.99863200368955 -295.7248618174027 -176.69925179528386 0 0 0
43 2 1 0 203.43652337025563 -294.8552790257574 -172.09806299975352 0 0 0
20 2 2 0 216.66418019805548 -295.2039744678234 -166.18353930320364 0 0 0
19 2 2 0 215.53633596218384 -299.8897255184207 -169.9939407273929 0 0 0
45 2 3 0 208.92443028854152 -298.58238566334836 -180.89275708536826 0 0 0
42 2 3 0 202.94838767078346 -296.0453425601694 -166.09285153720714 0 0 0
21 2 3 0 213.73549715977333 -291.34174738647505 -163.12689885346649 0 0 0
22 2 1 0 211.58631941389967 -289.65596156835653 -157.96177449528952 0 0 0
23 2 3 0 209.13418855177525 -290.61602651569575 -152.70195787068897 0 0 0
24 2 3 0 204.91647060868542 -287.8639848155329 -149.11358214829073 0 0 0
108 8 2 0 219.9632998104954 -289.4088536378309 -151.75753564053605 0 0 0
91 6 1 0 132.42200942014864 -218.78386713180544 -153.0842661738069 -1 0 1
92 6 2 0 126.51513065563097 -218.39315003381108 -152.73803648399152 -1 0 1
90 6 4 0 138.0828828363255 -216.02867431287987 -152.44603367740376 -1 0 1
89 6 3 0 143.96174876156513 -215.81721359385767 -153.10217532781218 -1 0 1
88 6 2 0 148.47810390436365 -216.42104112418212 -157.1839752909074 -1 0 1
95 6 2 0 115.74083858524155 -205.23863359528954 -154.7746940900552 -1 0 1
93 6 4 0 122.79521781704541 -214.939235021486 -156.02286478143677 -1 0 1
94 6 2 0 119.35637274163197 -210.2537172067502 -155.78419458644004 -1 0 1
25 2 2 0 205.85592212681698 -285.58323024295055 -143.76036524121952 0 0 0
26 2 2 0 209.90937513560286 -284.1715655241028 -139.98291314454173 0 0 0
110 8 4 0 216.14529855171878 -293.14796942528204 -141.7279732472713 0 0 0
111 8 1 0 215.78917916014794 -296.33818410548355 -136.6443687294703 0 0 0
109 8 3 0 219.61981925083734 -291.1190144883856 -145.92939722047214 0 0 0
31 2 3 0 232.6956398202049 -288.96263167635857 -143.79372977700575 0 0 0
32 2 3 0 235.04764715769912 -293.8110669204883 -141.74934918791308 0 0 0
33 2 1 0 233.89748454637135 -299.3310233280342 -139.7866905038768 0 0 0
27 2 1 0 215.1998524394047 -281.5830181001768 -139.28203336215907 0 0 0
30 2 2 0 227.8040704136074 -285.8735504755876 -144.6951056369807 0 0 0
28 2 2 0 220.4253823342208 -278.69239388389 -140.14805269518047 0 0 0
29 2 3 0 225.10782476678224 -281.0670300486045 -142.31347103423624 0 0 0
117 8 2 0 235.40091060086579 -282.23354748833185 -135.99274913117023 0 0 0
96 6 3 0 113.3284004205992 -200.58068461313664 -151.75677192046183 -1 0 1
97 6 2 0 112.43846209392039 -198.3904034459362 -146.41171025095127 -1 0 1
413 38 4 0 91.17511835526798 -43.193907583504824 -134.1332173878097 1 -1 1
414 38 2 0 95.5205124933151 -46.54357756299721 -135.7299954302624 1 -1 1
114 8 2 0 230.12567392166045 -297.6675633590945 -129.430936433687 0 0 0
112 8 2 0 219.41116167176006 -298.56169637718835 -132.60830282291053 0 0 0
113 8 4 0 224.492152731503 -299.64613575351353 -129.9852945207948 0 0 0
115 8 2 0 232.60252772521358 -292.2919966391837 -130.3942581095599 0 0 0
116 8 3 0 235.28924057852694 -287.5803416026699 -133.02242003809386 0 0 0
507 47 2 0 184.62727622732496 -156.74457557392822 -119.16427194246717 -1 0 1
415 38 2 0 100.9251953080874 -49.143428706698636 -134.3425922765557 1 -1 1
416 38 3 0 102.21420028505948 -51.47680721726563 -128.9598667781788 1 -1 1
417 38 2 0 100.31665729314601 -53.55708387937756 -123.81348771587226 1 -1 1
410 38 4 0 78.29889652018814 -37.10775439570423 -127.05442829425195 1 -1 1
409 38 3 0 78.23113603446224 -37.47396975577308 -121.33898835048873 1 -1 1
412 38 2 0 88.63313742271478 -39.71348378321332 -129.7622757296848 1 -1 1
411 38 1 0 83.6115228862045 -36.15589798625933 -129.59333392110236 1 -1 1
506 47 3 0 180.53358395840564 -154.07280730016473 -116.26080950207634 -1 0 1
504 47 2 0 181.82247485165726 -152.84524341223693 -105.44697664391008 -1 0 1
505 47 2 0 179.3120125434046 -152.96437336774468 -110.67926106479042 -1 0 1
408 38 2 0 75.5454972845045 -34.446991834918705 -116.58013735499324 1 -1 1
502 47 2 0 179.84128895691853 -154.46294626428312 -94.49878830978942 -1 0 1
501 47 1 0 175.05953951080696 -155.6366080215275 -91.03786985906208 -1 0 1
500 47 4 0 172.81684756746847 -159.56067971138975 -86.99127028262778 -1 0 1
503 47 4 0 181.81184133538616 -155.06209718914047 -99.7236417798367 -1 0 1
420 39 4 0 265.9946056785992 -225.35348988683032 -72.95566333921555 -1 0 0
421 39 1 0 266.3337077851727 -228.15505432969525 -67.5421344426678 -1 0 0
419 39 3 0 263.8043446602602 -221.5562456720202 -76.2173872248432 -1 0 0
418 39 2 0 258.90230584826895 -219.67789499070682 -78.76576029504865 -1 0 0
498 47 2 0 169.60318689172252 -160.3655768346311 -77.14122924692131 -1 0 1
499 47 3 0 171.98306854728045 -162.0784407758546 -82.1202432668105 -1 0 1
427 39 2 0 255.6377659923044 -249.90664642165666 -51.07519775395367 -1 0 0
426 39 3 0 258.4304914114641 -245.52111562182122 -54.156549577406594 -1 0 0
425 39 2 0 257.6014586568515 -240.19574464758387 -56.99563930811768 -1 0 0
424 39 2 0 261.7923766653344 -236.93869000174323 -58.700577686647314 -1 0 0
423 39 4 0 267.37448299994526 -234.99829775375017 -60.004480844902204 -1 0 0
422 39 2 0 269.38875022884633 -230.28272374511272 -63.00612540978017 -1 0 0
138 11 2 0 69.13775174095842 -192.52755106353212 -52.40655654078589 1 1 -1
141 11 1 0 66.33439679406878 -185.5177446542259 -37.034916646726586 1 1 -1
140 11 4 0 67.78093355965491 -186.45698446613542 -42.78455785057167 1 1 -1
139 11 3 0 67.9738855437972 -190.7239242066571 -46.70041685167576 1 1 -1
135 10 2 0 297.46208547538436 -13.17144921655192 -40.57719864219327 -1 -1 -1
137 10 2 0 290.1414482349279 -5.168600965042178 -42.858251176914344 -1 -1 -1
136 10 3 0 293.6036613322368 -9.689477314011148 -42.10705001123436 -1 -1 -1
134 10 2 0 298.8381050558645 -17.07198303803113 -36.592065568331066 -1 -1 -1
142 11 2 0 62.38943214705525 -183.67200170939316 -33.2885843607914 1 1 -1
143 11 4 0 60.585625933706865 -181.25668719525066 -28.4688441271271 1 1 -1
144 11 2 0 60.04076862191892 -180.51707991178867 -22.56558160630193 1 1 -1
133 10 4 0 298.76562431770554 -21.380115615594445 -32.503406577249926 -1 -1 -1
132 10 2 0 298.1989124962284 -24.97376606772467 -27.37895072802961 -1 -1 -1
145 11 2 0 61.66707613484638 -178.79147921339012 -17.24473262350479 1 1 -1
146 11 3 0 60.75965853424849 -179.00663489779066 -11.556078896000868 1 1 -1
147 11 2 0 55.8958866887551 -179.07548120701784 -8.196586490122446 1 1 -1
41 2 2 0 202.22136414041844 -298.6798980476391 -160.57427437974277 0 0 0
313 28 4 0 13.128234471134125 -0.1848402740143532 -298.9223101930357 -1 1 1
307 27 2 0 293.49737561632764 -33.212535692789146 1.2581669145699512 0 -1 0
302 27 2 0 282.7759163896369 -18.8461111972197 15.549897355318949 0 -1 0
301 27 1 0 277.93009078251146 -16.920194545390736 19.05102147412499 0 -1 0
303 27 4 0 287.20265869143003 -22.387989680997453 17.157599216242712 0 -1 0
305 27 2 0 289.8309995175983 -32.16920924564809 12.223759230961983 0 -1 0
304 27 2 0 290.58656212496885 -27.339577444006803 15.496444043989166 0 -1 0
306 27 3 0 291.367908987061 -33.801744031626285 6.77333240729838 0 -1 0
300 27 4 0 273.1879697717753 -14.345248071745548 20.569191058625343 0 -1 0
485 45 2 0 247.0187873169176 -230.9461782985313 28.129468327649285 0 0 -1
484 45 2 0 250.10666317505533 -226.343166720187 27.80064060089193 0 0 -1
486 45 3 0 241.90690519698225 -232.15508609610208 31.31740481297133 0 0 -1
483 45 4 0 251.92452177321587 -221.78008468130975 24.706611490520828 0 0 -1
482 45 2 0 251.46010353313528 -217.80986636536826 20.48265331241107 0 0 -1
480 45 4 0 251.98352913416852 -207.23221683698054 17.03783297717418 0 0 -1
481 45 1 0 251.55769648735637 -213.16384770219392 17.548270510120783 0 0 -1
479 45 3 0 250.81453179121493 -201.88495367303156 19.410682088640662 0 0 -1
478 45 2 0 250.49396287810265 -197.52047274630752 23.347365729971145 0 0 -1
267 23 2 0 180.22275990547575 -170.96756613244716 33.41557404709336 0 1 -1
265 23 2 0 188.45587241974562 -172.4218454452262 26.48368613686103 0 1 -1
264 23 2 0 193.73281575832053 -171.2126811321641 28.7794294451184 0 1 -1
266 23 3 0 183.08445790899435 -171.42131399168017 28.35555808309958 0 1 -1
263 23 4 0 197.9717629493407 -167.69035886301504 31.324277202235525 0 1 -1
298 27 2 0 262.524049749257 -15.731341631489782 18.487409393865125 0 -1 0
299 27 3 0 267.3617667445133 -12.698442583123503 20.344813654189114 0 -1 0
487 45 2 0 238.25854588895257 -229.8481202371573 35.6450576623105 0 0 -1
262 23 2 0 204.20212217347216 -167.98012877553936 33.69029607407712 0 1 -1
261 23 1 0 206.6583801264845 -170.9528923440101 38.34751250097967 0 1 -1
260 23 4 0 210.877438189035 -172.89840099686882 42.49351892149543 0 1 -1
258 23 2 0 222.26248004206784 -176.53814143897642 42.223187019621385 0 1 -1
259 23 3 0 216.75481599584757 -174.29323792619107 42.94827334100452 0 1 -1
387 35 2 0 242.33537046022593 -4.75892246467295 69.3670473779222 0 0 0
386 35 3 0 247.71262968140655 -6.276819261266281 70.84342777637805 0 0 0
385 35 2 0 250.13232330356126 -7.621437434626643 75.95187936377256 0 0 0
384 35 2 0 249.05970011952974 -7.768428561683765 81.7717761853832 0 0 0
383 35 4 0 251.5643063093138 -3.6382737652543367 85.10145249282698 0 0 0
64 3 2 0 255.92311603434015 -269.52946844159254 164.80926517385493 -1 -1 0
63 3 4 0 258.5119578071779 -265.42218748965536 161.2224560428668 -1 -1 0
62 3 2 0 263.06725673189186 -263.10204748748305 158.31225170924773 -1 -1 0
60 3 4 0 263.75340908762826 -252.72705834691882 155.5493227106912 -1 -1 0
61 3 1 0 263.3299560454065 -258.4736264077793 154.8063618808017 -1 -1 0
59 3 3 0 260.220409917031 -248.57656455195803 154.74377078368562 -1 -1 0
58 3 2 0 259.3601257920093 -242.90439730511451 153.48203257084543 -1 -1 0
477 44 2 0 198.72361795690642 -201.51516318130308 161.09350472605715 -1 1 1
475 44 2 0 208.81393549109393 -204.03374674621483 160.64274794858886 -1 1 1
476 44 3 0 203.5482936694502 -203.21597921349513 158.37547385630108 -1 1 1
474 44 2 0 213.66838571848868 -202.46325386672748 157.93161049923052 -1 1 1
471 44 1 0 230.3884296794122 -201.29361018329763 156.35718467051956 -1 1 1
473 44 4 0 219.49746049052908 -201.9025236393578 159.4596177427101 -1 1 1
469 44 3 0 240.3112272750871 -201.97001984519673 151.89437578489344 -1 1 1
468 44 2 0 245.05291107131632 -205.46555263294897 151.6407888703669 -1 1 1
472 44 2 0 224.66454696302503 -202.18939083341905 157.36311597741133 -1 1 1
470 44 4 0 235.11356931803562 -198.7139806486262 153.3462668647014 -1 1 1
65 3 2 0 251.8293738702702 -271.0698401966785 168.61636090521336 -1 -1 0
67 3 2 0 255.268488401464 -279.81788834559677 175.33868176684805 -1 -1 0
66 3 3 0 252.92316952857254 -275.96293610766367 171.33288513346196 -1 -1 0
221 19 1 0 2.0597423735763662 -11.205589747631866 223.5746951653239 1 0 -1
222 19 2 0 7.778510191772175 -10.446721881529914 224.21073082098894 1 0 -1
223 19 4 0 13.215407639880329 -11.419182161382645 226.35872213695654 1 0 -1
224 19 2 0 16.99426573653021 -9.481056787570857 230.1592728728475 1 0 -1
226 19 3 0 17.086370243753947 -6.8062890221336625 240.63438931692372 1 0 -1
227 19 2 0 14.002971824574702 -4.342776948139396 245.5270522275533 1 0 -1
225 19 2 0 18.56476033403359 -6.39040729069452 235.30288695297796 1 0 -1
208 18 2 0 212.24831947098676 -12.23174430034756 257.56580500306654 -1 0 0
209 18 3 0 213.36911135572848 -8.454654639996312 261.837341543855 -1 0 0
210 18 4 0 216.64353531244615 -5.027792089853634 265.4403711854598 -1 0 0
317 28 2 0 5.889930314821676 -16.566482044999297 289.15065433957176 -1 1 0
316 28 3 0 9.664868676427291 -12.169251293061778 289.22387098533204 -1 1 0
314 28 2 0 11.53350152055184 -4.448927273784221 297.2667426853384 -1 1 0
315 28 2 0 12.106902695943912 -7.795575578349891 291.849338877019 -1 1 0
211 18 1 0 220.35941037989758 -0.5489856244955508 266.85634657429796 -1 0 0
311 28 1 0 8.775132068602195 5.082612313485627 -290.223249927646 -1 1 1
310 28 4 0 6.788926022267104 10.108384395976564 -289.00493867266556 -1 1 1
309 28 3 0 3.6939931105848025 13.75242031170806 -285.7897893871027 -1 1 1
312 28 2 0 9.61499314170857 3.0007982073628043 -295.63895097573294 -1 1 1
296 26 3 0 252.06885938095212 197.45317752895204 -287.69942983133154 0 0 1
297 26 2 0 246.2996174719364 197.1992324368988 -286.86392159670675 0 0 1
295 26 2 0 257.5884040609875 197.962341635461 -286.68106103537974 0 0 1
294 26 2 0 262.58883084614695 201.05946182670823 -286.758851574849 0 0 1
293 26 4 0 263.41978328022685 206.42756323190883 -288.7895648781482 0 0 1
292 26 2 0 266.40740065335825 211.5177566647695 -289.4856901100801 0 0 1
291 26 1 0 267.0846971559699 216.84388343871203 -291.5184346289738 0 0 1
290 26 4 0 270.2515481013096 221.79983890883292 -292.14296836410773 0 0 1
289 26 3 0 272.4631971628688 227.0182798689558 -294.30756482417485 0 0 1
288 26 2 0 274.76807026442424 232.40834492592 -292.4187654806646 0 0 1
308 28 2 0 5.574480873491583 17.262503053522565 -280.95619188000376 -1 1 1