
# --- Force field -------------------------------------------------
bond_style  harmonic
bond_coeff  1 7.5 5.9

angle_style harmonic
angle_coeff 1 5.0 150.0

pair_style  hybrid/overlay lj/cut 10.0 base/rna 18.0
pair_modify shift yes

pair_coeff * * lj/cut 2.0 8.9089871814

pair_coeff 1 1 base/rna 0.00000 3.0 13.8 1.5 0.5 1.8326 0.9425 1.8326 1.1345
pair_coeff 1 2 base/rna 0.00000 3.0 13.8 1.5 0.5 1.8326 0.9425 1.8326 1.1345
pair_coeff 1 3 base/rna 0.00000 3.0 13.8 1.5 0.5 1.8326 0.9425 1.8326 1.1345
pair_coeff 1 4 base/rna 3.33333 3.0 13.8 1.5 0.5 1.8326 0.9425 1.8326 1.1345
pair_coeff 2 2 base/rna 0.00000 3.0 13.8 1.5 0.5 1.8326 0.9425 1.8326 1.1345
pair_coeff 2 3 base/rna 5.00000 3.0 13.8 1.5 0.5 1.8326 0.9425 1.8326 1.1345
pair_coeff 2 4 base/rna 0.00000 3.0 13.8 1.5 0.5 1.8326 0.9425 1.8326 1.1345
pair_coeff 3 3 base/rna 0.00000 3.0 13.8 1.5 0.5 1.8326 0.9425 1.8326 1.1345
pair_coeff 3 4 base/rna 3.33333 3.0 13.8 1.5 0.5 1.8326 0.9425 1.8326 1.1345
pair_coeff 4 4 base/rna 0.00000 3.0 13.8 1.5 0.5 1.8326 0.9425 1.8326 1.1345

# --- Minimization ------------------------------------------------
minimize 1.0e-4 1.0e-6 1000 10000

CITE-CITE-CITE-CITE-CITE-CITE-CITE-CITE-CITE-CITE-CITE-CITE-CITE

Your simulation uses code contributions which should be cited:

- Type Label Framework: https://doi.org/10.1021/acs.jpcb.3c08419

@Article{Gissinger24,
 author = {Jacob R. Gissinger, Ilia Nikiforov, Yaser Afshar, Brendon Waters, Moon-ki Choi, Daniel S. Karls, Alexander Stukowski, Wonpil Im, Hendrik Heinz, Axel Kohlmeyer, and Ellad B. Tadmor},
 title = {Type Label Framework for Bonded Force Fields in LAMMPS},
 journal = {J. Phys. Chem. B},
 year =    2024,
 volume =  128,
 number =  13,
 pages =   {3282–-3297}
}

CITE-CITE-CITE-CITE-CITE-CITE-CITE-CITE-CITE-CITE-CITE-CITE-CITE

Switching to 'neigh_modify every 1 delay 0 check yes' setting during minimization
Generated 0 of 6 mixed pair_coeff terms from geometric mixing rule
Neighbor list info ...
  update: every = 1 steps, delay = 0 steps, check = yes
  max neighbors/atom: 2000, page size: 100000
  master list distance cutoff = 33
  ghost atom cutoff = 33
  binsize = 16.5, bins = 37 37 37
  2 neighbor lists, perpetual/occasional/extra = 2 0 0
  (1) pair lj/cut, perpetual, trim from (2)
      attributes: half, newton on, cut 25
      pair build: trim
      stencil: none
      bin: none
  (2) pair base/rna, perpetual
      attributes: half, newton on
      pair build: half/bin/newton
      stencil: half/bin/3d
      bin: standard
Per MPI rank memory allocation (min/avg/max) = 8.453 | 8.487 | 8.721 Mbytes
   Step          Temp          E_pair         E_mol          TotEng         Press     
         0   0              3911.3756      632.25844      4543.6341      5.4182718    
       130   0             -60.704109      545.77126      485.06715      0.0013356586 
Loop time of 0.0116731 on 8 procs for 130 steps with 547 atoms

76.4% CPU use with 8 MPI tasks x 1 OpenMP threads

Minimization stats:
  Stopping criterion = energy tolerance
  Energy initial, next-to-last, final = 
      4543.63407896442    485.11546285262   485.067147024745
  Force two-norm initial, final = 6484.6884 1.5241928
  Force max component initial, final = 2918.3409 0.37743267
  Final line search alpha, max atom move = 0.14943727 0.056402509
  Iterations, force evaluations = 130 172

MPI task timing breakdown:
Section |  min time  |  avg time  |  max time  |%varavg| %total
---------------------------------------------------------------
Pair    | 0.0024902  | 0.0031322  | 0.0046711  |   1.2 | 26.83
Bond    | 0.00017317 | 0.00044381 | 0.00081489 |   0.0 |  3.80
Neigh   | 0          | 0          | 0          |   0.0 |  0.00
Comm    | 0.0042604  | 0.0061876  | 0.0068962  |   1.0 | 53.01
Output  | 0          | 0          | 0          |   0.0 |  0.00
Modify  | 0          | 0          | 0          |   0.0 |  0.00
Other   |            | 0.00191    |            |       | 16.36

Nlocal:         68.375 ave         125 max          23 min
Histogram: 1 0 1 1 3 0 1 0 0 1
Nghost:             88 ave         119 max          64 min
Histogram: 1 1 1 1 1 1 0 1 0 1
Neighs:          160.5 ave         354 max          91 min
Histogram: 4 0 2 0 0 1 0 0 0 1

Total # of neighbors = 1284
Ave neighs/atom = 2.3473492
Ave special neighs/atom = 4.88117
Neighbor list builds = 0
Dangerous builds = 0
reset_timestep 0

# --- Output setup ------------------------------------------------
dump d1 all custom 50000 outputs/${tag}.lammpstrj id mol type q xu yu zu
dump d1 all custom 50000 outputs/1XJR_aso_n50.lammpstrj id mol type q xu yu zu
dump_modify d1 sort id

thermo_style custom step pe ke etotal temp press density
thermo       10000
thermo_modify flush yes

variable vpe equal pe
variable vke equal ke
variable vT  equal temp
variable vE  equal etotal
variable vRg equal gyration(all)

fix favg all ave/time 10000 10 100000 v_vpe v_vke v_vT v_vE v_vRg     file outputs/thermo_${tag}_averaged.dat
fix favg all ave/time 10000 10 100000 v_vpe v_vke v_vT v_vE v_vRg     file outputs/thermo_1XJR_aso_n50_averaged.dat

# --- NVT equilibration (50 ns) -----------------------------------
velocity all create ${T_target} 40450 rot yes dist gaussian
velocity all create 300 40450 rot yes dist gaussian

fix fxlang all langevin ${T_target} ${T_target} 1000.0 30552
fix fxlang all langevin 300 ${T_target} 1000.0 30552
fix fxlang all langevin 300 300 1000.0 30552
fix fxnve  all nve
fix recenter all momentum 1000 linear 1 1 1

run 5000000
Generated 0 of 6 mixed pair_coeff terms from geometric mixing rule
Per MPI rank memory allocation (min/avg/max) = 7.343 | 7.377 | 7.612 Mbytes
   Step         PotEng         KinEng         TotEng          Temp          Press         Density    
         0   485.06715      488.25669      973.32383      300            0.10466587     0.001331663  
     10000   234.92719      471.42907      706.35626      289.66059     -0.018980313    0.001331663  
     20000   214.6988       484.89163      699.59043      297.9324       0.016815572    0.001331663  
     30000   220.00437      461.15527      681.15964      283.34805      0.019947484    0.001331663  
     40000   229.98814      493.35044      723.33858      303.12976      0.032028993    0.001331663  
     50000   242.57631      510.17311      752.74942      313.46613      0.028092369    0.001331663  
     60000   249.01681      498.73554      747.75235      306.43853      0.021636762    0.001331663  
     70000   245.35212      484.14886      729.50098      297.47602     -0.048162319    0.001331663  
     80000   237.2127       498.59849      735.81119      306.35433     -0.014039024    0.001331663  
     90000   247.11747      491.02517      738.14264      301.70104     -0.062618761    0.001331663  
    100000   257.90455      506.04969      763.95424      310.93257      0.0027707314   0.001331663  
    110000   253.82771      466.06283      719.89054      286.36341     -0.0023218581   0.001331663  
    120000   250.21359      486.60944      736.82303      298.98788     -0.041287635    0.001331663  
    130000   255.74864      483.00392      738.75255      296.77254     -0.014726101    0.001331663  
    140000   233.41657      491.14642      724.56299      301.77554     -0.039311805    0.001331663  
    150000   248.50935      481.18768      729.69704      295.65659      0.055029895    0.001331663  
    160000   257.85934      529.79541      787.65475      325.52267      0.037268833    0.001331663  
    170000   261.16121      466.31741      727.47863      286.51983     -0.022998657    0.001331663  
    180000   246.97314      479.04972      726.02286      294.34296     -0.0087745185   0.001331663  
    190000   258.27753      487.33072      745.60825      299.43106      0.033308164    0.001331663  
    200000   250.19817      499.06107      749.25924      306.63855     -0.0095516678   0.001331663  
    210000   244.21999      505.66629      749.88628      310.697        0.012065754    0.001331663  
    220000   249.14964      507.08096      756.2306       311.56622     -0.0085864866   0.001331663  
    230000   242.80361      494.89707      737.70067      304.08006     -0.052913758    0.001331663  
    240000   248.89577      485.04679      733.94255      298.02774      0.034177593    0.001331663  
    250000   218.26897      476.49867      694.76764      292.77551      0.017142978    0.001331663  
    260000   246.67829      471.30853      717.98682      289.58653     -0.028661139    0.001331663  
    270000   247.00433      491.4502       738.45453      301.96219      0.032161798    0.001331663  
    280000   253.41153      494.70751      748.11904      303.96358      0.10319571     0.001331663  
    290000   234.64861      517.60945      752.25806      318.03525     -0.063736994    0.001331663  
    300000   249.8869       468.57131      718.45821      287.9047       0.025568018    0.001331663  
    310000   223.72551      467.01852      690.74403      286.95061      0.038138158    0.001331663  
    320000   238.49026      521.06316      759.55342      320.15731      0.016623962    0.001331663  
    330000   263.25389      464.03738      727.29127      285.11891      0.0057622239   0.001331663  
    340000   221.21012      499.84851      721.05864      307.12238      0.023323621    0.001331663  
    350000   253.36549      451.11232      704.47781      277.17735      0.088608327    0.001331663  
    360000   221.56153      480.45116      702.01269      295.20405      0.010290384    0.001331663  
    370000   226.94144      493.06216      720.0036       302.95263      0.010941202    0.001331663  
    380000   221.08163      502.11797      723.1996       308.5168      -0.11919        0.001331663  
    390000   251.7807       496.41689      748.19759      305.01388      0.0248544      0.001331663  
    400000   213.71363      514.92764      728.64127      316.38746      0.020506914    0.001331663  
    410000   237.06958      480.99711      718.06669      295.53949      0.04115536     0.001331663  
    420000   235.22082      500.27047      735.49129      307.38164      0.041632294    0.001331663  
    430000   217.30525      469.85454      687.15979      288.69315      0.064551198    0.001331663  
    440000   232.03931      451.82093      683.86024      277.61275      0.071799486    0.001331663  
    450000   204.92245      479.58833      684.51078      294.6739      -0.053478452    0.001331663  
    460000   225.41699      484.8846       710.3016       297.92809     -0.031403761    0.001331663  
    470000   236.84433      515.18392      752.02826      316.54493      0.062996709    0.001331663  
    480000   212.7032       480.10156      692.80476      294.98924     -0.032390361    0.001331663  
    490000   260.27012      505.38595      765.65607      310.52475      0.07839118     0.001331663  
    500000   222.30809      511.5529       733.86099      314.31391      0.086681229    0.001331663  
    510000   229.64382      466.30905      695.95288      286.51469      0.085533214    0.001331663  
    520000   251.37563      491.8571       743.23274      302.21221     -0.033108297    0.001331663  
    530000   246.68295      503.81777      750.50072      309.56121      0.019192637    0.001331663  
    540000   236.98635      489.37356      726.35991      300.68624      0.012549915    0.001331663  
    550000   217.40876      516.34098      733.74974      317.25586     -0.020642204    0.001331663  
    560000   205.01874      482.51086      687.52959      296.46958      0.022303081    0.001331663  
    570000   256.78974      488.74422      745.53396      300.29955      0.028074378    0.001331663  
    580000   245.45831      466.06119      711.5195       286.3624      -0.0084931912   0.001331663  
    590000   232.07031      469.62181      701.69213      288.55016     -0.036861611    0.001331663  
    600000   220.37343      484.58376      704.95719      297.74324      0.047277197    0.001331663  
    610000   228.69035      489.54522      718.23556      300.79171     -0.087215326    0.001331663  
    620000   228.05204      479.14532      707.19736      294.40169     -3.3108554e-06  0.001331663  
    630000   231.41467      474.30424      705.71891      291.42719      0.041217368    0.001331663  
    640000   236.6216       493.71976      730.34136      303.35668      0.050513518    0.001331663  
    650000   255.82973      486.1126       741.94233      298.6826      -0.081302937    0.001331663  
    660000   244.85346      479.9342       724.78766      294.88641     -0.041210076    0.001331663  
    670000   245.18285      491.03675      736.21961      301.70816     -0.028905855    0.001331663  
    680000   233.03507      506.94174      739.9768       311.48067     -0.049037657    0.001331663  
    690000   245.72571      497.91814      743.64385      305.93629      0.081974008    0.001331663  
    700000   223.75054      495.14853      718.89907      304.23456      0.033556988    0.001331663  
    710000   229.52487      485.70161      715.22648      298.43008     -0.0056859924   0.001331663  
    720000   213.63677      503.45234      717.0891       309.33668      0.018106022    0.001331663  
    730000   245.11982      497.97551      743.09534      305.97155     -0.021337761    0.001331663  
    740000   221.95472      522.88496      744.83969      321.27668      0.07076012     0.001331663  
    750000   237.08433      476.91267      713.997        293.02989     -0.024685036    0.001331663  
    760000   236.29136      502.7545       739.04586      308.90791     -0.040718706    0.001331663  
    770000   219.74498      491.70241      711.4474       302.11716     -0.036643429    0.001331663  
    780000   233.51311      500.5802       734.09331      307.57195      0.046074709    0.001331663  
    790000   212.87295      483.82797      696.70092      297.27886      0.070865631    0.001331663  
    800000   254.29398      476.56856      730.86254      292.81845     -0.028182891    0.001331663  
    810000   222.8963       500.52204      723.41834      307.53621      0.030879749    0.001331663  
    820000   231.73228      503.22738      734.95966      309.19846      0.003764838    0.001331663  
    830000   205.32166      476.01442      681.33608      292.47797      0.0046123665   0.001331663  
    840000   236.63737      516.28094      752.91831      317.21897      0.066510746    0.001331663  
    850000   229.3339       490.86349      720.19739      301.6017       0.018014164    0.001331663  
    860000   235.95126      459.41749      695.36874      282.2803      -0.035083732    0.001331663  
    870000   268.31813      488.14395      756.46208      299.93073     -0.011575496    0.001331663  
    880000   260.55961      499.59177      760.15139      306.96463      0.02726687     0.001331663  
    890000   241.07696      480.3992       721.47616      295.17211      0.038276857    0.001331663  
    900000   245.60167      464.59133      710.19301      285.45928      0.055009925    0.001331663  
    910000   257.24775      509.85209      767.09985      313.26889      0.024875187    0.001331663  
    920000   236.87704      497.39246      734.26951      305.6133      -0.0040012383   0.001331663  
    930000   239.94649      501.93446      741.88094      308.40405      0.021263115    0.001331663  
    940000   234.6915       496.06427      730.75576      304.79722      0.06658971     0.001331663  
    950000   249.71584      504.66725      754.38308      310.08316      0.031443785    0.001331663  
    960000   222.40772      502.3823       724.79002      308.67921      0.0090469182   0.001331663  
    970000   263.63164      486.07075      749.70239      298.65689     -0.0061784631   0.001331663  
    980000   203.60566      490.8849       694.49056      301.61486      0.076647709    0.001331663  
    990000   256.2971       486.04429      742.34139      298.64064      0.028359106    0.001331663  
   1000000   282.86569      496.17872      779.04441      304.86754     -0.068609944    0.001331663  
   1010000   237.71583      511.25025      748.96608      314.12796     -0.0431553      0.001331663  
   1020000   242.12603      499.95151      742.07754      307.18566     -0.043811591    0.001331663  
   1030000   264.48503      485.64926      750.13429      298.39792     -0.0054138825   0.001331663  
   1040000   231.16388      480.17148      711.33536      295.0322       0.0074950934   0.001331663  
   1050000   219.60226      509.83885      729.44111      313.26075      0.013879511    0.001331663  
   1060000   269.76002      478.81396      748.57398      294.1981      -0.043198146    0.001331663  
   1070000   220.126        504.2476       724.3736       309.82531      0.090042387    0.001331663  
   1080000   269.24959      488.43419      757.68378      300.10906     -0.033831878    0.001331663  
   1090000   226.66277      502.08669      728.74946      308.49758      0.005728151    0.001331663  
   1100000   235.93034      476.2378       712.16815      292.61523     -0.0065802572   0.001331663  
   1110000   217.76605      492.25029      710.01634      302.45379     -0.058875726    0.001331663  
   1120000   229.37295      486.94556      716.31851      299.1944      -0.13118497     0.001331663  
   1130000   242.65602      475.88014      718.53617      292.39547     -0.018067873    0.001331663  
   1140000   231.57703      480.26721      711.84424      295.09102      0.0036052129   0.001331663  
   1150000   236.71624      471.73179      708.44803      289.84659      0.036282823    0.001331663  
   1160000   210.16108      475.20719      685.36826      291.98198     -0.00047602752  0.001331663  
   1170000   227.95565      473.86688      701.82253      291.15846     -0.033519462    0.001331663  
   1180000   235.28989      502.72188      738.01177      308.88786     -0.080547651    0.001331663  
   1190000   226.07743      489.9472       716.02463      301.0387      -0.012485733    0.001331663  
   1200000   225.14013      504.53604      729.67617      310.00254     -0.0098860444   0.001331663  
   1210000   244.16491      488.98849      733.1534       300.44964      0.0051199285   0.001331663  
   1220000   234.34803      486.2497       720.59773      298.76684     -0.034103304    0.001331663  
   1230000   215.7638       503.11449      718.87829      309.1291      -0.053304396    0.001331663  
   1240000   210.54863      480.78439      691.33302      295.40879      0.0036459407   0.001331663  
   1250000   218.25254      469.09488      687.34742      288.2264      -0.056259995    0.001331663  
   1260000   190.46376      513.55149      704.01525      315.54191     -0.032628858    0.001331663  
   1270000   209.28301      499.5213       708.80431      306.92133      0.054929098    0.001331663  
   1280000   198.56584      506.27467      704.84051      311.0708       0.080556577    0.001331663  
   1290000   201.62309      499.69001      701.31311      307.02499     -0.017558639    0.001331663  
   1300000   195.114        497.90526      693.01926      305.92838      0.022569593    0.001331663  
   1310000   204.41818      490.7203       695.13848      301.51372     -0.0019310439   0.001331663  
   1320000   207.48828      495.89074      703.37901      304.6906       0.036108638    0.001331663  
   1330000   220.93548      479.86075      700.79624      294.84128     -0.045315057    0.001331663  
   1340000   204.70081      497.66045      702.36126      305.77796      0.0034216002   0.001331663  
   1350000   236.2777       484.46315      720.74085      297.66913     -0.019405881    0.001331663  
   1360000   202.39975      510.87753      713.27728      313.89894      0.010202956    0.001331663  
   1370000   173.14583      479.99635      653.14218      294.92459     -0.004576607    0.001331663  
   1380000   165.8247       476.01619      641.84089      292.47906      0.042203958    0.001331663  
   1390000   206.03081      453.54654      659.57735      278.67301      0.0044474272   0.001331663  
   1400000   207.74545      513.29217      721.03763      315.38258      0.0027672379   0.001331663  
   1410000   209.50633      515.63883      725.14516      316.82443     -0.025894247    0.001331663  
   1420000   202.81981      485.23158      688.05139      298.14128      0.14333488     0.001331663  
   1430000   202.31462      502.46388      704.7785       308.72934      0.034159755    0.001331663  
   1440000   195.07113      481.11761      676.18874      295.61353     -0.0071016508   0.001331663  
   1450000   196.48855      488.13961      684.62816      299.92807     -0.019343528    0.001331663  
   1460000   214.56583      494.75888      709.32471      303.99515     -0.053822453    0.001331663  
   1470000   205.08752      520.8761       725.96361      320.04237      0.055343963    0.001331663  
   1480000   217.34053      496.12141      713.46194      304.83233      0.037924993    0.001331663  
   1490000   196.82318      497.25302      694.07619      305.52762     -0.048316996    0.001331663  
   1500000   245.81466      477.76283      723.5775       293.55225     -0.022353205    0.001331663  
   1510000   208.91731      508.02308      716.94039      312.14508     -0.067396243    0.001331663  
   1520000   185.42641      489.88223      675.30864      300.99878     -0.10482965     0.001331663  
   1530000   205.32388      481.22716      686.55104      295.68084     -0.057442273    0.001331663  
   1540000   205.23915      477.15551      682.39466      293.17909      0.039544119    0.001331663  
   1550000   189.99073      461.3407       651.33144      283.46199     -0.0029606318   0.001331663  
   1560000   177.43284      479.71702      657.14986      294.75297     -0.075760624    0.001331663  
   1570000   170.69627      495.17031      665.86658      304.24794     -0.0079157765   0.001331663  
   1580000   193.56819      488.97769      682.54588      300.44301      0.014462321    0.001331663  
   1590000   165.22907      459.2591       624.48817      282.18299      0.021469119    0.001331663  
   1600000   189.38734      506.89288      696.28022      311.45065      0.029143246    0.001331663  
   1610000   158.37216      506.09452      664.46668      310.96011      0.018370625    0.001331663  
   1620000   145.86159      475.14153      621.00312      291.94164     -0.032313861    0.001331663  
   1630000   165.30468      496.62371      661.92839      305.14096      0.07948815     0.001331663  
   1640000   185.47171      503.64039      689.1121       309.45222      0.06920313     0.001331663  
   1650000   218.44888      506.65438      725.10326      311.30411     -0.0074888505   0.001331663  
   1660000   194.84672      510.22348      705.0702       313.49708      0.01420674     0.001331663  
   1670000   189.21188      489.15547      678.36736      300.55224      0.0036683201   0.001331663  
   1680000   205.43364      490.14783      695.58147      301.16198     -0.12227653     0.001331663  
   1690000   198.15975      497.93255      696.0923       305.94515     -0.0049021957   0.001331663  
   1700000   190.65923      482.46891      673.12814      296.44381      0.060973056    0.001331663  
   1710000   214.57246      450.30553      664.87798      276.68163      0.017443189    0.001331663  
   1720000   202.05788      493.86831      695.92619      303.44796     -0.018676343    0.001331663  
   1730000   206.16818      478.50809      684.67627      294.01016     -0.0052881209   0.001331663  
   1740000   192.91908      482.93263      675.85171      296.72874     -0.059674757    0.001331663  
   1750000   199.94052      481.51606      681.45658      295.85835     -0.066920004    0.001331663  
   1760000   197.21325      507.53127      704.74452      311.8429       0.12924906     0.001331663  
   1770000   244.11026      487.71193      731.82219      299.66528     -0.061188012    0.001331663  
   1780000   200.01831      518.96432      718.98263      318.86772      0.056830989    0.001331663  
   1790000   241.10333      501.5499       742.65323      308.16776      0.026083104    0.001331663  
   1800000   209.42132      463.43047      672.85179      284.746       -0.010678176    0.001331663  
   1810000   218.09046      473.07186      691.16232      290.66997      0.052528641    0.001331663  
   1820000   215.36363      508.21407      723.5777       312.26243      0.027410099    0.001331663  
   1830000   225.91749      526.78752      752.70501      323.67454      0.014571393    0.001331663  
   1840000   211.84874      500.36559      712.21434      307.44009     -0.021696555    0.001331663  
   1850000   197.92165      492.70486      690.62651      302.7331      -0.033091777    0.001331663  
   1860000   216.97873      498.90192      715.88066      306.54076      0.081264509    0.001331663  
   1870000   212.51541      529.83178      742.34719      325.54502     -0.043998157    0.001331663  
   1880000   205.30225      487.23024      692.53249      299.36932     -0.021883298    0.001331663  
   1890000   174.16682      471.63234      645.79916      289.78549     -0.049668798    0.001331663  
   1900000   198.66758      508.71141      707.37899      312.56801      0.088932354    0.001331663  
   1910000   212.4185       487.89874      700.31724      299.78007     -0.048136935    0.001331663  
   1920000   200.93519      484.76728      685.70248      297.856        0.061605332    0.001331663  
   1930000   213.20306      523.52576      736.72881      321.67041     -0.0079419868   0.001331663  
   1940000   191.86887      491.92702      683.7959       302.25517      0.015877555    0.001331663  
   1950000   179.58795      485.52195      665.1099       298.31969      0.072702399    0.001331663  
   1960000   207.91612      498.3497       706.26582      306.20146     -0.037307886    0.001331663  
   1970000   215.6016       502.82405      718.42566      308.95064      0.012728128    0.001331663  
   1980000   195.50583      476.73211      672.23793      292.91894      0.032949736    0.001331663  
   1990000   206.18092      490.79969      696.98061      301.5625      -0.045623759    0.001331663  
   2000000   190.05013      519.3057       709.35583      319.07747     -0.005754359    0.001331663  
   2010000   209.97215      463.16988      673.14203      284.58589      0.0058808298   0.001331663  
   2020000   213.15617      486.78268      699.93886      299.09433      0.031734664    0.001331663  
   2030000   212.97006      492.81357      705.78364      302.79989      0.085176419    0.001331663  
   2040000   226.28447      490.63165      716.91613      301.45925     -0.056156349    0.001331663  
   2050000   207.47097      464.39259      671.86356      285.33716      0.048026391    0.001331663  
   2060000   219.26644      521.8758       741.14224      320.65662     -0.055068444    0.001331663  
   2070000   210.3181       473.63596      683.95406      291.01657     -0.015809485    0.001331663  
   2080000   195.09948      469.32679      664.42627      288.36889      0.0067754797   0.001331663  
   2090000   223.51428      487.06494      710.57922      299.26775      0.063197329    0.001331663  
   2100000   212.30087      467.27276      679.57363      287.10683     -0.031672732    0.001331663  
   2110000   227.40455      506.41795      733.82251      311.15884     -0.066537808    0.001331663  
   2120000   209.29067      467.44536      676.73603      287.21288     -0.06722722     0.001331663  
   2130000   199.91552      503.88555      703.80107      309.60286      0.039371401    0.001331663  
   2140000   215.37914      478.4854       693.86454      293.99622      0.081027073    0.001331663  
   2150000   217.62226      506.23988      723.86215      311.04943      0.006078868    0.001331663  
   2160000   227.12609      501.33622      728.46232      308.03647     -0.040935652    0.001331663  
   2170000   187.94171      468.7563       656.69801      288.01836     -0.062042212    0.001331663  
   2180000   232.06656      492.96676      725.03333      302.89402      0.010282453    0.001331663  
   2190000   188.5958       494.28679      682.88259      303.70508     -0.027201205    0.001331663  
   2200000   228.44114      516.96684      745.40799      317.64041      0.023858566    0.001331663  
   2210000   187.70032      488.26461      675.96492      300.00487      0.018115501    0.001331663  
   2220000   183.67732      497.75682      681.43414      305.83718      0.0019777882   0.001331663  
   2230000   222.99219      468.11858      691.11078      287.62653      0.025409083    0.001331663  
   2240000   203.16717      463.57644      666.74361      284.83569     -0.043007088    0.001331663  
   2250000   206.32539      472.48293      678.80831      290.30811      0.03156236     0.001331663  
   2260000   209.46176      472.28643      681.7482       290.18738     -0.049157912    0.001331663  
   2270000   198.79067      476.53963      675.3303       292.80068     -0.022733036    0.001331663  
   2280000   191.92267      503.05003      694.9727       309.08949      0.00087662045  0.001331663  
   2290000   210.97033      506.47702      717.44735      311.19514      0.022234048    0.001331663  
   2300000   208.90141      501.24449      710.14591      307.98011      0.053120819    0.001331663  
   2310000   235.76975      497.75748      733.52723      305.83758      0.054038808    0.001331663  
   2320000   217.30039      500.35672      717.65711      307.43463     -0.0063425411   0.001331663  
   2330000   180.70429      467.36732      648.07161      287.16493     -0.016085834    0.001331663  
   2340000   211.6925       476.06119      687.75369      292.50671     -0.031769528    0.001331663  
   2350000   217.57777      511.41121      728.98898      314.22686     -0.012379747    0.001331663  
   2360000   221.88193      504.77507      726.657        310.14941      0.018932665    0.001331663  
   2370000   205.80271      519.15629      724.95899      318.98567     -0.036668711    0.001331663  
   2380000   180.60855      494.72436      675.33291      303.97394     -0.065577547    0.001331663  
   2390000   227.09651      502.78548      729.88199      308.92694     -0.0035924196   0.001331663  
   2400000   209.31625      483.1451       692.46135      296.85928      0.02122206     0.001331663  
   2410000   217.48671      478.65791      696.14462      294.10222     -0.010328971    0.001331663  
   2420000   233.24123      492.46979      725.71102      302.58866      0.058127885    0.001331663  
   2430000   227.34973      525.27397      752.6237       322.74457      0.028120017    0.001331663  
   2440000   227.37526      506.1623       733.53756      311.00176      0.12219305     0.001331663  
   2450000   221.80278      469.68703      691.48981      288.59023      0.063916837    0.001331663  
   2460000   233.325        480.74963      714.07463      295.38743      0.030904365    0.001331663  
   2470000   236.67133      468.1858       704.85713      287.66783     -0.0055653211   0.001331663  
   2480000   235.54827      532.18748      767.73575      326.99244     -0.013835008    0.001331663  
   2490000   252.23714      489.23403      741.47117      300.60051     -0.0083690338   0.001331663  
   2500000   238.34682      490.66362      729.01044      301.47889      0.050235767    0.001331663  
   2510000   240.44846      450.11296      690.56142      276.56331     -0.00037789838  0.001331663  
   2520000   246.7746       489.11313      735.88773      300.52623      0.052190941    0.001331663  
   2530000   235.70373      494.86775      730.57149      304.06204      0.021213795    0.001331663  
   2540000   231.1215       523.45664      754.57815      321.62794      0.03126083     0.001331663  
   2550000   244.58123      478.17017      722.75139      293.80253      0.025454391    0.001331663  
   2560000   226.91649      499.45981      726.37631      306.88355     -0.037082777    0.001331663  
   2570000   227.39651      493.95168      721.34819      303.49918      0.028375583    0.001331663  
   2580000   226.12017      506.21925      732.33943      311.03676      0.0023883736   0.001331663  
   2590000   239.28183      507.34867      746.63049      311.7307      -0.027074263    0.001331663  
   2600000   244.73448      462.62972      707.36421      284.254        0.046359508    0.001331663  
   2610000   247.1329       480.51534      727.64824      295.24348     -0.036167678    0.001331663  
   2620000   247.76593      520.4812       768.24713      319.79974      0.11106007     0.001331663  
   2630000   233.04983      484.59669      717.64653      297.75119      0.0091003646   0.001331663  
   2640000   230.23611      520.14501      750.38113      319.59317     -0.073195071    0.001331663  
   2650000   260.26717      466.21904      726.48622      286.45939      0.031943402    0.001331663  
   2660000   223.62531      519.02601      742.65132      318.90562      0.044873513    0.001331663  
   2670000   230.60994      466.17901      696.78895      286.43479     -0.00066933183  0.001331663  
   2680000   215.87034      486.83525      702.70559      299.12663      0.037277512    0.001331663  
   2690000   210.15715      496.14205      706.2992       304.84501     -0.017599727    0.001331663  
   2700000   209.38582      473.77644      683.16226      291.10289      0.034301792    0.001331663  
   2710000   252.72236      486.63342      739.35578      299.00261      0.010980644    0.001331663  
   2720000   236.45962      483.02758      719.4872       296.78707      0.048580225    0.001331663  
   2730000   213.6671       490.48609      704.15319      301.36981      0.072073747    0.001331663  
   2740000   223.1984       452.53708      675.73548      278.05277      0.014834476    0.001331663  
   2750000   251.52931      516.61983      768.14914      317.42719      0.013262832    0.001331663  
   2760000   220.84114      486.71237      707.55351      299.05112      0.059417037    0.001331663  
   2770000   231.04627      494.55923      725.60549      303.87248     -0.044977428    0.001331663  
   2780000   251.96095      499.42973      751.39068      306.86506     -0.032414248    0.001331663  
   2790000   250.80514      507.27017      758.07532      311.68247     -0.029577081    0.001331663  
   2800000   222.16883      491.86394      714.03277      302.21641     -0.0033236002   0.001331663  
   2810000   210.45952      478.81513      689.27465      294.19882      0.043490619    0.001331663  
   2820000   230.31992      474.55622      704.87613      291.58201     -0.053279103    0.001331663  
   2830000   213.18545      516.63413      729.81958      317.43598      0.0024378771   0.001331663  
   2840000   207.2774       526.5516       733.829        323.52958      0.052699629    0.001331663  
   2850000   215.92601      495.52578      711.45178      304.46635      0.066419457    0.001331663  
   2860000   232.79531      503.39479      736.1901       309.30132      0.014711763    0.001331663  
   2870000   193.38088      511.06967      704.45055      314.017       -0.016870414    0.001331663  
   2880000   204.79774      502.96658      707.76432      309.03821      0.0016867752   0.001331663  
   2890000   208.15179      510.86258      719.01437      313.88976     -0.00033964576  0.001331663  
   2900000   209.94279      475.88548      685.82827      292.39875      0.065851185    0.001331663  
   2910000   190.16284      503.76212      693.92497      309.52702     -0.041513484    0.001331663  
   2920000   203.53655      509.42945      712.966        313.0092       0.045924298    0.001331663  
   2930000   201.33224      508.55786      709.8901       312.47367      0.051005553    0.001331663  
   2940000   219.0487       478.00979      697.0585       293.70399     -0.024016894    0.001331663  
   2950000   213.25675      501.3147       714.57146      308.02325      0.087020635    0.001331663  
   2960000   211.56677      478.03821      689.60498      293.72145     -0.012339993    0.001331663  
   2970000   219.57688      500.99723      720.57411      307.82818      0.12274808     0.001331663  
   2980000   231.5254       490.80665      722.33205      301.56678     -0.056019966    0.001331663  
   2990000   217.58073      477.67545      695.25617      293.49856     -0.042555155    0.001331663  
   3000000   229.07857      500.6382       729.71677      307.60759      0.029643872    0.001331663  
   3010000   201.24031      481.11254      682.35285      295.61042     -0.042254361    0.001331663  
   3020000   188.28288      505.42616      693.70904      310.54946      0.052565069    0.001331663  
   3030000   195.129        459.02609      654.15509      282.03982     -0.040547692    0.001331663  
   3040000   213.28056      467.58247      680.86303      287.29712      0.035713528    0.001331663  
   3050000   197.19094      490.46688      687.65782      301.35801     -0.035830476    0.001331663  
   3060000   237.11988      481.43037      718.55024      295.8057       0.070146299    0.001331663  
   3070000   214.26193      496.59362      710.85555      305.12247      0.022669637    0.001331663  
   3080000   222.01027      454.9919       677.00216      279.56108      0.076391686    0.001331663  
   3090000   217.17103      505.59667      722.7677       310.65422      0.034701244    0.001331663  
   3100000   223.61544      469.16943      692.78488      288.2722      -0.038132802    0.001331663  
   3110000   231.19841      458.16964      689.36805      281.51359      0.055110742    0.001331663  
   3120000   254.65416      500.57753      755.23169      307.57031      0.034949916    0.001331663  
   3130000   225.09461      476.30898      701.40359      292.65896     -0.02320608     0.001331663  
   3140000   238.84498      486.05331      724.89829      298.64618     -0.030825459    0.001331663  
   3150000   223.03064      487.31067      710.34131      299.41874      0.046814227    0.001331663  
   3160000   248.51011      475.0933       723.60341      291.91201     -0.027283521    0.001331663  
   3170000   230.57002      478.08516      708.65517      293.7503      -0.028735785    0.001331663  
   3180000   253.00464      501.25714      754.26177      307.98788     -0.038759969    0.001331663  
   3190000   231.93771      462.27577      694.21348      284.03652      0.028099022    0.001331663  
   3200000   239.33166      478.55059      717.88225      294.03627     -0.02523173     0.001331663  
   3210000   248.29052      506.31597      754.60649      311.09618      0.028742158    0.001331663  
   3220000   207.44596      467.69362      675.13958      287.36542     -0.028699567    0.001331663  
   3230000   202.78484      475.93963      678.72447      292.43202     -0.019788629    0.001331663  
   3240000   214.91912      479.27807      694.19719      294.48326     -0.001199923    0.001331663  
   3250000   232.54848      452.91763      685.46611      278.28659      0.043774398    0.001331663  
   3260000   246.84647      497.52628      744.37275      305.69553     -0.011723352    0.001331663  
   3270000   224.09314      527.41985      751.51299      324.06306      0.009325473    0.001331663  
   3280000   206.80918      491.59392      698.4031       302.0505      -0.019906587    0.001331663  
   3290000   208.78453      485.0793       693.86383      298.04772      0.015365434    0.001331663  
   3300000   227.47287      499.43279      726.90566      306.86694      0.083274677    0.001331663  
   3310000   222.96326      479.66542      702.62868      294.72126     -0.10725395     0.001331663  
   3320000   211.63159      474.50864      686.14023      291.55277     -0.013108028    0.001331663  
   3330000   201.59619      475.43423      677.03042      292.12148     -0.01161865     0.001331663  
   3340000   200.85831      489.29184      690.15015      300.63603      0.009635506    0.001331663  
   3350000   190.94865      488.36003      679.30868      300.0635       0.06123782     0.001331663  
   3360000   215.99605      488.50669      704.50274      300.15361      0.071782585    0.001331663  
   3370000   214.38441      489.9941       704.37851      301.06752      0.085128136    0.001331663  
   3380000   199.08635      471.21173      670.29808      289.52705     -0.035509827    0.001331663  
   3390000   194.1074       454.0195       648.1269       278.96361      7.5666389e-05  0.001331663  
   3400000   176.14379      502.32393      678.46772      308.64335     -0.067037424    0.001331663  
   3410000   198.66612      476.31562      674.98174      292.66304     -0.069703739    0.001331663  
   3420000   209.57076      471.26327      680.83402      289.55872      0.011677965    0.001331663  
   3430000   220.68894      458.45936      679.14831      281.6916       0.063857545    0.001331663  
   3440000   233.18071      507.06661      740.24733      311.5574      -0.051871654    0.001331663  
   3450000   194.97234      508.22088      703.19322      312.26662      0.060490675    0.001331663  
   3460000   215.12707      451.08644      666.21351      277.16145      0.066933735    0.001331663  
   3470000   222.871        485.35135      708.22235      298.21487      0.010570945    0.001331663  
   3480000   190.28104      491.32473      681.60578      301.8851       0.033367949    0.001331663  
   3490000   219.36631      486.48746      705.85377      298.91293     -0.10684804     0.001331663  
   3500000   171.57424      480.22167      651.79591      295.06304      0.034100018    0.001331663  
   3510000   212.43374      459.3357       671.76944      282.23005      0.041482529    0.001331663  
   3520000   202.47344      495.00141      697.47484      304.14416      0.0057209545   0.001331663  
   3530000   191.8021       494.78363      686.58572      304.01035     -0.055256636    0.001331663  
   3540000   206.31068      476.29216      682.60284      292.64863     -0.010244638    0.001331663  
   3550000   190.55138      509.16105      699.71243      312.84429      0.021194759    0.001331663  
   3560000   202.02915      499.84733      701.87648      307.12165      0.062818809    0.001331663  
   3570000   216.15424      485.44532      701.59956      298.27261     -0.068753189    0.001331663  
   3580000   234.67029      500.60613      735.27642      307.58788      0.043577439    0.001331663  
   3590000   195.97012      507.52563      703.49575      311.83943      0.031986861    0.001331663  
   3600000   214.6551       509.14316      723.79825      312.83329      0.011209923    0.001331663  
   3610000   198.24182      475.75555      673.99738      292.31892     -0.043487564    0.001331663  
   3620000   196.70636      493.77469      690.48105      303.39043      0.02601547     0.001331663  
   3630000   222.07285      471.0146       693.08745      289.40593      0.061175584    0.001331663  
   3640000   215.06388      458.57161      673.63549      281.76057     -0.07371575     0.001331663  
   3650000   231.48136      496.69442      728.17577      305.1844       0.078693663    0.001331663  
   3660000   200.71439      495.42406      696.13845      304.40386      0.027188725    0.001331663  
   3670000   235.73656      497.8628       733.59936      305.90229      0.0028785895   0.001331663  
   3680000   193.25722      485.26964      678.52686      298.16467     -0.026893529    0.001331663  
   3690000   212.91582      493.58379      706.4996       303.27314     -0.015521329    0.001331663  
   3700000   182.82732      502.78215      685.60947      308.92489      0.016577179    0.001331663  
   3710000   235.37613      478.62702      714.00315      294.08324     -0.06865921     0.001331663  
   3720000   218.02623      475.02095      693.04718      291.86755      0.089075456    0.001331663  
   3730000   231.9574       486.82619      718.78359      299.12106     -0.143531       0.001331663  
   3740000   208.58706      504.35786      712.94492      309.89306      0.047299464    0.001331663  
   3750000   208.4486       477.14234      685.59094      293.171        0.011295064    0.001331663  
   3760000   227.31807      486.67106      713.98913      299.02574      0.066608917    0.001331663  
   3770000   201.30357      485.22503      686.5286       298.13726     -0.051656053    0.001331663  
   3780000   193.66284      484.6264       678.28924      297.76944      0.019083538    0.001331663  
   3790000   219.67517      486.01559      705.69076      298.623       -0.013800733    0.001331663  
   3800000   184.53263      483.35012      667.88275      296.98525     -0.030912512    0.001331663  
   3810000   218.49517      466.6607       685.15587      286.73076     -0.038768413    0.001331663  
   3820000   233.40012      496.7813       730.18143      305.23779      0.0025696251   0.001331663  
   3830000   210.49508      489.52237      700.01745      300.77768     -0.037577492    0.001331663  
   3840000   225.38351      489.21892      714.60243      300.59123     -0.010509568    0.001331663  
   3850000   182.25095      482.47308      664.72403      296.44637      0.043562838    0.001331663  
   3860000   235.88731      475.21864      711.10595      291.98902      0.033128351    0.001331663  
   3870000   219.90016      530.86217      750.76233      326.17813     -0.073884004    0.001331663  
   3880000   221.27311      479.90152      701.17463      294.86633      0.0071412033   0.001331663  
   3890000   213.27754      496.19833      709.47588      304.87959     -0.0094000783   0.001331663  
   3900000   226.86334      473.30707      700.17041      290.81449     -0.035547047    0.001331663  
   3910000   203.96057      500.63154      704.59211      307.60349     -0.0010082941   0.001331663  
   3920000   207.62543      491.45414      699.07957      301.96462      0.069869423    0.001331663  
   3930000   204.11999      479.08743      683.20742      294.36613     -0.046583027    0.001331663  
   3940000   209.22771      456.67547      665.90318      280.59553     -0.073041289    0.001331663  
   3950000   207.47954      497.52179      705.00133      305.69276      0.018693215    0.001331663  
   3960000   225.93242      469.19897      695.13139      288.29035      0.0055703529   0.001331663  
   3970000   200.44866      498.41753      698.86618      306.24313      0.0075607821   0.001331663  
   3980000   216.78851      497.6585       714.44701      305.77676     -0.0098775876   0.001331663  
   3990000   229.45711      499.27575      728.73286      306.77045     -0.033959224    0.001331663  
   4000000   206.88617      481.74223      688.6284       295.99731      0.084570884    0.001331663  
   4010000   222.18278      476.53179      698.71457      292.79586      0.014781016    0.001331663  
   4020000   188.44907      455.7972       644.24627      280.05589      0.0038587066   0.001331663  
   4030000   199.91326      470.44042      670.35368      289.05313      0.00063075686  0.001331663  
   4040000   190.52119      489.40747      679.92866      300.70708     -0.013571982    0.001331663  
   4050000   217.506        494.22251      711.72851      303.66559     -0.017404073    0.001331663  
   4060000   221.07649      476.35615      697.43264      292.68794     -0.046301767    0.001331663  
   4070000   195.76667      477.36535      673.13202      293.30803     -0.007862329    0.001331663  
   4080000   237.42606      501.61171      739.03777      308.20574      0.0044718522   0.001331663  
   4090000   210.5075       494.93699      705.44449      304.10458      0.011722872    0.001331663  
   4100000   242.78197      486.71886      729.50083      299.05511      0.0055152689   0.001331663  
   4110000   215.74397      495.74693      711.4909       304.60224      0.06616198     0.001331663  
   4120000   221.05115      474.79328      695.84443      291.72767      0.044925304    0.001331663  
   4130000   207.24476      491.45135      698.6961       301.9629       0.072020778    0.001331663  
   4140000   223.72077      466.24611      689.96688      286.47602      0.073489518    0.001331663  
   4150000   234.30917      524.17951      758.48868      322.07209     -0.029854417    0.001331663  
   4160000   226.55702      499.87881      726.43584      307.141        0.030115483    0.001331663  
   4170000   250.85358      494.41388      745.26746      303.78317      0.026992919    0.001331663  
   4180000   248.51511      487.11232      735.62743      299.29687      0.040569124    0.001331663  
   4190000   227.3079       505.53002      732.83791      310.61327      0.038493483    0.001331663  
   4200000   218.17585      523.6197       741.79555      321.72813      0.038064313    0.001331663  
   4210000   228.69147      493.61259      722.30406      303.29083     -0.042991947    0.001331663  
   4220000   222.24408      522.51215      744.75623      321.04761      0.04438213     0.001331663  
   4230000   230.94917      481.66679      712.61597      295.95097      0.018862662    0.001331663  
   4240000   242.04816      491.19565      733.24381      301.80579     -0.022244215    0.001331663  
   4250000   219.56242      485.91421      705.47663      298.56071      0.049693088    0.001331663  
   4260000   231.74929      475.41447      707.16376      292.10934      0.022819378    0.001331663  
   4270000   237.69789      529.89477      767.59266      325.58372     -0.034884461    0.001331663  
   4280000   246.84585      492.96809      739.81395      302.89484      0.054404827    0.001331663  
   4290000   240.88803      509.86337      750.7514       313.27582      0.040413715    0.001331663  
   4300000   271.2177       455.46391      726.68161      279.8511      -0.037249909    0.001331663  
   4310000   247.72438      460.37473      708.09911      282.86847     -0.047168043    0.001331663  
   4320000   240.22531      452.22579      692.4511       277.8615      -0.06668546     0.001331663  
   4330000   251.949        470.36579      722.31478      289.00728      0.014811947    0.001331663  
   4340000   282.04334      496.51646      778.5598       305.07506     -0.054975245    0.001331663  
   4350000   285.18275      470.00103      755.18378      288.78316     -0.024165325    0.001331663  
   4360000   251.86727      472.61781      724.48508      290.39099     -0.039214712    0.001331663  
   4370000   255.43367      477.36009      732.79376      293.30479     -0.02020012     0.001331663  
   4380000   253.91071      511.82008      765.73079      314.47807      0.02639518     0.001331663  
   4390000   273.28325      477.05553      750.33878      293.11767      0.03142193     0.001331663  
   4400000   266.08544      491.44671      757.53215      301.96005     -0.030901195    0.001331663  
   4410000   207.19991      455.08982      662.28973      279.62125      0.032578727    0.001331663  
   4420000   263.71998      482.82483      746.54482      296.6625       0.042626699    0.001331663  
   4430000   266.54919      490.40335      756.95255      301.31898      0.0023572215   0.001331663  
   4440000   244.81918      494.50821      739.32739      303.84113      0.022377046    0.001331663  
   4450000   256.68229      532.88406      789.56635      327.42044      0.00096439187  0.001331663  
   4460000   264.9293       477.02559      741.95489      293.09927      0.030757354    0.001331663  
   4470000   264.42438      507.72403      772.14841      311.96134      0.036030031    0.001331663  
   4480000   247.65904      498.60902      746.26806      306.36079      0.037455409    0.001331663  
   4490000   254.3794       482.8965       737.2759       296.70654     -0.0041968831   0.001331663  
   4500000   246.41009      485.0153       731.42539      298.00839      0.029757874    0.001331663  
   4510000   236.8372       473.19947      710.03667      290.74838      0.046073319    0.001331663  
   4520000   235.02556      473.30595      708.33152      290.81381     -0.071494705    0.001331663  
   4530000   241.84038      475.81569      717.65607      292.35587     -0.011629646    0.001331663  
   4540000   253.16998      471.04388      724.21386      289.42392      0.022945363    0.001331663  
   4550000   242.2822       483.33813      725.62032      296.97788      0.045328791    0.001331663  
   4560000   244.10515      485.3583       729.46345      298.21914      0.038005177    0.001331663  
   4570000   230.2806       473.89583      704.17643      291.17625      0.0050834672   0.001331663  
   4580000   266.39755      514.43762      780.83516      316.08637     -0.039061843    0.001331663  
   4590000   253.67935      515.71376      769.39311      316.87048     -0.02005828     0.001331663  
   4600000   266.00053      497.96688      763.9674       305.96624      0.039369545    0.001331663  
   4610000   235.72361      473.98102      709.70464      291.22859      0.048424488    0.001331663  
   4620000   252.51649      478.01692      730.53341      293.70837     -0.02580627     0.001331663  
   4630000   256.47104      471.85874      728.32978      289.92459      0.020503199    0.001331663  
   4640000   241.82128      487.94592      729.7672       299.80906      0.09670543     0.001331663  
   4650000   257.80486      477.35666      735.16152      293.30269     -0.036120946    0.001331663  
   4660000   228.7105       504.11527      732.82577      309.74401      0.030175584    0.001331663  
   4670000   245.81651      497.11583      742.93234      305.44333      0.052234914    0.001331663  
   4680000   207.26647      477.22626      684.49273      293.22257      0.018319787    0.001331663  
   4690000   204.21179      476.57104      680.78283      292.81998      0.059385703    0.001331663  
   4700000   240.75025      499.45283      740.20309      306.87926      0.044029864    0.001331663  
   4710000   225.9366       472.40802      698.34463      290.26209     -0.0062552235   0.001331663  
   4720000   215.87221      479.62013      695.49235      294.69344     -0.010192618    0.001331663  
   4730000   234.44004      536.65158      771.09162      329.73532     -0.043383922    0.001331663  
   4740000   220.17119      475.65966      695.83085      292.26         0.013708626    0.001331663  
   4750000   242.31884      487.58622      729.90506      299.58804     -0.049698859    0.001331663  
   4760000   232.06521      460.86545      692.93067      283.16998     -0.060021263    0.001331663  
   4770000   242.34314      509.09203      751.43517      312.80188     -0.0082779895   0.001331663  
   4780000   253.55124      483.89335      737.44459      297.31903     -0.035318023    0.001331663  
   4790000   248.46418      477.05469      725.51887      293.11714     -0.042503245    0.001331663  
   4800000   205.50873      494.91173      700.42046      304.08906      0.087957904    0.001331663  
   4810000   239.16784      492.19056      731.3584       302.4171       0.026428498    0.001331663  
   4820000   219.36061      510.62347      729.98408      313.74284      0.016895054    0.001331663  
   4830000   209.22108      500.28844      709.50952      307.39268      0.031314924    0.001331663  
   4840000   218.92131      510.6578       729.57912      313.76394     -0.0052466894   0.001331663  
   4850000   231.5814       500.61545      732.19685      307.59361     -0.014800067    0.001331663  
   4860000   208.99388      499.1746       708.16847      306.7083      -0.064765214    0.001331663  
   4870000   204.98436      471.23005      676.21441      289.53831      0.020132893    0.001331663  
   4880000   222.25932      500.787        723.04631      307.69901     -0.075333539    0.001331663  
   4890000   210.8952       469.2794       680.1746       288.33977     -0.011083634    0.001331663  
   4900000   201.37957      483.08847      684.46804      296.82449      0.072653741    0.001331663  
   4910000   230.31664      500.86079      731.17743      307.74435     -0.012124565    0.001331663  
   4920000   212.57302      506.90395      719.47697      311.45745      0.080412753    0.001331663  
   4930000   214.28571      502.78534      717.07104      308.92685     -0.087509298    0.001331663  
   4940000   226.27923      465.03767      691.31689      285.73352      0.011567302    0.001331663  
   4950000   227.28405      486.58362      713.86767      298.97201      0.039550447    0.001331663  
   4960000   215.75582      476.7036       692.45942      292.90142      0.058502387    0.001331663  
   4970000   225.1757       505.29964      730.47534      310.47172     -0.010268139    0.001331663  
   4980000   223.34204      502.35623      725.69827      308.66319      0.041295184    0.001331663  
   4990000   192.56859      510.50984      703.07844      313.67303      0.06081082     0.001331663  
   5000000   236.53468      476.18815      712.72283      292.58472     -0.025588897    0.001331663  
Loop time of 231.192 on 8 procs for 5000000 steps with 547 atoms

Performance: 18685.768 ns/day, 0.001 hours/ns, 21627.047 timesteps/s, 11.830 Matom-step/s
99.3% CPU use with 8 MPI tasks x 1 OpenMP threads

MPI task timing breakdown:
Section |  min time  |  avg time  |  max time  |%varavg| %total
---------------------------------------------------------------
Pair    | 35.381     | 52.509     | 130.97     | 414.0 | 22.71
Bond    | 4.22       | 11.689     | 22.79      | 145.8 |  5.06
Neigh   | 0.53356    | 0.55456    | 0.56721    |   1.6 |  0.24
Comm    | 61.873     | 156.62     | 185.04     | 292.3 | 67.74
Output  | 0.045841   | 0.060315   | 0.14465    |  13.0 |  0.03
Modify  | 3.0849     | 7.3158     | 13.322     |  99.7 |  3.16
Other   |            | 2.443      |            |       |  1.06

Nlocal:         68.375 ave         118 max          23 min
Histogram: 2 1 0 1 0 0 1 2 0 1
Nghost:           57.5 ave          89 max          43 min
Histogram: 3 0 3 0 0 1 0 0 0 1
Neighs:        184.375 ave         568 max          40 min
Histogram: 3 1 2 0 0 1 0 0 0 1

Total # of neighbors = 1475
Ave neighs/atom = 2.6965265
Ave special neighs/atom = 4.88117
Neighbor list builds = 10041
Dangerous builds = 0

# --- Production (1 µs) -------------------------------------------
unfix favg
fix favg all ave/time 10000 10 100000 v_vpe v_vke v_vT v_vE v_vRg     file outputs/thermo_${tag}_production.dat
fix favg all ave/time 10000 10 100000 v_vpe v_vke v_vT v_vE v_vRg     file outputs/thermo_1XJR_aso_n50_production.dat

restart 10000000 outputs/backup_${tag}.*.restart
restart 10000000 outputs/backup_1XJR_aso_n50.*.restart
run 100000000
Generated 0 of 6 mixed pair_coeff terms from geometric mixing rule
Per MPI rank memory allocation (min/avg/max) = 8.607 | 8.709 | 8.879 Mbytes
   Step         PotEng         KinEng         TotEng          Temp          Press         Density    
   5000000   236.53468      476.18815      712.72283      292.58472     -0.025588897    0.001331663  
   5010000   220.99812      488.76672      709.76484      300.31338     -0.0013238863   0.001331663  
   5020000   243.05244      465.98335      709.03579      286.31457     -0.095854606    0.001331663  
   5030000   223.66891      484.20276      707.87167      297.50914      0.06982671     0.001331663  
   5040000   245.66394      493.348        739.01194      303.12826      0.059711792    0.001331663  
   5050000   222.36587      472.78078      695.14666      290.49113      0.052706456    0.001331663  
   5060000   204.77602      452.61399      657.39001      278.10003     -0.056501421    0.001331663  
   5070000   219.91034      514.46035      734.3707       316.10034      0.051885247    0.001331663  
   5080000   212.1674       498.66047      710.82787      306.39241      0.077116853    0.001331663  
   5090000   215.80295      473.65698      689.45993      291.02949      0.044263463    0.001331663  
   5100000   201.91054      498.72861      700.63915      306.43427     -0.052566023    0.001331663  
   5110000   248.81778      493.59351      742.41129      303.27911     -0.066656387    0.001331663  
   5120000   205.75798      494.87011      700.62808      304.06349      0.03921392     0.001331663  
   5130000   257.80199      476.60896      734.41096      292.84328     -0.0078486246   0.001331663  
   5140000   215.22281      501.86929      717.09209      308.364        0.070698549    0.001331663  
   5150000   181.34996      469.07529      650.42525      288.21436     -0.024318716    0.001331663  
   5160000   218.20235      490.6052       708.80755      301.443        0.092980368    0.001331663  
   5170000   222.74956      492.49114      715.2407       302.60178     -0.051551652    0.001331663  
   5180000   224.3685       494.32254      718.69105      303.72705     -0.0082623238   0.001331663  
   5190000   226.833        476.86193      703.69492      292.99871     -0.039888015    0.001331663  
   5200000   214.26531      474.37082      688.63613      291.46809     -0.019880973    0.001331663  
   5210000   222.12156      449.73139      671.85295      276.32887      0.038100821    0.001331663  
   5220000   212.22064      460.06291      672.28355      282.67687      0.056202418    0.001331663  
   5230000   238.53051      509.6499       748.18041      313.14465      0.040246259    0.001331663  
   5240000   225.51149      479.71699      705.22848      294.75295      0.016373284    0.001331663  
   5250000   235.67063      475.35635      711.02698      292.07363      0.024877607    0.001331663  
   5260000   208.91769      490.24899      699.16668      301.22413     -0.0070569043   0.001331663  
   5270000   214.54538      494.21823      708.76361      303.66296     -0.030804883    0.001331663  
   5280000   211.92318      456.97952      668.90269      280.78234     -0.024781274    0.001331663  
   5290000   213.52119      487.83899      701.36018      299.74335      0.034376083    0.001331663  
   5300000   222.98372      476.42846      699.41218      292.73237     -0.025296137    0.001331663  
   5310000   248.02613      473.66406      721.69019      291.03384     -0.045188485    0.001331663  
   5320000   225.41089      496.99902      722.40991      305.37156     -0.029621924    0.001331663  
   5330000   237.33589      497.26027      734.59616      305.53208     -0.037140615    0.001331663  
   5340000   223.72383      496.13997      719.8638       304.84373     -0.032877719    0.001331663  
   5350000   219.11681      478.81251      697.92932      294.19721     -0.043452569    0.001331663  
   5360000   225.83985      462.2067       688.04655      283.99408      0.031962921    0.001331663  
   5370000   238.30618      494.12267      732.42885      303.60424      0.033426352    0.001331663  
   5380000   228.38982      487.90918      716.299        299.78648     -0.074434286    0.001331663  
   5390000   229.5033       480.71719      710.22049      295.3675       0.0062218786   0.001331663  
   5400000   231.67644      491.85497      723.53141      302.2109       0.02725029     0.001331663  
   5410000   222.08706      498.64795      720.73501      306.38471      0.028350313    0.001331663  
   5420000   215.65218      489.36438      705.01657      300.6806       0.061728902    0.001331663  
   5430000   194.67071      465.98015      660.65086      286.31261     -0.015234554    0.001331663  
   5440000   200.44485      500.40219      700.84704      307.46257     -0.06750679     0.001331663  
   5450000   193.16073      482.20297      675.3637       296.28041      0.016937483    0.001331663  
   5460000   176.53006      512.48048      689.01054      314.88385      0.020178259    0.001331663  
   5470000   152.85619      507.31266      660.16884      311.70858      0.011890528    0.001331663  
   5480000   197.3921       483.47798      680.87008      297.06382     -0.012064291    0.001331663  
   5490000   204.57631      440.44763      645.02394      270.62464     -0.049448128    0.001331663  
   5500000   197.01762      486.22259      683.24021      298.75019      0.058980816    0.001331663  
   5510000   192.96162      486.45803      679.41965      298.89485      0.08168105     0.001331663  
   5520000   197.20068      511.7878       708.98848      314.45825     -0.054028653    0.001331663  
   5530000   193.55054      495.07861      688.62915      304.1916      -0.050878085    0.001331663  
   5540000   203.73198      488.79662      692.5286       300.33175      0.0095222748   0.001331663  
   5550000   214.15638      502.0536       716.20998      308.47725      0.021443071    0.001331663  
   5560000   199.92424      487.59883      687.52307      299.59579     -0.0039334293   0.001331663  
   5570000   203.96622      495.14675      699.11296      304.23347     -0.023596915    0.001331663  
   5580000   232.31423      486.48441      718.79863      298.91106     -0.0023975711   0.001331663  
   5590000   185.24017      504.40882      689.64899      309.92437      0.061873807    0.001331663  
   5600000   184.46545      499.95436      684.41981      307.18742      0.050724748    0.001331663  
   5610000   176.21454      490.88243      667.09696      301.61334     -0.014372076    0.001331663  
   5620000   196.69575      476.2571       672.95284      292.62708      0.0033074986   0.001331663  
   5630000   220.10393      479.63574      699.73967      294.70302     -0.054117421    0.001331663  
   5640000   197.36836      503.10089      700.46925      309.12074      0.030963024    0.001331663  
   5650000   163.57747      467.04205      630.61952      286.96507      0.031081516    0.001331663  
   5660000   188.69828      490.88931      679.58759      301.61756     -0.044203269    0.001331663  
   5670000   164.99615      491.49854      656.49468      301.99189      0.080311254    0.001331663  
   5680000   199.95905      499.34652      699.30557      306.81394      0.093665083    0.001331663  
   5690000   212.7947       499.86844      712.66313      307.13462     -0.01120349     0.001331663  
   5700000   186.4445       506.67293      693.11743      311.31551     -0.026556326    0.001331663  
   5710000   189.2074       490.79246      679.99986      301.55806     -0.034506118    0.001331663  
   5720000   182.54481      435.72595      618.27076      267.72349     -0.0006596284   0.001331663  
   5730000   198.10267      485.75329      683.85596      298.46184      0.0080280216   0.001331663  
   5740000   209.51889      475.85209      685.37098      292.37823     -0.063370311    0.001331663  
   5750000   205.09887      466.13624      671.23512      286.40852      0.05197066     0.001331663  
   5760000   221.82807      492.02289      713.85097      302.31407     -0.01149558     0.001331663  
   5770000   210.20422      489.5296       699.73382      300.78211     -0.073428339    0.001331663  
   5780000   219.51473      502.5861       722.10083      308.80443     -0.023177517    0.001331663  
   5790000   211.8355       507.21962      719.05511      311.65141      0.03443137     0.001331663  
   5800000   220.39802      502.20509      722.6031       308.57033      0.047053241    0.001331663  
   5810000   218.22986      466.15767      684.38753      286.42168      0.14091817     0.001331663  
   5820000   216.45655      487.74011      704.19667      299.6826       0.036666195    0.001331663  
   5830000   217.36671      484.06937      701.43607      297.42718     -0.015808828    0.001331663  
   5840000   209.26431      496.79101      706.05532      305.24375     -0.01165379     0.001331663  
   5850000   243.16059      503.60748      746.76807      309.432        0.037541429    0.001331663  
   5860000   234.61869      474.26013      708.87882      291.40008     -0.024845794    0.001331663  
   5870000   201.11188      485.96145      687.07333      298.58974      0.089218406    0.001331663  
   5880000   212.95888      490.79539      703.75427      301.55986      0.08515215     0.001331663  
   5890000   213.25527      494.94467      708.19994      304.1093       0.040233375    0.001331663  
   5900000   228.80208      469.87771      698.67979      288.70739     -0.040247616    0.001331663  
   5910000   155.5657       513.2335       668.79921      315.34653      0.11095159     0.001331663  
   5920000   204.03182      511.14792      715.17974      314.06508      0.081858927    0.001331663  
   5930000   192.74685      479.04798      671.79483      294.34189      0.030964695    0.001331663  
   5940000   175.73831      504.51095      680.24926      309.98712      0.018035453    0.001331663  
   5950000   211.31732      498.98258      710.2999       306.59032     -0.0016851196   0.001331663  
   5960000   224.54491      499.56312      724.10803      306.94702      0.054186787    0.001331663  
   5970000   235.31308      481.95294      717.26602      296.12678      0.056632264    0.001331663  
   5980000   207.66945      481.41327      689.08272      295.7952      -0.048889947    0.001331663  
   5990000   204.27191      486.80186      691.07376      299.10611      0.0038175489   0.001331663  
   6000000   222.33453      499.32421      721.65874      306.80023     -0.010887776    0.001331663  
   6010000   223.62078      467.80693      691.4277       287.43504      0.077238411    0.001331663  
   6020000   201.67648      511.74972      713.4262       314.43484      0.027784324    0.001331663  
   6030000   209.40552      512.96055      722.36607      315.17882      0.029352785    0.001331663  
   6040000   199.27594      479.67808      678.95402      294.72904      0.057279527    0.001331663  
   6050000   215.26836      501.73787      717.00623      308.28325     -0.067432518    0.001331663  
   6060000   229.69664      489.56005      719.25669      300.80083      0.012142806    0.001331663  
   6070000   213.34398      524.1364       737.48038      322.0456      -0.0053401492   0.001331663  
   6080000   216.97636      481.84594      698.8223       296.06104      0.042680163    0.001331663  
   6090000   217.44918      474.70151      692.15069      291.67128     -0.014694161    0.001331663  
   6100000   219.42026      492.57327      711.99353      302.65224     -0.064377349    0.001331663  
   6110000   217.10383      488.57334      705.67717      300.19456      0.013760025    0.001331663  
   6120000   214.16889      463.83971      678.0086       284.99745      0.052718672    0.001331663  
   6130000   195.56613      487.00385      682.56998      299.23022      0.10763246     0.001331663  
   6140000   228.76675      480.70032      709.46707      295.35713      0.052757881    0.001331663  
   6150000   211.10955      495.72807      706.83762      304.59065     -0.01647344     0.001331663  
   6160000   228.19139      485.25947      713.45086      298.15842     -0.015181578    0.001331663  
   6170000   243.85875      462.06724      705.92598      283.90839     -0.02131078     0.001331663  
   6180000   233.26647      484.89787      718.16434      297.93624      0.04336132     0.001331663  
   6190000   235.31974      505.55399      740.87373      310.628       -0.074837121    0.001331663  
   6200000   222.93366      477.49948      700.43314      293.39044      0.020390909    0.001331663  
   6210000   216.9379       508.43558      725.37347      312.39853      0.036704212    0.001331663  
   6220000   239.92455      480.7516       720.67614      295.38864     -0.0085955252   0.001331663  
   6230000   208.99554      508.22673      717.22227      312.27021      0.047071801    0.001331663  
   6240000   224.92072      471.51159      696.4323       289.71129      0.073532156    0.001331663  
   6250000   233.04954      483.12827      716.17782      296.84895      0.086312592    0.001331663  
   6260000   260.31092      494.38562      754.69654      303.76581      0.010582899    0.001331663  
   6270000   225.15598      499.65214      724.80812      307.00172      0.0064213725   0.001331663  
   6280000   217.68945      517.77725      735.4667       318.13835      0.027092935    0.001331663  
   6290000   242.68966      503.15311      745.84277      309.15283      0.099644136    0.001331663  
   6300000   230.09729      498.68796      728.78525      306.4093       0.022614747    0.001331663  
   6310000   227.56695      472.05449      699.62144      290.04487     -0.016991701    0.001331663  
   6320000   210.67758      465.94633      676.6239       286.29183     -0.039644868    0.001331663  
   6330000   222.81022      456.88036      679.69059      280.72142      0.046756818    0.001331663  
   6340000   253.64059      507.86287      761.50346      312.04665     -0.052446335    0.001331663  
   6350000   196.74035      489.84242      686.58277      300.97432     -0.0098781898   0.001331663  
   6360000   238.39201      497.78723      736.17925      305.85586      0.0068849182   0.001331663  
   6370000   234.0117       477.81259      711.82429      293.58283      0.0076106001   0.001331663  
   6380000   238.63013      498.77788      737.40801      306.46455      0.021336449    0.001331663  
   6390000   193.02079      512.09663      705.11742      314.648       -0.019496367    0.001331663  
   6400000   225.82861      477.13199      702.96059      293.16464      0.06845815     0.001331663  
   6410000   254.71718      486.58999      741.30717      298.97593     -0.067594575    0.001331663  
   6420000   241.07629      478.74977      719.82606      294.15866     -0.0049419526   0.001331663  
   6430000   283.28331      485.33168      768.61498      298.20278      0.033299443    0.001331663  
   6440000   242.63716      478.65858      721.29575      294.10263     -0.012541453    0.001331663  
   6450000   237.3088       482.50259      719.81139      296.4645       0.021533412    0.001331663  
   6460000   250.5821       486.53007      737.11217      298.93911      0.0018792741   0.001331663  
   6470000   234.43814      470.34524      704.78338      288.99465      0.0055080199   0.001331663  
   6480000   238.10678      500.68185      738.78863      307.6344       0.0049543773   0.001331663  
   6490000   232.1701       500.45697      732.62707      307.49623     -0.017241182    0.001331663  
   6500000   244.12761      494.52515      738.65276      303.85154     -0.055380118    0.001331663  
   6510000   237.2075       482.66242      719.86992      296.56271     -0.048740795    0.001331663  
   6520000   242.02447      477.51123      719.5357       293.39766     -0.030435118    0.001331663  
   6530000   225.20376      485.3225       710.52626      298.19715      0.026829303    0.001331663  
   6540000   260.65066      476.94564      737.5963       293.05014      0.001770263    0.001331663  
   6550000   225.67341      465.97534      691.64875      286.30965     -0.028859326    0.001331663  
   6560000   217.83522      489.20522      707.04044      300.58281     -0.037174512    0.001331663  
   6570000   206.74633      503.07533      709.82166      309.10503      0.022147357    0.001331663  
   6580000   238.52761      529.4567       767.98431      325.31456      0.050027584    0.001331663  
   6590000   229.09505      475.31564      704.41069      292.04862      0.045261182    0.001331663  
   6600000   205.18229      462.5354       667.71769      284.19605     -0.098382808    0.001331663  
   6610000   226.33382      480.35787      706.69169      295.14672     -0.006822078    0.001331663  
   6620000   232.54574      496.435        728.98074      305.02501      0.092120892    0.001331663  
   6630000   220.59725      486.12143      706.71868      298.68804     -0.021755687    0.001331663  
   6640000   230.41004      485.02059      715.43063      298.01164      0.048537506    0.001331663  
   6650000   206.93866      503.08845      710.02712      309.1131      -0.0035513845   0.001331663  
   6660000   222.54771      505.91882      728.46653      310.85216      0.046905003    0.001331663  
   6670000   245.55763      474.20056      719.75818      291.36348     -0.02296872     0.001331663  
   6680000   218.50195      483.43974      701.94169      297.04032      0.070554301    0.001331663  
   6690000   227.27674      478.03351      705.31025      293.71857     -0.030226788    0.001331663  
   6700000   261.51205      475.30953      736.82158      292.04487      0.052001427    0.001331663  
   6710000   226.59861      498.45645      725.05505      306.26705     -0.012261893    0.001331663  
   6720000   222.64472      524.17524      746.81996      322.06947     -0.016813687    0.001331663  
   6730000   222.68396      511.64442      734.32838      314.37015      0.025092583    0.001331663  
   6740000   222.80669      465.33578      688.14247      285.91668      0.0079093808   0.001331663  
   6750000   239.54858      507.73042      747.27899      311.96526     -0.0060306013   0.001331663  
   6760000   225.40431      493.326        718.73031      303.11474      0.046441367    0.001331663  
   6770000   224.23087      495.04848      719.27935      304.17309      0.052798367    0.001331663  
   6780000   219.01526      503.63984      722.6551       309.45188     -0.0028975583   0.001331663  
   6790000   207.18166      523.93399      731.11565      321.92124      0.0056430334   0.001331663  
   6800000   215.23632      498.65393      713.89026      306.38839     -0.046918257    0.001331663  
   6810000   226.08264      490.39549      716.47813      301.31415     -0.064193776    0.001331663  
   6820000   251.07602      457.59321      708.66923      281.15941     -0.011627245    0.001331663  
   6830000   212.8966       527.10177      739.99837      323.86762     -0.016646564    0.001331663  
   6840000   205.71944      463.363        669.08244      284.70455     -0.033278193    0.001331663  
   6850000   217.91513      488.42842      706.34355      300.10552      0.096218879    0.001331663  
   6860000   191.58354      510.34908      701.93263      313.57425      0.045106073    0.001331663  
   6870000   201.01653      459.61809      660.63463      282.40356     -0.026867699    0.001331663  
   6880000   193.78979      499.46771      693.2575       306.8884       0.0049986063   0.001331663  
   6890000   190.9721       489.92627      680.89837      301.02585      0.08622275     0.001331663  
   6900000   220.42008      501.52435      721.94443      308.15206     -0.009354209    0.001331663  
   6910000   197.81966      499.31386      697.13353      306.79387      0.034739081    0.001331663  
   6920000   212.21345      496.20502      708.41847      304.8837       0.032886338    0.001331663  
   6930000   188.78824      479.19117      667.97941      294.42986      0.10224799     0.001331663  
   6940000   220.13071      497.34468      717.47539      305.58395     -0.034397257    0.001331663  
   6950000   212.38359      478.73372      691.11731      294.1488      -0.056826225    0.001331663  
   6960000   209.3431       474.62451      683.96761      291.62397      0.0083115922   0.001331663  
   6970000   213.35995      511.29786      724.65781      314.15721      0.016911988    0.001331663  
   6980000   214.66046      490.77235      705.4328       301.5457       0.051863652    0.001331663  
   6990000   208.89078      477.8922       686.78298      293.63174      0.066466294    0.001331663  
   7000000   198.23627      512.87039      711.10666      315.12342      0.017444534    0.001331663  
   7010000   189.13891      480.93738      670.07629      295.50279      0.060212639    0.001331663  
   7020000   206.44138      463.69366      670.13504      284.90772      0.070330871    0.001331663  
   7030000   185.06883      486.95401      672.02284      299.1996      -0.025726658    0.001331663  
   7040000   221.87151      517.19988      739.07139      317.78359      0.037804935    0.001331663  
   7050000   199.95896      459.44251      659.40147      282.29568      0.0050725025   0.001331663  
   7060000   209.39514      461.89725      671.29239      283.80395      0.046367436    0.001331663  
   7070000   210.03641      474.17919      684.2156       291.35035     -0.01987576     0.001331663  
[...]
 103190000   196.28767      507.39977      703.68743      311.7621       0.069603414    0.001331663  
 103200000   218.10733      482.16058      700.26791      296.25436      0.0077643444   0.001331663  
 103210000   221.8035       474.92949      696.73299      291.81136      0.054608047    0.001331663  
 103220000   202.90181      483.09014      685.99195      296.82551      0.04648079     0.001331663  
 103230000   223.01328      531.04977      754.06305      326.29339     -0.040781022    0.001331663  
 103240000   201.90752      476.53393      678.44145      292.79718     -0.0085469412   0.001331663  
 103250000   190.27691      473.11879      663.3957       290.69881      0.012104475    0.001331663  
 103260000   209.1282       497.71437      706.84257      305.81109      0.032008676    0.001331663  
 103270000   234.31633      485.92731      720.24364      298.56876     -0.040524383    0.001331663  
 103280000   203.87335      486.52371      690.39706      298.93521      0.040315489    0.001331663  
 103290000   196.87402      482.24624      679.12026      296.307       -0.0080646443   0.001331663  
 103300000   217.36111      500.30207      717.66318      307.40106      0.03605434     0.001331663  
 103310000   229.02309      508.16184      737.18493      312.23034      0.031042688    0.001331663  
 103320000   215.69422      484.69593      700.39014      297.81216     -0.019770068    0.001331663  
 103330000   203.08564      484.87456      687.96019      297.92192      0.036428457    0.001331663  
 103340000   197.73073      491.6106       689.34133      302.06075      0.056478908    0.001331663  
 103350000   199.69493      478.55734      678.25228      294.04042     -0.021313694    0.001331663  
 103360000   216.869        476.57131      693.44031      292.82014      0.014075342    0.001331663  
 103370000   198.61809      504.05795      702.67604      309.70878      0.0049523072   0.001331663  
 103380000   189.97176      493.985        683.95676      303.51965     -0.022513158    0.001331663  
 103390000   215.55004      491.25895      706.80899      301.84468     -0.063951659    0.001331663  
 103400000   209.22791      499.96093      709.18884      307.19145      0.027294247    0.001331663  
 103410000   181.77024      498.81577      680.58601      306.48782      0.11716218     0.001331663  
 103420000   213.24101      480.7413       693.98232      295.38232      0.062521921    0.001331663  
 103430000   202.98602      484.00696      686.99298      297.38884      0.028017548    0.001331663  
 103440000   202.37841      500.69472      703.07313      307.64231      0.048103527    0.001331663  
 103450000   204.96139      456.41478      661.37617      280.43535     -0.10733444     0.001331663  
 103460000   212.34557      467.59652      679.94209      287.30575     -0.014583227    0.001331663  
 103470000   201.74069      511.24525      712.98594      314.12488      0.044295895    0.001331663  
 103480000   222.28797      508.80364      731.09162      312.62469     -0.024292712    0.001331663  
 103490000   242.15559      492.95213      735.10772      302.88503     -0.072415665    0.001331663  
 103500000   224.67025      478.88396      703.55421      294.24111      0.10950324     0.001331663  
 103510000   193.85063      498.14176      691.99239      306.07369      0.024656541    0.001331663  
 103520000   213.46018      479.49638      692.95656      294.6174       0.030372253    0.001331663  
 103530000   202.28147      494.81226      697.09373      304.02795      0.013024993    0.001331663  
 103540000   197.47572      475.8054       673.28113      292.34955      0.081956086    0.001331663  
 103550000   198.3435       489.32377      687.66727      300.65565     -0.0039905588   0.001331663  
 103560000   186.42981      472.11897      658.54878      290.08449      0.0024959476   0.001331663  
 103570000   198.88088      511.85057      710.73144      314.49681      0.01438181     0.001331663  
 103580000   175.87723      476.58642      652.46365      292.82943      0.035638476    0.001331663  
 103590000   225.98298      478.12918      704.11216      293.77735     -0.045333493    0.001331663  
 103600000   202.30632      481.47939      683.7857       295.83582     -0.07335964     0.001331663  
 103610000   167.61544      498.01883      665.63427      305.99816      0.086261834    0.001331663  
 103620000   214.5206       518.41761      732.93821      318.5318       0.052912133    0.001331663  
 103630000   221.58037      476.2829       697.86327      292.64293     -0.018364377    0.001331663  
 103640000   206.67378      515.60866      722.28244      316.8059       0.00091681415  0.001331663  
 103650000   216.02918      478.80338      694.83256      294.1916      -0.037128018    0.001331663  
 103660000   187.20395      485.71041      672.91436      298.43549      0.013432936    0.001331663  
 103670000   206.26348      520.9858       727.24928      320.10978      0.014079585    0.001331663  
 103680000   211.22531      484.67217      695.89748      297.79756     -0.039161715    0.001331663  
 103690000   220.00712      478.37554      698.38267      293.92872     -0.022779583    0.001331663  
 103700000   201.08391      499.02549      700.1094       306.61669      0.032163041    0.001331663  
 103710000   230.65735      508.20425      738.8616       312.2564       0.063673585    0.001331663  
 103720000   210.80475      478.42977      689.23453      293.96204      0.0072029925   0.001331663  
 103730000   191.25745      481.02066      672.27811      295.55396     -0.05647458     0.001331663  
 103740000   182.80868      467.36907      650.17776      287.166        0.091953447    0.001331663  
 103750000   192.17244      469.8471       662.01954      288.68858      0.029047948    0.001331663  
 103760000   187.47674      502.89022      690.36697      308.9913       0.0065007231   0.001331663  
 103770000   157.69824      505.98085      663.67909      310.89027      0.033380842    0.001331663  
 103780000   174.05529      497.0821       671.13739      305.42261      0.091074588    0.001331663  
 103790000   185.01404      508.55529      693.56933      312.47209     -0.010294996    0.001331663  
 103800000   207.06414      478.0582       685.12235      293.73374     -0.021421574    0.001331663  
 103810000   190.91922      480.34262      671.26184      295.13735      0.023950992    0.001331663  
 103820000   203.17324      514.18816      717.3614       315.9331       0.034753233    0.001331663  
 103830000   220.06528      505.37329      725.43857      310.51697      0.0050749008   0.001331663  
 103840000   205.00449      498.18257      703.18706      306.09877      0.03515385     0.001331663  
 103850000   202.9413       489.28503      692.22633      300.63184      0.02148538     0.001331663  
 103860000   197.215        492.01823      689.23322      302.31121      0.033037588    0.001331663  
 103870000   216.07391      481.87523      697.94914      296.07904      0.0013007989   0.001331663  
 103880000   206.72842      475.71801      682.44642      292.29585     -0.024331166    0.001331663  
 103890000   188.22415      473.59044      661.81459      290.98861     -0.042415043    0.001331663  
 103900000   195.7818       448.32501      644.10682      275.46475      0.019500354    0.001331663  
 103910000   193.29656      490.49576      683.79232      301.37576      0.0045555573   0.001331663  
 103920000   200.93948      491.76645      692.70593      302.15651      0.001734113    0.001331663  
 103930000   225.77976      495.84628      721.62604      304.66328     -0.066203544    0.001331663  
 103940000   215.09139      489.39782      704.48921      300.70115     -0.02358216     0.001331663  
 103950000   238.92259      474.5187       713.44128      291.55895      0.018415311    0.001331663  
 103960000   204.48464      460.99529      665.47993      283.24976     -0.010943618    0.001331663  
 103970000   218.43942      526.77989      745.21931      323.66985      0.069211307    0.001331663  
 103980000   228.60038      497.03778      725.63816      305.39538     -0.0064957024   0.001331663  
 103990000   230.6863       472.72938      703.41568      290.45954     -0.052046622    0.001331663  
 104000000   261.79644      465.12249      726.91892      285.78563     -0.077022482    0.001331663  
 104010000   231.75279      500.59663      732.34941      307.58204     -0.023921486    0.001331663  
 104020000   220.2141       468.82731      689.04141      288.06199      0.0063878701   0.001331663  
 104030000   203.16363      460.22263      663.38627      282.77501      0.041709552    0.001331663  
 104040000   191.88583      486.84375      678.72957      299.13185     -0.0082731504   0.001331663  
 104050000   191.13613      464.61001      655.74614      285.47075     -0.0048885039   0.001331663  
 104060000   223.4646       518.98751      742.45211      318.88197     -0.0053899657   0.001331663  
 104070000   220.28727      486.05286      706.34013      298.6459       0.076713955    0.001331663  
 104080000   223.81775      509.91506      733.73281      313.30757     -0.00074245933  0.001331663  
 104090000   217.38179      489.78138      707.16318      300.93682     -0.05973952     0.001331663  
 104100000   210.10493      479.32088      689.42581      294.50957      0.053695787    0.001331663  
 104110000   211.37046      480.84685      692.21731      295.44717     -0.021705956    0.001331663  
 104120000   200.34206      484.54946      684.89152      297.72216     -0.041725794    0.001331663  
 104130000   190.50565      477.01861      667.52427      293.09498     -0.00089693292  0.001331663  
 104140000   219.61815      484.53229      704.15045      297.71162     -0.057722779    0.001331663  
 104150000   225.68382      494.63886      720.32268      303.92141      0.015508535    0.001331663  
 104160000   204.85743      487.08783      691.94526      299.28182      0.016514007    0.001331663  
 104170000   190.98065      478.09102      669.07168      293.7539       0.034274915    0.001331663  
 104180000   234.23505      485.96243      720.19748      298.59034      0.0097579919   0.001331663  
 104190000   244.83221      472.38858      717.22079      290.25014      0.079586626    0.001331663  
 104200000   241.17689      490.42387      731.60076      301.33158      0.050838949    0.001331663  
 104210000   181.47047      510.55804      692.02851      313.70264      0.06966045     0.001331663  
 104220000   181.18502      471.64098      652.826        289.7908       0.020821091    0.001331663  
 104230000   195.99356      503.55813      699.55169      309.40168      0.071978556    0.001331663  
 104240000   220.99777      478.40629      699.40406      293.94761     -0.025866681    0.001331663  
 104250000   212.84699      457.29196      670.13896      280.97432     -0.019995083    0.001331663  
 104260000   231.87042      488.79383      720.66425      300.33004      0.059272864    0.001331663  
 104270000   211.17509      482.89422      694.06931      296.70514     -0.019056264    0.001331663  
 104280000   227.94782      515.28514      743.23296      316.60712      0.026117227    0.001331663  
 104290000   224.13591      493.07874      717.21465      302.96282     -0.021879199    0.001331663  
 104300000   218.54918      492.68372      711.2329       302.72011     -0.082986313    0.001331663  
 104310000   209.09919      501.90948      711.00867      308.3887       0.022215883    0.001331663  
 104320000   208.03447      538.26637      746.30084      330.7275       0.052138462    0.001331663  
 104330000   242.57928      449.98778      692.56706      276.4864       0.025728348    0.001331663  
 104340000   210.96049      501.76325      712.72374      308.29885     -0.031586177    0.001331663  
 104350000   228.69239      481.76015      710.45254      296.00832     -0.091858476    0.001331663  
 104360000   232.16998      467.90624      700.07622      287.49605     -0.030354097    0.001331663  
 104370000   199.93617      500.82968      700.76585      307.72524      0.051125133    0.001331663  
 104380000   190.14132      474.23543      664.37675      291.38491     -0.022740574    0.001331663  
 104390000   229.59623      490.60361      720.19983      301.44202      0.0092155806   0.001331663  
 104400000   218.46039      496.65399      715.11438      305.15956      0.019111707    0.001331663  
 104410000   181.81577      482.00241      663.81818      296.15718      0.01406509     0.001331663  
 104420000   196.06804      498.9111       694.97915      306.5464      -0.052150145    0.001331663  
 104430000   189.88061      480.38655      670.26716      295.16435      0.062392424    0.001331663  
 104440000   185.98449      490.71623      676.70072      301.51122      0.065531194    0.001331663  
 104450000   175.98356      473.5608       649.54436      290.97039     -0.020234223    0.001331663  
 104460000   208.25254      504.17951      712.43205      309.78347      0.064180642    0.001331663  
 104470000   209.31524      522.13272      731.44795      320.81448      0.042684025    0.001331663  
 104480000   235.63044      501.4106       737.04104      308.08217      0.045419481    0.001331663  
 104490000   242.69078      461.02007      703.71085      283.26498      0.024362798    0.001331663  
 104500000   216.18098      502.44329      718.62426      308.71669     -0.025118468    0.001331663  
 104510000   209.90021      502.83511      712.73532      308.95743     -0.077853144    0.001331663  
 104520000   214.08877      474.62373      688.7125       291.62349      0.037612157    0.001331663  
 104530000   189.36455      482.36959      671.73414      296.38279     -0.031398593    0.001331663  
 104540000   218.61968      478.87746      697.49714      294.23711      0.011200287    0.001331663  
 104550000   228.55125      502.65399      731.20523      308.84615      0.037194946    0.001331663  
 104560000   189.43369      494.8851       684.31879      304.0727      -0.05229386     0.001331663  
 104570000   200.22093      471.91796      672.1389       289.96098      0.025048343    0.001331663  
 104580000   211.35524      479.11202      690.46726      294.38124      0.01342878     0.001331663  
 104590000   204.36138      494.74769      699.10907      303.98827      0.051268402    0.001331663  
 104600000   214.20938      485.45685      699.66623      298.27969      0.086895743    0.001331663  
 104610000   237.72233      494.64381      732.36614      303.92445     -0.029166041    0.001331663  
 104620000   228.58279      451.29097      679.87376      277.28712     -0.054024256    0.001331663  
 104630000   214.32223      505.37265      719.69489      310.51658      0.042328837    0.001331663  
 104640000   229.18724      487.3004       716.48764      299.41243     -0.029040498    0.001331663  
 104650000   229.10182      490.09373      719.19555      301.12873      0.062860393    0.001331663  
 104660000   204.56817      467.19963      671.7678       287.06189      0.06313409     0.001331663  
 104670000   211.07931      484.36307      695.44238      297.60764     -0.050008774    0.001331663  
 104680000   207.40733      511.45994      718.86727      314.2568       0.05196879     0.001331663  
 104690000   214.03371      489.03411      703.06782      300.47767     -0.058642656    0.001331663  
 104700000   213.29057      508.89212      722.18269      312.67905      0.013496993    0.001331663  
 104710000   226.03929      495.0645       721.10379      304.18293      0.015093475    0.001331663  
 104720000   216.37278      478.29526      694.66804      293.87939      0.021116372    0.001331663  
 104730000   237.43446      481.69019      719.12464      295.96534      0.051197493    0.001331663  
 104740000   218.54639      515.15299      733.69937      316.52592     -0.048179123    0.001331663  
 104750000   240.02084      506.43157      746.45241      311.16721      0.024698689    0.001331663  
 104760000   250.89896      471.16568      722.06463      289.49876     -0.0095423983   0.001331663  
 104770000   207.60562      516.79795      724.40356      317.53663     -0.049894026    0.001331663  
 104780000   241.81966      464.54469      706.36435      285.43062      0.017581235    0.001331663  
 104790000   234.25306      495.74776      730.00082      304.60275      0.040691419    0.001331663  
 104800000   239.33124      477.07935      716.4106       293.1323      -0.028120121    0.001331663  
 104810000   249.15682      493.56226      742.71908      303.25991     -0.112618       0.001331663  
 104820000   234.0718       490.87158      724.94338      301.60667      0.028844624    0.001331663  
 104830000   224.32109      501.8555       726.17659      308.35553     -0.050500982    0.001331663  
 104840000   241.65266      493.41854      735.07121      303.1716      -0.025147311    0.001331663  
 104850000   259.10794      486.51379      745.62173      298.92911     -0.039849203    0.001331663  
 104860000   242.53132      475.08691      717.61824      291.90808     -0.0079609031   0.001331663  
 104870000   234.38156      473.65325      708.03482      291.0272      -0.019668662    0.001331663  
 104880000   261.92592      502.98879      764.91471      309.05186      0.045377036    0.001331663  
 104890000   232.20949      463.71889      695.92838      284.92322      0.012322541    0.001331663  
 104900000   240.16063      481.09543      721.25606      295.59991      0.065759152    0.001331663  
 104910000   253.19913      482.44652      735.64564      296.43005     -0.0021813291   0.001331663  
 104920000   239.71669      496.56887      736.28556      305.10726     -0.024359098    0.001331663  
 104930000   213.29322      488.61709      701.91032      300.22145     -0.054528878    0.001331663  
 104940000   252.81875      513.00747      765.82623      315.20765     -0.025318158    0.001331663  
 104950000   212.8319       517.71189      730.54378      318.09819      0.098604891    0.001331663  
 104960000   220.37046      482.30048      702.67094      296.34032      0.11183273     0.001331663  
 104970000   226.46492      480.38507      706.84999      295.16344     -0.0020191412   0.001331663  
 104980000   199.79399      429.43742      629.23142      263.85963      0.041544676    0.001331663  
 104990000   212.67453      497.39627      710.0708       305.61564     -0.039547959    0.001331663  
 105000000   220.89629      476.87042      697.76671      293.00393      0.031181341    0.001331663  
Loop time of 5128.9 on 8 procs for 100000000 steps with 547 atoms

Performance: 16845.724 ns/day, 0.001 hours/ns, 19497.366 timesteps/s, 10.665 Matom-step/s
99.3% CPU use with 8 MPI tasks x 1 OpenMP threads

MPI task timing breakdown:
Section |  min time  |  avg time  |  max time  |%varavg| %total
---------------------------------------------------------------
Pair    | 737.6      | 1127.4     | 3018.6     |2154.6 | 21.98
Bond    | 176.73     | 233.82     | 420.86     | 483.4 |  4.56
Neigh   | 11.348     | 11.598     | 11.813     |   4.7 |  0.23
Comm    | 1394.7     | 3562.4     | 4018.6     |1388.6 | 69.46
Output  | 0.92216    | 1.1922     | 2.7991     |  55.7 |  0.02
Modify  | 111.54     | 145.6      | 248.24     | 331.6 |  2.84
Other   |            | 46.87      |            |       |  0.91

Nlocal:         68.375 ave         108 max          34 min
Histogram: 1 1 0 1 2 1 0 0 1 1
Nghost:          72.75 ave         101 max          47 min
Histogram: 3 0 0 0 1 0 1 1 1 1
Neighs:            161 ave         405 max          43 min
Histogram: 2 3 1 0 0 0 0 1 0 1

Total # of neighbors = 1288
Ave neighs/atom = 2.3546618
Ave special neighs/atom = 4.88117
Neighbor list builds = 199373
Dangerous builds = 0

write_data outputs/${tag}_final.data
write_data outputs/1XJR_aso_n50_final.data
System init for write_data ...
Generated 0 of 6 mixed pair_coeff terms from geometric mixing rule
Total wall time: 1:29:20
