LAMMPS (29 Aug 2024)
  using 1 OpenMP thread(s) per MPI task
Reading data file ...
  orthogonal box = (-80 -80 -80) to (80 80 80)
  1 by 2 by 2 MPI processor grid
  reading atoms ...
  76 atoms
  scanning bonds ...
  1 = max bonds/atom
  scanning angles ...
  1 = max angles/atom
  orthogonal box = (-80 -80 -80) to (80 80 80)
  1 by 2 by 2 MPI processor grid
  reading bonds ...
  74 bonds
  reading angles ...
  72 angles
Finding 1-2 1-3 1-4 neighbors ...
  special bond factors lj:    0        0        1       
  special bond factors coul:  0        0        0       
     2 = max # of 1-2 neighbors
     2 = max # of 1-3 neighbors
     4 = max # of 1-4 neighbors
     6 = max # of special neighbors
  special bonds CPU = 0.000 seconds
  read_data CPU = 0.007 seconds

CITE-CITE-CITE-CITE-CITE-CITE-CITE-CITE-CITE-CITE-CITE-CITE-CITE

Your simulation uses code contributions which should be cited:
- Type Label Framework: https://doi.org/10.1021/acs.jpcb.3c08419
The log file lists these citations in BibTeX format.

CITE-CITE-CITE-CITE-CITE-CITE-CITE-CITE-CITE-CITE-CITE-CITE-CITE

Switching to 'neigh_modify every 1 delay 0 check yes' setting during minimization
Generated 0 of 6 mixed pair_coeff terms from geometric mixing rule
Neighbor list info ...
  update: every = 1 steps, delay = 0 steps, check = yes
  max neighbors/atom: 2000, page size: 100000
  master list distance cutoff = 33
  ghost atom cutoff = 33
  binsize = 16.5, bins = 10 10 10
  2 neighbor lists, perpetual/occasional/extra = 2 0 0
  (1) pair lj/cut, perpetual, trim from (2)
      attributes: half, newton on, cut 25
      pair build: trim
      stencil: none
      bin: none
  (2) pair base/rna, perpetual
      attributes: half, newton on
      pair build: half/bin/newton
      stencil: half/bin/3d
      bin: standard
Setting up cg style minimization ...
  Unit style    : real
  Current step  : 0
Per MPI rank memory allocation (min/avg/max) = 8.403 | 8.403 | 8.403 Mbytes
   Step          Temp          E_pair         E_mol          TotEng         Press     
         0   0              2323.8455      62.896544      2386.7421      175.57376    
       119   0             -113.61682      8.0881943     -105.52862     -0.0070420022 
Loop time of 0.0094873 on 4 procs for 119 steps with 76 atoms

90.6% CPU use with 4 MPI tasks x 1 OpenMP threads

Minimization stats:
  Stopping criterion = energy tolerance
  Energy initial, next-to-last, final = 
      2386.74205296367  -105.519109515063  -105.528624772665
  Force two-norm initial, final = 5888.4578 0.67989552
  Force max component initial, final = 2667.2637 0.17067354
  Final line search alpha, max atom move = 0.19519094 0.033313929
  Iterations, force evaluations = 119 183

MPI task timing breakdown:
Section |  min time  |  avg time  |  max time  |%varavg| %total
---------------------------------------------------------------
Pair    | 0.0043482  | 0.0052272  | 0.0058764  |   0.8 | 55.10
Bond    | 0.00022857 | 0.0003183  | 0.00046755 |   0.0 |  3.36
Neigh   | 0          | 0          | 0          |   0.0 |  0.00
Comm    | 0.0021148  | 0.0028245  | 0.0038154  |   1.2 | 29.77
Output  | 0          | 0          | 0          |   0.0 |  0.00
Modify  | 0          | 0          | 0          |   0.0 |  0.00
Other   |            | 0.001117   |            |       | 11.78

Nlocal:             19 ave          27 max          16 min
Histogram: 3 0 0 0 0 0 0 0 0 1
Nghost:             62 ave          65 max          54 min
Histogram: 1 0 0 0 0 0 0 0 0 3
Neighs:          242.5 ave         280 max         191 min
Histogram: 1 0 0 0 0 1 0 1 0 1

Total # of neighbors = 970
Ave neighs/atom = 12.763158
Ave special neighs/atom = 5.6842105
Neighbor list builds = 0
Dangerous builds = 0
ERROR: Unknown fix ave/time keyword \ (src/fix_ave_time.cpp:1102)
Last command: fix favg all ave/time 10000 10 100000 v_vpe v_vke v_vT v_vE v_vRg \
