LAMMPS (29 Aug 2024)
  using 1 OpenMP thread(s) per MPI task
Reading data file ...
  orthogonal box = (-175 -175 -175) to (175 175 175)
  1 by 2 by 2 MPI processor grid
  reading atoms ...
  166 atoms
  scanning bonds ...
  1 = max bonds/atom
  scanning angles ...
  1 = max angles/atom
  orthogonal box = (-175 -175 -175) to (175 175 175)
  1 by 2 by 2 MPI processor grid
  reading bonds ...
  155 bonds
  reading angles ...
  144 angles
Finding 1-2 1-3 1-4 neighbors ...
  special bond factors lj:    0        0        1       
  special bond factors coul:  0        0        0       
     2 = max # of 1-2 neighbors
     2 = max # of 1-3 neighbors
     4 = max # of 1-4 neighbors
     6 = max # of special neighbors
  special bonds CPU = 0.000 seconds
  read_data CPU = 0.006 seconds

CITE-CITE-CITE-CITE-CITE-CITE-CITE-CITE-CITE-CITE-CITE-CITE-CITE

Your simulation uses code contributions which should be cited:
- Type Label Framework: https://doi.org/10.1021/acs.jpcb.3c08419
The log file lists these citations in BibTeX format.

CITE-CITE-CITE-CITE-CITE-CITE-CITE-CITE-CITE-CITE-CITE-CITE-CITE

Switching to 'neigh_modify every 1 delay 0 check yes' setting during minimization
Generated 0 of 6 mixed pair_coeff terms from geometric mixing rule
Neighbor list info ...
  update: every = 1 steps, delay = 0 steps, check = yes
  max neighbors/atom: 2000, page size: 100000
  master list distance cutoff = 33
  ghost atom cutoff = 33
  binsize = 16.5, bins = 22 22 22
  2 neighbor lists, perpetual/occasional/extra = 2 0 0
  (1) pair lj/cut, perpetual, trim from (2)
      attributes: half, newton on, cut 25
      pair build: trim
      stencil: none
      bin: none
  (2) pair base/rna, perpetual
      attributes: half, newton on
      pair build: half/bin/newton
      stencil: half/bin/3d
      bin: standard
Setting up cg style minimization ...
  Unit style    : real
  Current step  : 0
Per MPI rank memory allocation (min/avg/max) = 8.427 | 8.428 | 8.428 Mbytes
   Step          Temp          E_pair         E_mol          TotEng         Press     
         0   0              2323.8455      161.59259      2485.4381      16.773181    
       962   0             -130.73263      107.61107     -23.121562     -0.0012491454 
Loop time of 0.0935932 on 4 procs for 962 steps with 166 atoms

97.1% CPU use with 4 MPI tasks x 1 OpenMP threads

Minimization stats:
  Stopping criterion = energy tolerance
  Energy initial, next-to-last, final = 
      2485.43809541411  -23.1195368318126  -23.1215619763328
  Force two-norm initial, final = 5888.4578 0.28814838
  Force max component initial, final = 2667.2637 0.062725018
  Final line search alpha, max atom move = 0.20783283 0.013036318
  Iterations, force evaluations = 962 1766

MPI task timing breakdown:
Section |  min time  |  avg time  |  max time  |%varavg| %total
---------------------------------------------------------------
Pair    | 0.041392   | 0.051088   | 0.063102   |   3.6 | 54.58
Bond    | 0.0023031  | 0.0060709  | 0.0091207  |   3.4 |  6.49
Neigh   | 0.00021758 | 0.00023469 | 0.00024946 |   0.0 |  0.25
Comm    | 0.012733   | 0.02719    | 0.038634   |   6.3 | 29.05
Output  | 0          | 0          | 0          |   0.0 |  0.00
Modify  | 0          | 0          | 0          |   0.0 |  0.00
Other   |            | 0.00901    |            |       |  9.63

Nlocal:           41.5 ave          63 max          15 min
Histogram: 1 0 0 1 0 0 0 0 1 1
Nghost:             78 ave          96 max          65 min
Histogram: 1 1 0 0 1 0 0 0 0 1
Neighs:            273 ave         355 max         199 min
Histogram: 2 0 0 0 0 0 0 0 1 1

Total # of neighbors = 1092
Ave neighs/atom = 6.5783133
Ave special neighs/atom = 5.2048193
Neighbor list builds = 5
Dangerous builds = 0
Generated 0 of 6 mixed pair_coeff terms from geometric mixing rule
Setting up Verlet run ...
  Unit style    : real
  Current step  : 0
  Time step     : 10
Per MPI rank memory allocation (min/avg/max) = 7.318 | 7.347 | 7.433 Mbytes
   Step         PotEng         KinEng         TotEng          Temp          Press         Density    
         0  -23.121562      147.5501       124.42854      300            0.15606516     0.0020988515 
     10000  -0.93187304     159.82211      158.89024      324.95156     -0.10523784     0.0020988515 
     20000   1.6075249      142.06892      143.67644      288.85562     -0.0077311552   0.0020988515 
     30000   12.199093      154.31155      166.51065      313.74745     -0.089578432    0.0020988515 
     40000   14.179812      144.22234      158.40215      293.23398      0.063414364    0.0020988515 
     50000   13.381932      139.84532      153.22725      284.33459      0.2564178      0.0020988515 
     60000  -0.86696424     151.8742       151.00723      308.79179      0.47170225     0.0020988515 
     70000   16.948571      147.35422      164.30279      299.60174     -0.020580222    0.0020988515 
     80000   19.528647      159.92136      179.45         325.15334      0.19356296     0.0020988515 
     90000   43.008455      146.07792      189.08637      297.00675      0.085162532    0.0020988515 
    100000   18.885338      150.1797       169.06504      305.34652     -0.14146118     0.0020988515 
    110000   25.504221      154.42872      179.93294      313.98567     -0.27602163     0.0020988515 
    120000   21.26331       145.85742      167.12073      296.55843     -0.062295565    0.0020988515 
    130000  -1.4749026      144.62487      143.14997      294.05241     -0.078741822    0.0020988515 
    140000   1.1288465      159.10099      160.22984      323.48537      0.16835609     0.0020988515 
    150000   18.27777       125.59167      143.86944      255.35396     -0.15067076     0.0020988515 
    160000   17.507192      135.98251      153.4897       276.48069     -0.016766829    0.0020988515 
    170000   12.148317      137.92464      150.07296      280.42945      0.20764939     0.0020988515 
    180000   25.054916      133.21117      158.26608      270.84598      0.14449966     0.0020988515 
    190000   13.619988      140.74443      154.36442      286.16267     -0.07715717     0.0020988515 
    200000   32.617615      143.61558      176.23319      292.00031     -0.24079324     0.0020988515 
    210000   31.394698      148.24179      179.63649      301.40635     -0.20597389     0.0020988515 
    220000   22.449671      162.60046      185.05014      330.60052      0.38396296     0.0020988515 
    230000   18.165779      147.94096      166.10674      300.79471      0.28968755     0.0020988515 
    240000   17.306678      141.45717      158.76384      287.6118       0.13841118     0.0020988515 
    250000   12.107868      149.82198      161.92985      304.6192       0.053073571    0.0020988515 
    260000   14.209626      148.73326      162.94288      302.40561      0.14225017     0.0020988515 
    270000   14.90658       139.86787      154.77445      284.38044     -0.12411152     0.0020988515 
    280000   29.815864      149.87269      179.68855      304.72231     -0.089090337    0.0020988515 
    290000   18.534984      138.07927      156.61426      280.74385      0.013149553    0.0020988515 
    300000   18.74376       155.49899      174.24275      316.16176     -0.038416107    0.0020988515 
    310000  -3.3852978      143.78507      140.39977      292.34492      0.16896068     0.0020988515 
    320000   3.8540784      151.69519      155.54927      308.42783      0.1435111      0.0020988515 
    330000   14.648496      143.79594      158.44443      292.36701     -0.12074669     0.0020988515 
    340000   13.535778      141.56035      155.09613      287.8216      -0.088565194    0.0020988515 
    350000   22.490317      162.05374      184.54406      329.48893     -0.17124294     0.0020988515 
    360000   13.80176       144.11878      157.92054      293.02342      0.06959624     0.0020988515 
    370000   20.353233      154.72232      175.07555      314.58262     -0.13288089     0.0020988515 
    380000   28.465272      152.91625      181.38153      310.91051     -0.049747911    0.0020988515 
    390000   31.493154      147.03736      178.53051      298.9575       0.041776589    0.0020988515 
    400000   19.416923      164.6919       184.10882      334.85284      0.11351486     0.0020988515 
    410000   27.835299      148.1658       176.0011       301.25185     -0.23474277     0.0020988515 
    420000  -10.313644      149.52588      139.21224      304.01718     -0.16704585     0.0020988515 
    430000   2.4180845      147.90106      150.31915      300.71359      0.09538868     0.0020988515 
    440000   20.551512      151.07147      171.62298      307.15969      0.081876769    0.0020988515 
    450000   23.883075      146.20206      170.08514      297.25916     -0.045034877    0.0020988515 
    460000   18.101354      160.92812      179.02947      327.2003      -0.078396066    0.0020988515 
    470000   2.2968552      140.28697      142.58383      285.23256      0.018710259    0.0020988515 
    480000   13.525774      152.94125      166.46702      310.96133      0.084378302    0.0020988515 
    490000  -0.86741684     168.52535      167.65793      342.64704      0.13144279     0.0020988515 
    500000   8.2372623      138.03294      146.27021      280.64965      0.038692211    0.0020988515 
    510000  -2.4371749      170.4358       167.99863      346.5314      -0.097363494    0.0020988515 
    520000   6.9256647      151.686        158.61166      308.40915      0.038153366    0.0020988515 
    530000   0.07857622     145.0356       145.11418      294.88751      0.028055819    0.0020988515 
    540000   7.8931987      151.24193      159.13513      307.50627      0.0099088538   0.0020988515 
    550000   14.530885      141.83907      156.36996      288.3883       0.21589935     0.0020988515 
    560000   12.946099      153.27416      166.22025      311.6382      -0.17257872     0.0020988515 
    570000  -1.4642604      137.36066      135.8964       279.28276      0.39381041     0.0020988515 
    580000   27.107507      133.35593      160.46344      271.14031     -0.20257535     0.0020988515 
    590000   23.767885      147.66555      171.43343      300.23473      0.25831578     0.0020988515 
    600000   23.221442      140.33676      163.5582       285.33378      0.024734432    0.0020988515 
    610000   5.3627581      146.01466      151.37742      296.87813     -0.14082109     0.0020988515 
    620000   8.0856015      147.62779      155.71339      300.15796      0.088315348    0.0020988515 
    630000   10.688238      130.92136      141.6096       266.19033     -0.23548661     0.0020988515 
    640000   19.945844      143.57035      163.51619      291.90834     -0.12406723     0.0020988515 
    650000   17.032495      143.37522      160.40772      291.51161     -0.14363332     0.0020988515 
    660000   28.332573      130.69228      159.02485      265.72455      0.063964641    0.0020988515 
    670000   27.170864      157.71096      184.88182      320.65914      0.22912283     0.0020988515 
    680000   48.13891       132.92237      181.06128      270.25879     -0.016474798    0.0020988515 
    690000   24.54293       142.78116      167.3241       290.30377      0.036650014    0.0020988515 
    700000   44.546245      145.34018      189.88643      295.50679     -0.015170976    0.0020988515 
    710000   9.8822853      142.82011      152.70239      290.38295      0.0067108363   0.0020988515 
    720000   15.048009      142.87295      157.92096      290.49039     -0.11489872     0.0020988515 
    730000   33.28713       147.1146       180.40173      299.11455      0.058822958    0.0020988515 
    740000   28.874363      150.32748      179.20184      305.647       -0.024359413    0.0020988515 
    750000   36.74059       166.36063      203.10122      338.24572     -0.021089244    0.0020988515 
    760000   28.75349       151.9003       180.65379      308.84487     -0.016261562    0.0020988515 
    770000   22.764795      167.33411      190.09891      340.22501     -0.029805836    0.0020988515 
    780000   23.519218      153.16991      176.68912      311.42624      0.16286714     0.0020988515 
    790000   30.596108      141.16322      171.75933      287.01415     -0.010481608    0.0020988515 
    800000   28.250774      159.9833       188.23407      325.27928      0.10787218     0.0020988515 
    810000   40.957783      159.66734      200.62513      324.63688      0.018657529    0.0020988515 
    820000   48.903913      156.70024      205.60415      318.60414      0.29068447     0.0020988515 
    830000   19.572261      142.97566      162.54792      290.69922     -0.28723157     0.0020988515 
    840000   32.232147      139.00909      171.24124      282.63436     -0.052905055    0.0020988515 
    850000   26.490639      142.15529      168.64593      289.03124     -0.19447881     0.0020988515 
    860000   20.516984      145.13376      165.65074      295.08707      0.065447812    0.0020988515 
    870000  -1.5772791      144.60657      143.02929      294.0152       0.070932553    0.0020988515 
    880000   1.9650058      133.22142      135.18643      270.86683      0.31289895     0.0020988515 
    890000   7.7949978      153.07309      160.86809      311.22939     -0.053134278    0.0020988515 
    900000   12.74093       153.621        166.36193      312.3434      -0.015652553    0.0020988515 
    910000   13.548351      150.3719       163.92025      305.73731      0.084935974    0.0020988515 
    920000   28.616282      153.26735      181.88364      311.62437      0.094154575    0.0020988515 
    930000   22.539494      148.95339      171.49289      302.85319      0.28905401     0.0020988515 
    940000   0.16705593     137.86537      138.03243      280.30895     -0.12469479     0.0020988515 
    950000   26.075188      138.47925      164.55444      281.55708      0.081670497    0.0020988515 
    960000   16.800938      149.94602      166.74695      304.8714      -0.044950591    0.0020988515 
    970000   35.635883      149.13592      184.7718       303.2243      -0.10013194     0.0020988515 
    980000   25.02037       149.17984      174.20021      303.31361      0.059389262    0.0020988515 
    990000   17.576863      162.72014      180.29701      330.84386      0.1530699      0.0020988515 
   1000000   29.85774       161.45268      191.31042      328.26684      0.055649958    0.0020988515 
   1010000   23.509589      154.47093      177.98052      314.07149      0.0093262819   0.0020988515 
   1020000   2.2371057      153.5396       155.77671      312.17791      0.025918146    0.0020988515 
   1030000   0.52228326     151.27229      151.79457      307.56798      0.3002369      0.0020988515 
   1040000   25.935073      162.7089       188.64397      330.821       -0.051329046    0.0020988515 
   1050000   12.166583      147.83213      159.99872      300.57344      0.13720955     0.0020988515 
   1060000   26.893495      171.63667      198.53017      348.97302      0.25755955     0.0020988515 
   1070000   37.210795      136.97438      174.18518      278.49737     -0.053398501    0.0020988515 
   1080000   23.430202      156.47907      179.90927      318.15445     -0.0014426347   0.0020988515 
   1090000   19.847324      143.38749      163.23481      291.53655      0.12587114     0.0020988515 
   1100000   17.063167      142.64506      159.70823      290.02704     -0.18610375     0.0020988515 
   1110000   18.467038      151.6998       170.16684      308.43721      0.13029199     0.0020988515 
   1120000   2.971142       155.85039      158.82153      316.87622      0.025203908    0.0020988515 
   1130000   18.12336       143.41135      161.53471      291.58507      0.19520588     0.0020988515 
   1140000  -0.44927925     148.32148      147.8722       301.56838     -0.18786425     0.0020988515 
   1150000   10.66397       157.26708      167.93105      319.75663     -0.040968535    0.0020988515 
   1160000   9.5040684      157.78841      167.29248      320.81662      0.019612143    0.0020988515 
   1170000   12.073138      139.52177      151.59491      283.67674     -0.0037149447   0.0020988515 
   1180000   9.29062        148.4069       157.69752      301.74205      0.1896491      0.0020988515 
   1190000   17.254669      149.66239      166.91706      304.29473     -0.050017664    0.0020988515 
   1200000  -2.5594452      142.43083      139.87139      289.59147      0.037618749    0.0020988515 
   1210000   2.2582669      147.22053      149.47879      299.32991      0.28986656     0.0020988515 
   1220000   14.747674      123.22462      137.97229      250.54125      0.11657993     0.0020988515 
   1230000  -1.179567       139.52793      138.34836      283.68927      0.17072139     0.0020988515 
   1240000   19.467528      148.19891      167.66644      301.31918     -0.28711012     0.0020988515 
   1250000   8.7298185      153.69756      162.42737      312.49906      0.032002595    0.0020988515 
   1260000  -2.9614589      148.36059      145.39913      301.6479       0.088726488    0.0020988515 
   1270000   13.2082        148.61649      161.82469      302.16819      0.091177423    0.0020988515 
   1280000   11.479367      148.80098      160.28035      302.5433       0.14891183     0.0020988515 
   1290000   26.863349      146.54586      173.40921      297.95818     -0.063589255    0.0020988515 
   1300000  -2.4342025      148.45884      146.02463      301.84765     -0.10347991     0.0020988515 
   1310000   29.560375      143.03396      172.59434      290.81775     -0.051964246    0.0020988515 
   1320000   3.8587963      140.31134      144.17013      285.2821       0.10548402     0.0020988515 
   1330000   7.3692352      146.05923      153.42847      296.96876      0.28312502     0.0020988515 
   1340000   24.369462      148.25609      172.62555      301.43543     -0.10034944     0.0020988515 
   1350000   3.382688       133.55151      136.9342       271.53796     -0.12246478     0.0020988515 
   1360000  -10.3706        150.89169      140.52109      306.79414      0.12490789     0.0020988515 
   1370000   4.9881018      150.14799      155.13609      305.28205      0.051021298    0.0020988515 
   1380000   9.4583591      133.91967      143.37803      272.28652     -0.18555459     0.0020988515 
   1390000   8.8691767      138.03071      146.89989      280.64512     -0.26383143     0.0020988515 
   1400000   3.3051476      160.31705      163.6222       325.95787      0.10520108     0.0020988515 
   1410000   8.7717019      131.01241      139.78412      266.37545      0.11027884     0.0020988515 
   1420000   12.099012      158.03852      170.13753      321.32514      0.034959905    0.0020988515 
   1430000   6.1032541      146.8316       152.93486      298.53915     -0.11344153     0.0020988515 
   1440000   10.117579      140.41826      150.53583      285.49948     -0.1089919      0.0020988515 
   1450000   16.783076      155.23386      172.01693      315.62268     -0.03335278     0.0020988515 
   1460000   3.7438864      137.54262      141.28651      279.65273      0.053325213    0.0020988515 
   1470000   6.9118955      146.91515      153.82705      298.70903      0.13034709     0.0020988515 
   1480000  -4.2157624      152.43116      148.2154       309.92422      0.14668052     0.0020988515 
   1490000   5.6462969      150.01801      155.6643       305.01777     -0.27929174     0.0020988515 
   1500000   35.86112       148.06901      183.93013      301.05505      0.10907871     0.0020988515 
   1510000   13.413814      148.1224       161.53621      301.16361     -0.21045223     0.0020988515 
   1520000  -6.6821216      148.32088      141.63876      301.56717     -0.10291417     0.0020988515 
   1530000   38.569443      146.22218      184.79162      297.30006     -0.12423433     0.0020988515 
   1540000   32.186586      129.48867      161.67526      263.27737     -0.029301588    0.0020988515 
   1550000   11.07188       150.25129      161.32317      305.49208     -0.10556237     0.0020988515 
   1560000   16.194781      149.41917      165.61395      303.80022     -0.043959503    0.0020988515 
   1570000   8.6579337      145.58967      154.2476       296.01404     -0.04260936     0.0020988515 
   1580000   14.706439      152.485        167.19144      310.03369      0.26831918     0.0020988515 
   1590000   19.524852      130.9491       150.47395      266.24671     -0.072765053    0.0020988515 
   1600000   15.19252       148.69373      163.88625      302.32524     -0.25782641     0.0020988515 
   1610000   22.408864      163.76424      186.17311      332.96672      0.31214745     0.0020988515 
   1620000   23.613736      138.5596       162.17334      281.72045     -0.13407967     0.0020988515 
   1630000   30.497051      161.3499       191.84695      328.05786     -0.075057388    0.0020988515 
   1640000   43.845252      157.19874      201.04399      319.6177       0.0648539      0.0020988515 
   1650000   12.251742      152.44422      164.69596      309.95076     -0.09480743     0.0020988515 
   1660000   27.256783      149.21226      176.46904      303.37952      0.18794382     0.0020988515 
   1670000   22.392941      148.3555       170.74845      301.63756     -0.16358101     0.0020988515 
   1680000   12.286259      145.99768      158.28394      296.84361     -0.15225681     0.0020988515 
   1690000   11.860023      131.86645      143.72647      268.11188     -0.02518194     0.0020988515 
   1700000   8.3078275      150.04237      158.3502       305.06731      0.048078151    0.0020988515 
   1710000   22.809673      148.99382      171.8035       302.9354      -0.12525453     0.0020988515 
   1720000   19.080454      153.24868      172.32913      311.5864      -0.28252567     0.0020988515 
   1730000   14.599746      149.41994      164.01969      303.80179      0.41742012     0.0020988515 
   1740000   24.180769      145.93857      170.11934      296.72344     -0.0055703393   0.0020988515 
   1750000   15.369234      148.57054      163.93977      302.07476      0.13140167     0.0020988515 
   1760000   30.8031        146.79257      177.59567      298.45979     -0.33178005     0.0020988515 
   1770000   15.006246      131.30043      146.30668      266.96105      0.061148119    0.0020988515 
   1780000   5.5033622      161.42533      166.92869      328.21123      0.082344483    0.0020988515 
   1790000   14.128297      160.3002       174.4285       325.92361     -0.096976962    0.0020988515 
   1800000   25.110023      150.75467      175.8647       306.51557      0.18901362     0.0020988515 
   1810000   11.433017      144.28602      155.71904      293.36345     -0.049743516    0.0020988515 
   1820000   3.4273329      133.54999      136.97733      271.53488      0.16018383     0.0020988515 
   1830000   7.0408614      138.84327      145.88413      282.29721      0.036616524    0.0020988515 
   1840000   22.659236      149.61035      172.26959      304.18892     -0.19372308     0.0020988515 
   1850000   24.287298      153.58115      177.86844      312.26237     -0.19271244     0.0020988515 
   1860000   10.904806      159.98916      170.89397      325.2912      -0.035423974    0.0020988515 
   1870000   24.736346      150.06854      174.80489      305.12052      0.1415927      0.0020988515 
   1880000   28.81981       151.96107      180.78088      308.96843     -0.17666426     0.0020988515 
   1890000   16.275558      155.65349      171.92905      316.47588     -0.04701281     0.0020988515 
   1900000   14.549226      156.67198      171.2212       318.54668      0.28358867     0.0020988515 
   1910000   6.4025228      146.05708      152.4596       296.96438     -0.28492426     0.0020988515 
   1920000   18.463983      148.71401      167.17799      302.36648      0.0060604475   0.0020988515 
   1930000   8.9816775      153.16647      162.14815      311.41926      0.14009293     0.0020988515 
   1940000   13.894249      145.29183      159.18607      295.40846     -0.11072085     0.0020988515 
   1950000   12.718113      141.92131      154.63942      288.5555      -0.042265845    0.0020988515 
   1960000   23.11352       159.62287      182.73639      324.54645     -0.11879909     0.0020988515 
   1970000   31.868899      141.64545      173.51434      287.99462     -0.055794198    0.0020988515 
   1980000   4.3199528      128.87014      133.19009      262.01977      0.077923509    0.0020988515 
   1990000   8.6020319      141.26117      149.8632       287.2133       0.2331843      0.0020988515 
   2000000   3.4682389      142.97233      146.44057      290.69245      0.14991725     0.0020988515 
   2010000   36.037285      130.01146      166.04874      264.3403      -0.064048408    0.0020988515 
   2020000   24.813467      141.54925      166.36272      287.79904      0.07359034     0.0020988515 
   2030000   9.7544295      146.67258      156.42701      298.21583      0.17694978     0.0020988515 
   2040000   15.191452      153.52404      168.71549      312.14626     -0.099547353    0.0020988515 
   2050000   37.031987      146.76076      183.79275      298.39512      0.042678726    0.0020988515 
   2060000   32.433447      146.11786      178.55131      297.08797     -0.09046843     0.0020988515 
   2070000   28.48234       139.76639      168.24873      284.17411     -0.019287092    0.0020988515 
   2080000   11.099495      156.71848      167.81798      318.64123     -0.026845519    0.0020988515 
   2090000   32.645973      150.96221      183.60819      306.93754      0.042013814    0.0020988515 
   2100000   44.50618       138.41842      182.9246       281.4334      -0.00034288029  0.0020988515 
   2110000   36.075123      156.41711      192.49224      318.02849      0.092268799    0.0020988515 
   2120000   25.31527       153.74035      179.05562      312.58607     -0.056197175    0.0020988515 
   2130000   42.981871      137.93717      180.91904      280.45492     -0.18250967     0.0020988515 
   2140000   55.737947      140.34693      196.08487      285.35446      0.098647393    0.0020988515 
   2150000   22.391854      143.77891      166.17076      292.33239     -0.31368439     0.0020988515 
   2160000   42.98192       149.94677      192.92869      304.87294      0.025592259    0.0020988515 
   2170000   19.69173       160.43103      180.12276      326.1896      -0.45173031     0.0020988515 
   2180000   32.675842      141.61034      174.28619      287.92324     -0.27839237     0.0020988515 
   2190000   36.341544      161.39506      197.73661      328.14969      0.34186244     0.0020988515 
   2200000   28.845318      140.23681      169.08212      285.13056     -0.021353655    0.0020988515 
   2210000   36.487074      143.09956      179.58663      290.95113     -0.18688334     0.0020988515 
   2220000   28.095691      134.86922      162.96491      274.21714      0.071534713    0.0020988515 
   2230000   34.970585      154.91009      189.88068      314.9644      -0.29100772     0.0020988515 
   2240000   45.414472      152.26899      197.68346      309.59449     -0.042103882    0.0020988515 
   2250000   27.755068      165.31159      193.06666      336.1128       0.2330623      0.0020988515 
   2260000   33.099853      146.96354      180.06339      298.8074       0.29994785     0.0020988515 
   2270000   30.246782      142.69672      172.9435       290.13208      0.050212587    0.0020988515 
   2280000   29.334801      161.15318      190.48798      327.65789     -0.087580337    0.0020988515 
   2290000   34.43816       143.83036      178.26852      292.437       -0.19062827     0.0020988515 
   2300000   23.79455       142.79206      166.58661      290.32592     -0.012408411    0.0020988515 
   2310000   30.131389      136.9076       167.03899      278.36159     -0.087683504    0.0020988515 
   2320000   26.209719      143.71096      169.92068      292.19424     -0.29398315     0.0020988515 
   2330000   20.751579      165.68693      186.43851      336.87595     -0.0470311      0.0020988515 
   2340000   20.171786      155.91099      176.08278      316.99944     -0.060125903    0.0020988515 
   2350000   27.099709      142.52047      169.62018      289.77372      0.064586701    0.0020988515 
   2360000   35.681173      154.19769      189.87886      313.51593     -0.12007584     0.0020988515 
   2370000   36.736113      163.60208      200.33819      332.63701      0.22811289     0.0020988515 
   2380000   34.773228      149.87548      184.64871      304.72799     -0.03911519     0.0020988515 
   2390000   29.052685      145.73913      174.79181      296.31793     -0.1867369      0.0020988515 
   2400000   26.969364      133.67662      160.64599      271.79234     -0.30333056     0.0020988515 
   2410000   57.414952      160.89149      218.30644      327.12582      0.24526362     0.0020988515 
   2420000   42.262855      146.49135      188.75421      297.84735     -0.0084865089   0.0020988515 
   2430000   21.962324      141.25496      163.21728      287.20067      0.21075028     0.0020988515 
   2440000   34.561125      139.8411       174.40222      284.326        0.0097192776   0.0020988515 
   2450000   27.55359       160.39564      187.94923      326.11766      0.059051862    0.0020988515 
   2460000   32.356411      155.79256      188.14898      316.75865      0.021286257    0.0020988515 
   2470000   34.216826      151.14813      185.36496      307.31555      0.32324685     0.0020988515 
   2480000   31.442784      137.97004      169.41283      280.52176     -0.17066875     0.0020988515 
   2490000   24.122037      141.31025      165.43229      287.3131       0.25432484     0.0020988515 
   2500000   42.848015      154.35785      197.20586      313.84157     -0.03307424     0.0020988515 
   2510000   37.351475      166.04373      203.3952       337.60139     -0.01746062     0.0020988515 
   2520000   29.764156      139.30442      169.06857      283.23482      0.04583402     0.0020988515 
   2530000   22.99934       151.10443      174.10377      307.22669      0.022921525    0.0020988515 
   2540000   35.342476      143.9695       179.31198      292.71991     -0.14560397     0.0020988515 
   2550000   37.08733       143.85237      180.9397       292.48176     -0.27189148     0.0020988515 
   2560000   34.905478      151.79288      186.69836      308.62646     -0.048461946    0.0020988515 
   2570000   11.896001      131.07226      142.96826      266.49712      0.16750247     0.0020988515 
   2580000   36.765717      147.63678      184.40249      300.17624      0.085062843    0.0020988515 
   2590000   38.604091      135.43015      174.03424      275.35762     -0.063001038    0.0020988515 
   2600000   50.085692      131.4423       181.52799      267.24949     -0.20133824     0.0020988515 
   2610000   58.666121      147.52365      206.18977      299.94623     -0.13795073     0.0020988515 
   2620000   23.02755       136.1283       159.15585      276.77712     -0.091868581    0.0020988515 
   2630000   40.394895      146.46783      186.86272      297.79952     -0.018048816    0.0020988515 
   2640000   26.566562      136.51352      163.08009      277.56035     -0.13005397     0.0020988515 
   2650000   33.313763      153.62648      186.94024      312.35454      0.14903724     0.0020988515 
   2660000   33.551062      146.58962      180.14068      298.04715      0.060356304    0.0020988515 
   2670000   26.202604      142.6178       168.8204       289.97161      0.057852816    0.0020988515 
   2680000   23.273659      131.65664      154.9303       267.68529     -0.032927564    0.0020988515 
   2690000   19.470861      134.45079      153.92165      273.36639     -0.051934651    0.0020988515 
   2700000   9.3463732      152.55239      161.89877      310.17071     -0.21400706     0.0020988515 
   2710000   22.879505      158.36755      181.24705      321.99412      0.16628225     0.0020988515 
   2720000   21.090493      155.6067       176.69719      316.38075      0.00211762     0.0020988515 
   2730000   6.5965773      122.6942       129.29078      249.4628      -0.14206561     0.0020988515 
   2740000   17.823023      140.12658      157.9496       284.90645      0.21302588     0.0020988515 
   2750000   34.331756      157.27426      191.60602      319.77125     -0.016941044    0.0020988515 
   2760000   18.885512      136.91315      155.79866      278.37287     -0.12255318     0.0020988515 
   2770000   28.814532      148.60053      177.41506      302.13574     -0.044747854    0.0020988515 
   2780000   26.933383      151.80593      178.73931      308.65299      0.040919777    0.0020988515 
   2790000   25.291747      136.67959      161.97134      277.898        0.015418069    0.0020988515 
   2800000   38.161225      143.9842       182.14542      292.74979     -0.068798626    0.0020988515 
   2810000   23.820052      150.67159      174.49164      306.34664      0.017688452    0.0020988515 
   2820000   21.0727        150.57318      171.64588      306.14655     -0.19046608     0.0020988515 
   2830000   23.02689       147.81319      170.84008      300.53492      0.2554183      0.0020988515 
   2840000   30.082656      165.50159      195.58425      336.49912     -0.36412369     0.0020988515 
   2850000   36.966827      142.93916      179.90598      290.625       -0.033953352    0.0020988515 
   2860000   23.632379      143.62982      167.2622       292.02926     -0.065441729    0.0020988515 
   2870000   38.109589      149.97645      188.08604      304.93327      0.31479545     0.0020988515 
   2880000   9.0235552      145.98314      155.00669      296.81404      0.1614701      0.0020988515 
   2890000   26.769472      152.03594      178.80542      309.12066     -0.19349026     0.0020988515 
   2900000   22.262622      147.82805      170.09067      300.56513     -0.24252974     0.0020988515 
   2910000   40.817983      145.09182      185.9098       295.00181      0.16483806     0.0020988515 
   2920000   18.92102       150.72615      169.64717      306.45757     -0.12986638     0.0020988515 
   2930000   39.726594      156.09297      195.81957      317.36944      0.061394431    0.0020988515 
   2940000   4.8435529      164.42967      169.27322      334.31967     -0.0059175458   0.0020988515 
   2950000   45.699943      153.15595      198.8559       311.39787     -0.02330399     0.0020988515 
   2960000   28.731873      145.87165      174.60352      296.58737     -0.077031317    0.0020988515 
   2970000   17.236386      135.1317       152.36809      274.75082      0.068151475    0.0020988515 
   2980000   21.859644      164.2571       186.11674      333.9688       0.21086039     0.0020988515 
   2990000   11.029151      153.59545      164.6246       312.29146     -0.045123133    0.0020988515 
   3000000   13.918295      145.75684      159.67514      296.35395     -0.039877493    0.0020988515 
   3010000   28.137248      137.38631      165.52356      279.33492     -0.22869168     0.0020988515 
   3020000   16.194603      154.32268      170.51729      313.77008      0.13701932     0.0020988515 
   3030000   18.76207       147.38405      166.14612      299.66238      0.16294099     0.0020988515 
   3040000   32.153412      128.91889      161.0723       262.11889     -0.11758214     0.0020988515 
   3050000   22.322921      160.06442      182.38735      325.44423      0.13226097     0.0020988515 
   3060000   5.479586       151.30584      156.78542      307.6362       0.039744705    0.0020988515 
   3070000   28.688452      144.12591      172.81436      293.03791     -0.18345064     0.0020988515 
   3080000   18.816902      153.92577      172.74268      312.96308      0.064700591    0.0020988515 
   3090000   32.865569      151.57035      184.43592      308.17402      0.045799018    0.0020988515 
   3100000   8.514506       160.22884      168.74334      325.77851      0.2010073      0.0020988515 
   3110000   31.344963      125.69789      157.04285      255.56993     -0.10315563     0.0020988515 
   3120000   39.084887      150.95568      190.04057      306.92426     -0.12184006     0.0020988515 
   3130000   28.622908      143.1055       171.7284       290.9632      -0.17214182     0.0020988515 
   3140000   26.484262      136.52537      163.00964      277.58445      0.080678383    0.0020988515 
   3150000   40.551767      163.05626      203.60803      331.52726      0.19334704     0.0020988515 
   3160000   20.56719       135.5037       156.07089      275.50718     -0.12141786     0.0020988515 
   3170000   37.637399      139.35594      176.99334      283.33957     -0.12981807     0.0020988515 
   3180000   31.085521      124.94399      156.02951      254.03709     -0.087363013    0.0020988515 
   3190000   27.445055      148.71303      176.15809      302.36449      0.03874446     0.0020988515 
   3200000   31.655965      145.35867      177.01464      295.54438      0.17938191     0.0020988515 
   3210000   38.83769       154.20636      193.04405      313.53356     -0.1147784      0.0020988515 
   3220000   26.599697      151.11843      177.71813      307.25516      0.078372496    0.0020988515 
   3230000   51.876811      149.67429      201.5511       304.31892     -0.146536       0.0020988515 
   3240000   41.791152      133.85839      175.64955      272.16192      0.025275911    0.0020988515 
   3250000   17.967095      144.64749      162.61459      294.0984      -0.067370919    0.0020988515 
   3260000   34.764104      137.39948      172.16358      279.36168     -0.02174475     0.0020988515 
   3270000   29.896577      141.99046      171.88704      288.6961      -0.1130634      0.0020988515 
   3280000   10.339347      145.5256       155.86494      295.88377     -0.10238282     0.0020988515 
   3290000   10.383688      145.1541       155.53779      295.12845     -0.20194318     0.0020988515 
   3300000   31.252104      142.28862      173.54073      289.30233     -0.14949036     0.0020988515 
   3310000   24.711716      167.81058      192.52229      341.19377      0.09231595     0.0020988515 
   3320000   10.918686      152.62702      163.5457       310.32243      0.1473337      0.0020988515 
   3330000   29.886895      174.01798      203.90488      353.81471     -0.014235979    0.0020988515 
   3340000   32.897956      142.62512      175.52308      289.9865      -0.14902677     0.0020988515 
   3350000   36.540427      149.21615      185.75658      303.38744     -0.12449116     0.0020988515 
   3360000   29.090312      150.60327      179.69359      306.20774     -0.0078384757   0.0020988515 
   3370000   46.845002      147.52609      194.37109      299.95118     -0.085229344    0.0020988515 
   3380000   11.635975      147.96644      159.60242      300.84652     -0.1475843      0.0020988515 
   3390000   35.81445       155.22111      191.03556      315.59677     -0.0097053537   0.0020988515 
   3400000   29.240659      142.54954      171.79019      289.83282     -0.064389494    0.0020988515 
   3410000   33.144017      157.15923      190.30325      319.53736      0.029465932    0.0020988515 
   3420000   24.911013      149.55935      174.47036      304.08522      0.31411169     0.0020988515 
   3430000   26.4415        149.9596       176.4011       304.89903      0.084770334    0.0020988515 
   3440000   4.4600212      150.24488      154.7049       305.47905      0.12512553     0.0020988515 
   3450000   37.437846      156.0955       193.53335      317.37458     -0.52161083     0.0020988515 
   3460000   23.648421      132.62189      156.27031      269.64785     -0.022053986    0.0020988515 
   3470000   13.622534      148.35074      161.97327      301.62787      0.077495044    0.0020988515 
   3480000   40.437212      141.79774      182.23495      288.30425     -0.12173148     0.0020988515 
   3490000   30.406453      149.26831      179.67476      303.49348     -0.19346621     0.0020988515 
   3500000   17.674951      151.08747      168.76242      307.19221     -0.023886233    0.0020988515 
   3510000   24.235533      152.8654       177.10094      310.80712      0.013219189    0.0020988515 
   3520000   25.817203      151.15199      176.9692       307.3234       0.095874643    0.0020988515 
   3530000   31.262319      141.43951      172.70183      287.57592     -0.095368274    0.0020988515 
   3540000   31.39032       144.84486      176.23518      294.49968      0.2085597      0.0020988515 
   3550000   37.874377      132.9976       170.87198      270.41175     -0.07832446     0.0020988515 
   3560000   33.433615      148.81715      182.25077      302.57619     -0.15738283     0.0020988515 
   3570000   15.070255      152.10055      167.1708       309.25201      0.13598448     0.0020988515 
   3580000   38.741912      147.68129      186.4232       300.26674     -0.10234942     0.0020988515 
   3590000   20.964327      147.82339      168.78772      300.55566      0.032183691    0.0020988515 
   3600000   29.919331      156.24115      186.16048      317.67071      0.25368972     0.0020988515 
   3610000   31.163778      151.82076      182.98454      308.68315      0.13970674     0.0020988515 
   3620000   25.57089       140.78854      166.35943      286.25236     -0.34773192     0.0020988515 
   3630000   28.019892      124.05155      152.07144      252.22257      0.023272276    0.0020988515 
   3640000   28.078836      119.95624      148.03508      243.89596      0.10155517     0.0020988515 
   3650000   23.949461      161.38297      185.33243      328.1251      -0.14444419     0.0020988515 
   3660000   13.558225      132.89898      146.4572       270.21123     -0.1684068      0.0020988515 
   3670000   37.563095      160.05968      197.62278      325.43459      0.20314513     0.0020988515 
   3680000   1.020556       169.82005      170.84061      345.27945      0.20952699     0.0020988515 
   3690000   13.719004      144.10589      157.82489      292.99721     -0.081663193    0.0020988515 
   3700000   19.404125      142.06277      161.4669       288.84313     -0.18603726     0.0020988515 
   3710000   31.163605      159.06848      190.23208      323.41926     -0.1311271      0.0020988515 
   3720000   27.874569      133.52062      161.39519      271.47516      0.023399812    0.0020988515 
   3730000   15.044428      143.18965      158.23408      291.13431      0.026737965    0.0020988515 
   3740000   27.477667      144.75115      172.22882      294.30916      0.29985409     0.0020988515 
   3750000   31.062421      136.21728      167.2797       276.95802      0.10190487     0.0020988515 
   3760000   26.625872      156.18209      182.80796      317.55064     -0.1372201      0.0020988515 
   3770000   18.721871      134.5572       153.27907      273.58274     -0.066083169    0.0020988515 
   3780000   21.162539      128.80413      149.96667      261.88556      0.22772869     0.0020988515 
   3790000   27.114292      155.82329      182.93758      316.82112     -0.10680092     0.0020988515 
   3800000   30.640564      142.08269      172.72325      288.88362      0.17507431     0.0020988515 
   3810000   35.46111       135.04849      170.5096       274.58164     -0.10493774     0.0020988515 
   3820000   7.0269464      138.43929      145.46623      281.47583      0.25663511     0.0020988515 
   3830000   25.462238      144.35746      169.8197       293.50871      0.17388063     0.0020988515 
   3840000   31.706558      150.53812      182.24468      306.07527     -0.12251525     0.0020988515 
   3850000   22.554748      155.69815      178.2529       316.56669      0.091189325    0.0020988515 
   3860000   36.213823      148.31472      184.52854      301.55463      0.011549499    0.0020988515 
   3870000   16.895084      138.2057       155.10079      281.00091     -0.18481546     0.0020988515 
   3880000   15.679883      141.99024      157.67013      288.69566      0.31001089     0.0020988515 
   3890000   14.707526      142.44808      157.15561      289.62655      0.055565202    0.0020988515 
   3900000   14.265862      166.09889      180.36476      337.71356     -0.29218974     0.0020988515 
   3910000   18.748296      154.15199      172.90029      313.42302     -0.17991063     0.0020988515 
   3920000   22.49213       137.40432      159.89645      279.37153     -0.11532955     0.0020988515 
   3930000   39.440735      152.73284      192.17357      310.53759     -0.076812624    0.0020988515 
   3940000   7.8472521      169.09525      176.9425       343.80577      0.0074127236   0.0020988515 
   3950000   28.483655      137.85253      166.33618      280.28283      0.053463865    0.0020988515 
   3960000   17.896774      151.26736      169.16413      307.55796     -0.053423769    0.0020988515 
   3970000   17.919247      136.49542      154.41466      277.52354     -0.21990224     0.0020988515 
   3980000   22.191233      151.2434       173.43463      307.50925     -0.032648023    0.0020988515 
   3990000   19.398513      142.40076      161.79928      289.53033     -0.18361356     0.0020988515 
   4000000   11.70377       157.84065      169.54442      320.92283      0.17573473     0.0020988515 
   4010000   7.4947107      163.13859      170.6333       331.69464     -0.0031044303   0.0020988515 
   4020000   31.941789      145.30913      177.25092      295.44365      0.029401639    0.0020988515 
   4030000   15.536631      143.12962      158.66625      291.01225      0.19287955     0.0020988515 
   4040000   21.683973      148.22102      169.90499      301.36412     -0.0741884      0.0020988515 
   4050000  -0.68714599     148.46117      147.77402      301.85239      0.23154887     0.0020988515 
   4060000   26.37573       155.79617      182.1719       316.76598      0.014853306    0.0020988515 
   4070000   15.669878      133.26987      148.93974      270.96532     -0.072325809    0.0020988515 
   4080000   27.303602      154.38221      181.68581      313.8911       0.26334245     0.0020988515 
   4090000   6.0678574      144.2835       150.35136      293.35833     -0.14681281     0.0020988515 
   4100000   13.218421      138.62117      151.83959      281.84564      0.0020006259   0.0020988515 
   4110000   35.925673      144.03578      179.96145      292.85465      0.36058499     0.0020988515 
   4120000   2.4601844      149.46369      151.92388      303.89074      0.3241028      0.0020988515 
   4130000   23.401146      130.75608      154.15722      265.85427      0.16071593     0.0020988515 
   4140000  -2.2238159      154.79384      152.57002      314.72803     -0.0072119577   0.0020988515 
   4150000   21.746837      141.30022      163.04706      287.2927       0.0014810853   0.0020988515 
   4160000   25.510605      158.02069      183.5313       321.2889      -0.012828839    0.0020988515 
   4170000   19.95653       152.66899      172.62552      310.40777      0.20406208     0.0020988515 
   4180000   15.779268      147.60542      163.38469      300.11248     -0.041551775    0.0020988515 
   4190000   14.055048      140.70566      154.76071      286.08384     -0.020067471    0.0020988515 
   4200000   10.3014        150.93844      161.23984      306.8892      -0.023939308    0.0020988515 
   4210000   4.1841739      140.43535      144.61952      285.53423     -0.12884179     0.0020988515 
   4220000   27.248272      146.29203      173.54031      297.4421      -0.0015906912   0.0020988515 
   4230000   11.979788      151.53578      163.51556      308.10371      0.16317839     0.0020988515 
   4240000   2.9767527      151.61189      154.58864      308.25847      0.14890032     0.0020988515 
   4250000   30.651273      149.3431       179.99438      303.64555     -0.023977217    0.0020988515 
   4260000   18.635258      139.5887       158.22396      283.81283      0.30088263     0.0020988515 
   4270000   34.605974      143.58629      178.19227      291.94076     -0.0076921097   0.0020988515 
   4280000   49.046737      156.4262       205.47294      318.04697     -0.18129682     0.0020988515 
   4290000   46.318838      152.15801      198.47684      309.36883     -0.26559188     0.0020988515 
   4300000   46.373633      146.0541       192.42773      296.95832      0.024560461    0.0020988515 
   4310000   48.61612       154.83644      203.45256      314.81465      0.031343064    0.0020988515 
   4320000   37.357503      137.91026      175.26776      280.40021      0.045976077    0.0020988515 
   4330000   44.070245      134.90231      178.97255      274.28442     -0.32527665     0.0020988515 
   4340000   19.340018      141.96336      161.30338      288.64101      0.085366532    0.0020988515 
   4350000   39.149967      132.54799      171.69795      269.4976      -0.097527222    0.0020988515 
   4360000   38.434899      159.30927      197.74417      323.90885     -0.047432127    0.0020988515 
   4370000   38.062875      137.91752      175.9804       280.41498      0.16323198     0.0020988515 
   4380000   37.821942      156.94573      194.76767      319.10327     -0.23520709     0.0020988515 
   4390000   50.966977      137.13851      188.10549      278.83109     -0.15497835     0.0020988515 
   4400000   40.459222      163.3124       203.77162      332.04804      0.15765972     0.0020988515 
   4410000   37.372207      157.80845      195.18066      320.85737     -0.076421877    0.0020988515 
   4420000   36.922548      151.4279       188.35045      307.88438      0.45532217     0.0020988515 
   4430000   23.949683      147.46734      171.41702      299.83173     -0.28369718     0.0020988515 
   4440000   31.058421      161.56738      192.6258       328.50004      0.028785609    0.0020988515 
   4450000   16.741389      147.80877      164.55016      300.52594      0.15691325     0.0020988515 
   4460000   26.476129      165.92823      192.40436      337.36656     -0.2752455      0.0020988515 
   4470000   20.523294      142.2763       162.79959      289.27727      0.20643019     0.0020988515 
   4480000   18.722274      157.02127      175.74355      319.25687      0.16233421     0.0020988515 
   4490000   24.829809      138.22027      163.05008      281.03053      0.095186076    0.0020988515 
   4500000   30.970894      159.45623      190.42713      324.20765      0.027128455    0.0020988515 
   4510000   29.605072      155.60587      185.21095      316.37907      0.3234234      0.0020988515 
   4520000   28.116963      142.42493      170.5419       289.57947      0.076178926    0.0020988515 
   4530000   18.074734      141.42896      159.5037       287.55446     -0.048350897    0.0020988515 
   4540000   41.840588      148.78436      190.62495      302.50951     -0.094244175    0.0020988515 
   4550000   33.116681      152.93266      186.04934      310.94386     -0.08166366     0.0020988515 
   4560000   32.734005      142.52881      175.26281      289.79068      0.26037666     0.0020988515 
   4570000   38.102769      162.45425      200.55702      330.30325     -0.089443522    0.0020988515 
   4580000   30.450342      145.58905      176.03939      296.01278      0.075689459    0.0020988515 
   4590000   40.427166      158.20461      198.63177      321.66283     -0.30242255     0.0020988515 
   4600000   28.132098      158.2079       186.34         321.66952      0.29189577     0.0020988515 
   4610000   25.777978      133.22287      159.00084      270.86976     -0.30094004     0.0020988515 
   4620000   31.875556      133.40274      165.2783       271.23549     -0.16258688     0.0020988515 
   4630000   29.509249      136.93863      166.44788      278.42469      0.037773967    0.0020988515 
   4640000   23.142879      161.33862      184.4815       328.03493     -0.058834977    0.0020988515 
   4650000   28.579477      153.76176      182.34123      312.6296       0.071343595    0.0020988515 
   4660000   44.939703      150.41812      195.35782      305.83128      0.14365792     0.0020988515 
   4670000   42.874851      142.87922      185.75407      290.50313      0.1684636      0.0020988515 
   4680000   33.580429      139.3353       172.91572      283.2976      -0.25548185     0.0020988515 
   4690000   48.515988      151.98586      200.50184      309.01882      0.041111008    0.0020988515 
   4700000   36.686063      164.73544      201.4215       334.94137      0.2384246      0.0020988515 
   4710000   24.354583      142.79255      167.14713      290.32691      0.10146266     0.0020988515 
   4720000   39.351212      151.42987      190.78108      307.88839      0.096906256    0.0020988515 
   4730000   31.696145      140.28428      171.98043      285.22709      0.060826437    0.0020988515 
   4740000   31.94796       137.846        169.79396      280.26955     -0.1638993      0.0020988515 
   4750000   25.393522      146.04555      171.43908      296.94095      0.041914243    0.0020988515 
   4760000   42.613105      144.32456      186.93766      293.44181     -0.011655379    0.0020988515 
   4770000   32.020202      144.97926      176.99946      294.77296     -0.17622279     0.0020988515 
   4780000   39.005157      145.13387      184.13902      295.0873       0.11751971     0.0020988515 
   4790000   41.728427      152.36139      194.08982      309.78235      0.16787139     0.0020988515 
   4800000   44.379868      129.12682      173.50669      262.54165     -0.15050514     0.0020988515 
   4810000   36.765566      130.63491      167.40047      265.6079       0.17462425     0.0020988515 
   4820000   27.009484      163.45668      190.46617      332.34139      0.016441132    0.0020988515 
   4830000   35.751082      153.65476      189.40584      312.41205      0.15893767     0.0020988515 
   4840000   35.516469      155.20676      190.72323      315.56759     -0.29369414     0.0020988515 
   4850000   25.130141      142.94232      168.07246      290.63143     -0.011169052    0.0020988515 
   4860000   34.924681      149.11953      184.04421      303.19098      0.076720069    0.0020988515 
   4870000   21.827275      147.45913      169.28641      299.81505     -0.00091898217  0.0020988515 
   4880000   43.111679      139.98432      183.096        284.6172      -0.34163775     0.0020988515 
   4890000   21.398951      147.44461      168.84356      299.78552     -0.22064599     0.0020988515 
   4900000   17.463422      164.04264      181.50607      333.53277     -0.071017437    0.0020988515 
   4910000   13.879136      153.19833      167.07747      311.48403     -0.17338634     0.0020988515 
   4920000   19.350076      155.98642      175.3365       317.1528       0.19802314     0.0020988515 
   4930000   18.155691      160.74359      178.89928      326.82511      0.19514253     0.0020988515 
   4940000   20.510594      131.96127      152.47186      268.30468     -0.14618655     0.0020988515 
   4950000   36.468152      152.68113      189.14928      310.43246      0.0098977756   0.0020988515 
   4960000   20.323054      145.95605      166.27911      296.75897      0.11620828     0.0020988515 
   4970000   21.257348      145.07016      166.32751      294.95777      0.06039997     0.0020988515 
   4980000   46.495972      150.94496      197.44094      306.90247     -0.21517466     0.0020988515 
   4990000   20.708833      137.71815      158.42698      280.0096      -0.0014270392   0.0020988515 
   5000000   26.72821       143.57708      170.30529      291.92204      0.13070102     0.0020988515 
Loop time of 305.889 on 4 procs for 5000000 steps with 166 atoms

Performance: 14122.748 ns/day, 0.002 hours/ns, 16345.773 timesteps/s, 2.713 Matom-step/s
99.7% CPU use with 4 MPI tasks x 1 OpenMP threads

MPI task timing breakdown:
Section |  min time  |  avg time  |  max time  |%varavg| %total
---------------------------------------------------------------
Pair    | 30.797     | 93.291     | 239.98     | 882.3 | 30.50
Bond    | 5.657      | 13.059     | 23.602     | 201.6 |  4.27
Neigh   | 0.40333    | 0.41268    | 0.42027    |   1.0 |  0.13
Comm    | 29.361     | 190.64     | 261.4      | 681.8 | 62.32
Output  | 0.038132   | 0.054424   | 0.10254    |  11.9 |  0.02
Modify  | 3.7499     | 6.4971     | 10.943     | 113.9 |  2.12
Other   |            | 1.934      |            |       |  0.63

Nlocal:           41.5 ave          63 max          10 min
Histogram: 1 0 0 0 1 0 0 0 1 1
Nghost:          66.75 ave          87 max          53 min
Histogram: 2 0 0 0 0 1 0 0 0 1
Neighs:         178.25 ave         404 max          53 min
Histogram: 2 0 0 1 0 0 0 0 0 1

Total # of neighbors = 713
Ave neighs/atom = 4.2951807
Ave special neighs/atom = 5.2048193
Neighbor list builds = 7235
Dangerous builds = 0
Generated 0 of 6 mixed pair_coeff terms from geometric mixing rule
Setting up Verlet run ...
  Unit style    : real
  Current step  : 5000000
  Time step     : 10
Per MPI rank memory allocation (min/avg/max) = 8.578 | 8.713 | 8.847 Mbytes
   Step         PotEng         KinEng         TotEng          Temp          Press         Density    
   5000000   26.72821       143.57708      170.30529      291.92204      0.13070102     0.0020988515 
   5010000   30.147366      151.07656      181.22392      307.17003     -0.11225362     0.0020988515 
   5020000   26.963921      154.98984      181.95376      315.12654     -0.24776393     0.0020988515 
   5030000   30.532813      160.93228      191.4651       327.20876      0.20839329     0.0020988515 
   5040000   22.748423      146.1114       168.85982      297.07483     -0.1484938      0.0020988515 
   5050000   40.71079       145.05121      185.762        294.91925      0.075323337    0.0020988515 
   5060000   32.895893      150.25683      183.15273      305.50336      0.10608266     0.0020988515 
   5070000   32.647861      140.96219      173.61005      286.60541     -0.071067441    0.0020988515 
   5080000   24.030918      149.87135      173.90227      304.71959     -0.25007863     0.0020988515 
   5090000   16.248294      135.31036      151.55865      275.11407      0.10346994     0.0020988515 
   5100000   11.16835       139.43249      150.60084      283.49522     -0.0031898972   0.0020988515 
   5110000   15.739458      131.59539      147.33484      267.56076      0.14136255     0.0020988515 
   5120000   35.989957      161.27311      197.26307      327.90174      0.034905214    0.0020988515 
   5130000   26.604108      156.19524      182.79934      317.57736      0.13540946     0.0020988515 
   5140000   31.626805      135.48165      167.10846      275.46234      0.10866666     0.0020988515 
   5150000   30.753593      151.03576      181.78936      307.08708     -0.079213148    0.0020988515 
   5160000   21.906897      134.54816      156.45505      273.56435     -0.04582961     0.0020988515 
   5170000   14.201519      149.2118       163.41332      303.37859     -0.12354839     0.0020988515 
   5180000   40.860931      162.28085      203.14178      329.95068     -0.040122276    0.0020988515 
   5190000   38.884747      141.58899      180.47374      287.87983      0.19946224     0.0020988515 
   5200000   34.418794      157.13001      191.54881      319.47795      0.051974412    0.0020988515 
   5210000   20.59039       150.69799      171.28838      306.40032      0.086498676    0.0020988515 
   5220000   30.870051      129.51214      160.38219      263.32509     -0.11962392     0.0020988515 
   5230000   41.98585       147.21594      189.20179      299.32059      0.0670841      0.0020988515 
   5240000   24.799781      143.974        168.77378      292.72906      0.053119223    0.0020988515 
   5250000   19.930872      134.49432      154.4252       273.4549       0.1597951      0.0020988515 
   5260000   41.269013      147.81625      189.08526      300.54114     -0.15653348     0.0020988515 
   5270000   35.722735      154.03972      189.76245      313.19474     -0.041510254    0.0020988515 
   5280000   13.850522      138.18869      152.03922      280.96632      0.18885078     0.0020988515 
   5290000   29.695579      158.26133      187.95691      321.77816     -0.1661034      0.0020988515 
   5300000   25.756073      156.16304      181.91911      317.51189      0.11430218     0.0020988515 
   5310000   22.065328      151.90349      173.96882      308.85135      0.0063407603   0.0020988515 
   5320000   23.186299      161.18166      184.36795      327.71579      0.28734061     0.0020988515 
   5330000   24.69614       157.4283       182.12444      320.08444     -0.14198493     0.0020988515 
   5340000   21.323909      154.04187      175.36578      313.19913     -0.048141675    0.0020988515 
   5350000   23.747507      155.78677      179.53428      316.74688     -0.043175433    0.0020988515 
   5360000   13.302967      151.3174       164.62037      307.65972      0.26297172     0.0020988515 
   5370000   23.797691      137.39025      161.18794      279.34292     -0.20050507     0.0020988515 
   5380000   34.003594      170.94683      204.95043      347.57042      0.054485776    0.0020988515 
   5390000   25.669196      139.61544      165.28463      283.86719     -0.075628276    0.0020988515 
   5400000   25.731858      123.43569      149.16755      250.97039     -0.16933399     0.0020988515 
   5410000   0.29674245     154.18164      154.47838      313.4833       0.094520494    0.0020988515 
   5420000   11.993613      137.60696      149.60058      279.78354      0.065164255    0.0020988515 
   5430000   34.71236       141.39593      176.10829      287.48729     -0.0012812771   0.0020988515 
   5440000   12.290084      134.57562      146.8657       273.62019     -0.052518674    0.0020988515 
   5450000   8.1098368      133.0005       141.11034      270.41765      0.045870723    0.0020988515 
   5460000   15.341781      152.0903       167.43208      309.23117      0.043806241    0.0020988515 
   5470000   24.331408      144.36733      168.69874      293.52878      0.020730758    0.0020988515 
   5480000   16.204389      140.59925      156.80364      285.86748      0.318997       0.0020988515 
   5490000   6.1787019      140.51607      146.69477      285.69836     -0.075197499    0.0020988515 
   5500000   35.313861      142.79349      178.10735      290.32884      0.039258591    0.0020988515 
   5510000   16.904428      147.03076      163.93519      298.94408     -0.22125376     0.0020988515 
   5520000   4.6963939      144.08609      148.78248      292.95695     -0.070915758    0.0020988515 
   5530000   24.513566      155.12414      179.63771      315.39961      0.0012409908   0.0020988515 
   5540000   17.842236      161.75035      179.59258      328.87206      0.033498838    0.0020988515 
   5550000   22.784245      125.7658       148.55005      255.708       -0.24046387     0.0020988515 
   5560000   8.03554        155.80532      163.84086      316.78458     -0.10528068     0.0020988515 
   5570000   16.255583      162.00444      178.26002      329.38867     -0.14853665     0.0020988515 
   5580000   22.87074       123.27062      146.14136      250.63477      0.042887703    0.0020988515 
   5590000   32.721078      157.04174      189.76282      319.29848      0.13689077     0.0020988515 
   5600000   16.315798      141.53681      157.85261      287.77374     -0.011727353    0.0020988515 
   5610000   13.414775      141.44484      154.85962      287.58675      0.1864908      0.0020988515 
   5620000   18.751911      145.54694      164.29885      295.92716      0.016338616    0.0020988515 
   5630000   15.779443      170.66326      186.4427       346.99386     -0.069165592    0.0020988515 
   5640000   26.171029      155.12522      181.29624      315.40179      0.048464174    0.0020988515 
   5650000   6.6098572      150.16776      156.77762      305.32225      0.012245962    0.0020988515 
   5660000   32.637305      147.14205      179.77935      299.17035     -0.041212871    0.0020988515 
   5670000   25.262007      156.69444      181.95644      318.59234     -0.022723363    0.0020988515 
   5680000   17.638321      149.87484      167.51316      304.72668     -0.059685065    0.0020988515 
   5690000   36.299177      142.5684       178.86758      289.87117      0.070343063    0.0020988515 
   5700000   30.595495      125.75064      156.34613      255.67717     -0.100733       0.0020988515 
   5710000   7.5076871      144.557        152.06469      293.91441      0.14439288     0.0020988515 
   5720000   15.151071      145.674        160.82507      296.1855      -0.063062118    0.0020988515 
   5730000   35.534801      129.79805      165.33285      263.90639      0.03217479     0.0020988515 
   5740000   31.038595      124.87359      155.91219      253.89396     -0.16053298     0.0020988515 
   5750000   37.579164      159.01777      196.59694      323.31617     -0.035620255    0.0020988515 
   5760000   34.102247      158.11276      192.21501      321.47609     -0.25224748     0.0020988515 
   5770000   10.284895      146.61935      156.90424      298.10759      0.049927977    0.0020988515 
   5780000   27.812668      150.62979      178.44246      306.26166     -0.080929419    0.0020988515 
   5790000   21.555676      154.59168      176.14736      314.317       -0.18662652     0.0020988515 
   5800000   25.843149      142.37585      168.219        289.47968      0.12810186     0.0020988515 
   5810000   30.722567      157.12566      187.84822      319.4691      -0.02383916     0.0020988515 
   5820000   35.555877      133.60593      169.16181      271.64862     -0.0091460596   0.0020988515 
   5830000   46.800373      142.91116      189.71153      290.56807     -0.12279713     0.0020988515 
   5840000   21.942727      147.12105      169.06378      299.12766      0.16883741     0.0020988515 
   5850000   14.48925       149.49957      163.98882      303.96367      0.26646372     0.0020988515 
   5860000   19.831159      126.80212      146.63327      257.81504      0.20449497     0.0020988515 
   5870000   18.312084      145.62147      163.93356      296.0787       0.084104795    0.0020988515 
   5880000   30.681205      148.6184       179.2996       302.17207     -0.11832426     0.0020988515 
   5890000   14.021064      147.2272       161.24826      299.34347      0.14736109     0.0020988515 
   5900000   13.120837      152.69435      165.81518      310.45933      0.15073957     0.0020988515 
   5910000   21.935166      134.20438      156.13955      272.86538     -0.23502887     0.0020988515 
   5920000   22.189305      140.20798      162.39728      285.07194     -0.035233058    0.0020988515 
   5930000   36.925853      148.9128       185.83865      302.77065     -0.18454521     0.0020988515 
   5940000   27.475514      146.34628      173.82179      297.55238     -0.054942352    0.0020988515 
   5950000   31.082808      154.30184      185.38464      313.72769      0.24140851     0.0020988515 
   5960000   29.201286      151.47196      180.67325      307.97396     -0.032116596    0.0020988515 
   5970000   37.710889      133.99591      171.70679      272.44151     -0.31162094     0.0020988515 
   5980000   43.627781      145.04451      188.67229      294.90562      0.0026853668   0.0020988515 
   5990000   30.345666      128.97111      159.31677      262.22505     -0.093778345    0.0020988515 
   6000000   33.291422      143.50417      176.79559      291.77379      0.071999376    0.0020988515 
   6010000   34.958792      135.62624      170.58503      275.75632     -0.021313005    0.0020988515 
   6020000   18.454909      154.12459      172.5795       313.3673      -0.10619867     0.0020988515 
   6030000   29.388292      155.3537       184.742        315.86635      0.068567789    0.0020988515 
   6040000   50.361811      140.13314      190.49495      284.91978     -0.18920404     0.0020988515 
   6050000   31.699073      144.83038      176.52945      294.47024      0.050122348    0.0020988515 
   6060000   40.862789      145.64801      186.5108       296.13267     -0.045734989    0.0020988515 
   6070000   25.001917      151.0166       176.01852      307.04812      0.23066094     0.0020988515 
   6080000   38.937774      140.13097      179.06875      284.91538      0.03950279     0.0020988515 
   6090000   35.692565      153.63595      189.32851      312.3738       0.079845147    0.0020988515 
   6100000   32.463385      163.00856      195.47195      331.43027      0.1201314      0.0020988515 
   6110000   31.773033      146.32898      178.10201      297.51721      0.24562114     0.0020988515 
   6120000   30.849643      142.61503      173.46468      289.96599     -0.22589239     0.0020988515 
   6130000   12.916548      143.32524      156.24178      291.40998     -0.032092174    0.0020988515 
   6140000   29.210433      148.77121      177.98165      302.48279      0.053542464    0.0020988515 
   6150000   12.307794      151.25646      163.56426      307.53581      0.091218008    0.0020988515 
   6160000   38.417556      145.83006      184.24762      296.5028       0.10069184     0.0020988515 
   6170000   25.504121      143.57243      169.07656      291.91258      0.12640591     0.0020988515 
   6180000   14.337757      143.79531      158.13307      292.36573     -0.08982897     0.0020988515 
   6190000   31.445358      159.16452      190.60988      323.61453      0.22810466     0.0020988515 
   6200000   23.958261      153.03706      176.99533      311.15614     -0.22584664     0.0020988515 
   6210000   40.339585      134.05628      174.39587      272.56427     -0.11493175     0.0020988515 
   6220000   8.296094       150.41297      158.70906      305.82081      0.17179533     0.0020988515 
   6230000   17.79597       143.07806      160.87403      290.90742      0.081029903    0.0020988515 
   6240000   14.12897       142.98467      157.11364      290.71754      0.17229097     0.0020988515 
   6250000   13.890108      142.3716       156.26171      289.47105     -0.20837146     0.0020988515 
   6260000   18.169425      143.62694      161.79637      292.02341      0.19490256     0.0020988515 
   6270000   40.29246       144.17552      184.46798      293.13879     -0.11113583     0.0020988515 
   6280000   33.244059      132.85048      166.09454      270.11263      0.15653772     0.0020988515 
   6290000   20.403763      151.53282      171.93659      308.09771      0.18135882     0.0020988515 
   6300000   33.351349      146.25999      179.61133      297.37693     -0.14707782     0.0020988515 
   6310000   31.633121      140.55357      172.18669      285.77461      0.24268657     0.0020988515 
   6320000   7.192091       141.97177      149.16386      288.6581      -0.06280397     0.0020988515 
   6330000   29.039478      149.55834      178.59782      304.08318      0.08558978     0.0020988515 
   6340000   18.829015      159.47967      178.30869      324.25531      0.15656006     0.0020988515 
   6350000   12.379815      158.78071      171.16052      322.83416      0.00078351795  0.0020988515 
   6360000   19.922717      143.37712      163.29983      291.51546     -0.0036430037   0.0020988515 
   6370000   32.714778      135.21645      167.93123      274.92313     -0.18309709     0.0020988515 
   6380000   18.79644       147.83904      166.63548      300.58747     -0.090647975    0.0020988515 
   6390000   18.571616      130.78947      149.36108      265.92215      0.057467734    0.0020988515 
   6400000   40.966528      149.14646      190.11298      303.24573     -0.14015819     0.0020988515 
   6410000   28.593465      136.44209      165.03556      277.41512      0.16755773     0.0020988515 
   6420000   28.096755      148.81001      176.90676      302.56166      0.088427121    0.0020988515 
   6430000   27.061832      143.74634      170.80817      292.26617     -0.2529765      0.0020988515 
   6440000   31.188842      149.31629      180.50513      303.59104      0.14587217     0.0020988515 
   6450000   27.981258      153.42051      181.40176      311.93576      0.060011696    0.0020988515 
   6460000   15.929077      141.22148      157.15055      287.1326       0.01205295     0.0020988515 
   6470000   6.0309857      142.82991      148.8609       290.40288     -0.11444867     0.0020988515 
   6480000   26.379266      131.22589      157.60516      266.80951     -0.12316473     0.0020988515 
   6490000   17.522038      144.29785      161.81989      293.38751      0.04781774     0.0020988515 
   6500000   5.376254       154.20745      159.5837       313.53578     -0.0074052794   0.0020988515 
   6510000  -1.5027367      136.28225      134.77951      277.09012     -0.073161061    0.0020988515 
   6520000   18.32721       143.13689      161.4641       291.02704     -0.078951163    0.0020988515 
   6530000   9.3804932      145.61058      154.99108      296.05656      0.055069609    0.0020988515 
   6540000   13.680872      149.586        163.26687      304.13941      0.098518052    0.0020988515 
   6550000   11.32067       138.99935      150.32002      282.61456      0.097941769    0.0020988515 
   6560000   17.545127      142.8526       160.39773      290.44901     -0.24629088     0.0020988515 
   6570000   28.723452      154.74283      183.46628      314.62432      0.035427762    0.0020988515 
   6580000   17.028649      165.61998      182.64863      336.73982     -0.10933316     0.0020988515 
   6590000   10.746042      163.45462      174.20066      332.33719     -0.076760233    0.0020988515 
   6600000   22.556415      162.08386      184.64028      329.55017      0.03135377     0.0020988515 
   6610000   10.698942      141.13563      151.83457      286.95806      0.081405881    0.0020988515 
   6620000   13.063375      153.04706      166.11043      311.17646     -0.050567719    0.0020988515 
   6630000   31.415592      140.42996      171.84555      285.52328     -0.097440498    0.0020988515 
   6640000   25.391121      145.02077      170.41189      294.85735     -0.40926107     0.0020988515 
   6650000   25.686256      162.56225      188.24851      330.52283     -0.025694922    0.0020988515 
   6660000   32.597917      151.36066      183.95858      307.74767      0.23694118     0.0020988515 
   6670000   23.165891      150.33809      173.50398      305.66857      0.14604462     0.0020988515 
   6680000   11.805845      164.18016      175.986        333.81237     -0.15658534     0.0020988515 
   6690000   7.5274614      149.47004      156.99751      303.90365      0.16168395     0.0020988515 
   6700000   21.490422      145.38935      166.87977      295.60675     -0.1708758      0.0020988515 
   6710000   20.918745      151.13355      172.05229      307.2859      -0.28826024     0.0020988515 
   6720000   32.687019      141.42467      174.11169      287.54574     -0.0069164465   0.0020988515 
   6730000   23.530927      134.97099      158.50191      274.42406     -0.0025257022   0.0020988515 
   6740000   20.801621      142.30652      163.10814      289.33871      0.070566758    0.0020988515 
   6750000   25.353531      146.45803      171.81156      297.77961      0.067135443    0.0020988515 
   6760000   26.099112      155.65621      181.75533      316.48142      0.29689721     0.0020988515 
   6770000   20.969421      124.11816      145.08759      252.35801      0.062341981    0.0020988515 
   6780000   20.929085      153.99176      174.92085      313.09725      0.095908321    0.0020988515 
   6790000   16.926723      144.06588      160.9926       292.91586      0.18717469     0.0020988515 
   6800000   20.024349      139.18853      159.21288      282.9992       0.15818756     0.0020988515 
   6810000   36.349787      133.15278      169.50257      270.72726     -0.017201879    0.0020988515 
   6820000   25.514577      153.89461      179.40918      312.8997       0.12430211     0.0020988515 
   6830000   20.750912      144.31662      165.06753      293.42566     -0.098519478    0.0020988515 
   6840000   38.608962      158.32114      196.9301       321.89977     -0.0095212484   0.0020988515 
   6850000   16.363625      141.26332      157.62694      287.21767     -0.19084371     0.0020988515 
   6860000   39.948375      146.43183      186.38021      297.72634      0.0086531089   0.0020988515 
   6870000   22.84829       143.13458      165.98287      291.02234     -0.036079185    0.0020988515 
   6880000   12.456806      157.57031      170.02712      320.37317     -0.30729363     0.0020988515 
   6890000   28.816954      152.31143      181.12838      309.68078      0.12502847     0.0020988515 
   6900000   16.908713      138.13354      155.04225      280.85418      0.32092816     0.0020988515 
   6910000   34.418127      144.19872      178.61684      293.18594      0.2476822      0.0020988515 
   6920000   18.544046      155.58561      174.12966      316.33787      0.025654672    0.0020988515 
   6930000   18.861186      156.90685      175.76804      319.02423      0.1500733      0.0020988515 
   6940000   32.677011      159.10618      191.78319      323.49592      0.049139176    0.0020988515 
   6950000   22.300026      146.64889      168.94891      298.16765     -0.02038098     0.0020988515 
   6960000   25.272124      144.65929      169.93141      294.12239      0.050920989    0.0020988515 
   6970000   19.006086      151.13609      170.14218      307.29107     -0.14108684     0.0020988515 
   6980000   18.4195        143.30359      161.72309      291.36597      0.22777483     0.0020988515 
   6990000   33.135792      143.82306      176.95886      292.42217      0.18174231     0.0020988515 
   7000000   20.567758      166.46437      187.03212      338.45664      0.19626964     0.0020988515 
   7010000   10.988681      157.07911      168.06779      319.37445      0.054831894    0.0020988515 
   7020000   0.1289994      145.34079      145.46979      295.50803      0.062328458    0.0020988515 
   7030000  -2.0919589      154.1659       152.07394      313.4513       0.1065837      0.0020988515 
   7040000   10.998838      155.29043      166.28927      315.73771     -0.082664145    0.0020988515 
   7050000   23.394058      142.30277      165.69682      289.33109      0.06061252     0.0020988515 
   7060000   19.534456      149.19057      168.72503      303.33542     -0.25502984     0.0020988515 
   7070000   8.2584729      144.01299      152.27146      292.80833      0.11514525     0.0020988515 
   7080000   4.1416117      144.05886      148.20047      292.90158      0.045489983    0.0020988515 
   7090000   9.9092141      150.08316      159.99237      305.15024      0.15821478     0.0020988515 
   7100000   28.874608      150.3675       179.24211      305.72836      0.04738309     0.0020988515 
   7110000  -5.6068467      147.17126      141.56442      299.22975     -0.13435592     0.0020988515 
   7120000   16.373468      138.59902      154.97249      281.8006       0.17620138     0.0020988515 
   7130000   12.848456      131.78063      144.62909      267.9374       0.13335275     0.0020988515 
   7140000   9.7253127      144.81355      154.53886      294.43603      0.16463109     0.0020988515 
   7150000   7.6425909      164.22338      171.86597      333.90024     -0.18040011     0.0020988515 
   7160000   0.39619721     156.84774      157.24394      318.90403     -0.096724184    0.0020988515 
   7170000   4.7779885      150.80551      155.5835       306.61893      0.055489434    0.0020988515 
   7180000  -6.9491761      146.57651      139.62733      298.02049      0.26979514     0.0020988515 
   7190000   23.456547      142.17053      165.62708      289.06222     -0.22272082     0.0020988515 
   7200000  -4.4291414      149.51572      145.08658      303.99652      0.092317878    0.0020988515 
   7210000  -5.8015973      154.48099      148.67939      314.09194      0.086641427    0.0020988515 
   7220000   4.0450031      143.54902      147.59402      291.86498      0.10072572     0.0020988515 
   7230000  -2.2444018      161.87708      159.63268      329.12974     -0.10553657     0.0020988515 
   7240000   15.311914      154.20965      169.52156      313.54025      0.076201062    0.0020988515 
   7250000   9.9983917      133.2359       143.23429      270.89626     -0.18079109     0.0020988515 
   7260000   9.8672619      156.77245      166.63971      318.75095      0.054758704    0.0020988515 
   7270000  -8.0250957      138.09178      130.06669      280.76929     -0.11770544     0.0020988515 
[...]
 103190000   28.497993      147.0062       175.5042       298.89415     -0.13796533     0.0020988515 
 103200000  -0.20046074     156.11628      155.91582      317.41682     -0.0070355921   0.0020988515 
 103210000   25.687583      154.5932       180.28078      314.32009     -0.22080926     0.0020988515 
 103220000   13.42434       150.3441       163.76844      305.68078      0.10090016     0.0020988515 
 103230000   8.6194062      144.99269      153.6121       294.80026     -0.26295332     0.0020988515 
 103240000   21.290507      147.54509      168.83559      299.98981     -0.069979412    0.0020988515 
 103250000   14.907436      149.8005       164.70794      304.57554     -0.14167322     0.0020988515 
 103260000   8.390584       152.65767      161.04826      310.38476     -0.22901082     0.0020988515 
 103270000   25.922504      137.28205      163.20456      279.12294     -0.25895758     0.0020988515 
 103280000   17.973021      145.14214      163.11516      295.10412     -0.015332193    0.0020988515 
 103290000   14.369473      143.69654      158.06601      292.16491     -0.017149413    0.0020988515 
 103300000   9.2132296      137.255        146.46823      279.06793      0.05902371     0.0020988515 
 103310000   8.718977       124.59208      133.31106      253.32159      0.14071841     0.0020988515 
 103320000   26.625704      164.02359      190.64929      333.49403      0.13034652     0.0020988515 
 103330000   26.74193       149.67103      176.41296      304.3123      -0.073288309    0.0020988515 
 103340000   20.172636      134.76056      154.9332       273.99622     -0.10469076     0.0020988515 
 103350000   17.481464      140.35534      157.83681      285.37157     -0.023932991    0.0020988515 
 103360000   10.606359      144.10786      154.71422      293.00121     -0.18487187     0.0020988515 
 103370000   3.2871595      149.07953      152.36669      303.10965     -0.0021968016   0.0020988515 
 103380000   8.7877861      162.10645      170.89423      329.59608      0.035249466    0.0020988515 
 103390000   10.608426      143.09233      153.70075      290.93643      0.098377133    0.0020988515 
 103400000   19.040269      151.86888      170.90915      308.78099      0.098430713    0.0020988515 
 103410000  -4.6113092      150.24811      145.6368       305.48561     -0.026136074    0.0020988515 
 103420000  -4.5111906      140.25188      135.74069      285.16122     -0.13709706     0.0020988515 
 103430000   14.830498      142.71405      157.54454      290.1673      -0.20067742     0.0020988515 
 103440000   17.113474      157.89574      175.00921      321.03484     -0.040530934    0.0020988515 
 103450000   2.7857398      141.7308       144.51654      288.16815     -0.044605773    0.0020988515 
 103460000   14.416342      154.38678      168.80312      313.90039      0.14445344     0.0020988515 
 103470000   20.45149       146.51313      166.96462      297.89163      0.17243903     0.0020988515 
 103480000   17.66493       167.15095      184.81588      339.85261     -0.04302752     0.0020988515 
 103490000   18.092947      133.12575      151.21869      270.6723      -0.29600556     0.0020988515 
 103500000   27.293819      147.92652      175.22033      300.76534     -0.041552495    0.0020988515 
 103510000   0.80124438     155.61599      156.41723      316.39963     -0.041300223    0.0020988515 
 103520000   23.720711      149.50952      173.23024      303.98392     -0.41496487     0.0020988515 
 103530000   17.41544       152.68366      170.0991       310.43759      0.22035568     0.0020988515 
 103540000   13.540723      141.43255      154.97327      287.56175      0.10650278     0.0020988515 
 103550000   24.501633      146.91009      171.41172      298.69873      0.23250932     0.0020988515 
 103560000   31.029442      159.29906      190.3285       323.88808      0.092465936    0.0020988515 
 103570000   9.9921953      144.16203      154.15423      293.11136      0.05771913     0.0020988515 
 103580000   10.832659      142.30176      153.13442      289.32904      0.10578116     0.0020988515 
 103590000   20.918643      163.54005      184.4587       332.5109      -0.051466644    0.0020988515 
 103600000   10.313952      149.48381      159.79777      303.93165      0.097965768    0.0020988515 
 103610000   20.099412      134.40314      154.50256      273.26951      0.036030112    0.0020988515 
 103620000   27.801328      145.46566      173.26699      295.76191     -0.0077994714   0.0020988515 
 103630000   12.661664      144.63785      157.29951      294.07879     -0.034399137    0.0020988515 
 103640000   6.9137767      143.27069      150.18447      291.29908     -0.18790971     0.0020988515 
 103650000   21.314543      142.31668      163.63123      289.35938      0.16009285     0.0020988515 
 103660000   16.900984      141.79776      158.69874      288.3043       0.060704602    0.0020988515 
 103670000   9.5866801      138.5724       148.15908      281.74647     -0.2039749      0.0020988515 
 103680000   12.054176      149.43403      161.4882       303.83042      0.19626615     0.0020988515 
 103690000   2.1039834      170.63899      172.74298      346.94452      0.10494878     0.0020988515 
 103700000   22.726171      139.61934      162.34551      283.87513     -0.038043543    0.0020988515 
 103710000   6.5134289      141.01711      147.53054      286.71708     -0.13806759     0.0020988515 
 103720000   5.6308936      153.0451       158.676        311.17249      0.11486856     0.0020988515 
 103730000   25.217504      149.61132      174.82883      304.1909       0.19760874     0.0020988515 
 103740000   20.628836      148.85977      169.48861      302.66284      0.11344795     0.0020988515 
 103750000   24.084723      150.33345      174.41817      305.65913     -0.016120091    0.0020988515 
 103760000   22.576365      163.06351      185.63987      331.54198      0.032338013    0.0020988515 
 103770000   34.979617      143.56186      178.54148      291.89109      0.1190472      0.0020988515 
 103780000   31.184155      155.59408      186.77824      316.35509     -0.30329977     0.0020988515 
 103790000   22.829773      179.16807      201.99784      364.2859       0.050899861    0.0020988515 
 103800000   22.467016      135.5589       158.02592      275.61941      0.40389523     0.0020988515 
 103810000   15.335569      147.24786      162.58343      299.3855       0.21033456     0.0020988515 
 103820000   29.852588      143.81202      173.66461      292.39971      0.16662405     0.0020988515 
 103830000   13.374524      137.24282      150.61735      279.04317      0.10227331     0.0020988515 
 103840000   18.747805      155.16156      173.90936      315.47568     -0.14046628     0.0020988515 
 103850000   16.766321      160.40547      177.17179      326.13765     -0.20535253     0.0020988515 
 103860000   38.309417      158.72374      197.03316      322.71834      0.20108985     0.0020988515 
 103870000   34.181266      151.58713      185.76839      308.20812      0.024092763    0.0020988515 
 103880000   9.564433       156.44684      166.01127      318.08893      0.089974263    0.0020988515 
 103890000   26.068768      163.42122      189.48998      332.26928     -0.10464375     0.0020988515 
 103900000   5.9270446      150.19162      156.11866      305.37076     -0.15867671     0.0020988515 
 103910000   17.839512      154.70272      172.54223      314.54277      0.13420432     0.0020988515 
 103920000   8.8262915      153.22757      162.05386      311.54348      0.080352928    0.0020988515 
 103930000   26.084026      168.11937      194.20339      341.8216       0.08537198     0.0020988515 
 103940000   26.442266      141.57801      168.02027      287.8575       0.083522618    0.0020988515 
 103950000   11.262475      141.87104      153.13351      288.45329      0.096791126    0.0020988515 
 103960000   25.219483      154.66819      179.88767      314.47256      0.20542434     0.0020988515 
 103970000   10.312273      131.11337      141.42564      266.58072      0.0039559858   0.0020988515 
 103980000   17.134755      141.07167      158.20643      286.82801      0.094476581    0.0020988515 
 103990000   16.272792      140.70361      156.9764       286.07967      0.054270466    0.0020988515 
 104000000   21.748751      159.43732      181.18607      324.16919      0.015771078    0.0020988515 
 104010000   9.9173819      149.25516      159.17254      303.46674      0.057100189    0.0020988515 
 104020000   37.032701      153.31939      190.35209      311.73016     -0.1602359      0.0020988515 
 104030000   9.6331274      149.33841      158.97154      303.63601     -0.0066904767   0.0020988515 
 104040000   10.437425      157.7138       168.15123      320.66492      0.11658323     0.0020988515 
 104050000   21.621958      157.63553      179.25749      320.50578     -0.14188309     0.0020988515 
 104060000   15.526197      162.69273      178.21893      330.78812      0.16685187     0.0020988515 
 104070000   18.16651       156.86275      175.02926      318.93456     -0.32041854     0.0020988515 
 104080000   30.947257      144.28707      175.23433      293.3656       0.026099507    0.0020988515 
 104090000   16.65948       153.51918      170.17866      312.13639      0.12713874     0.0020988515 
 104100000   12.308239      170.46646      182.7747       346.59373      0.16065459     0.0020988515 
 104110000   27.067162      134.31139      161.37855      273.08295     -0.1098453      0.0020988515 
 104120000   20.125405      137.58736      157.71276      279.74368     -0.034416044    0.0020988515 
 104130000   9.3282441      143.86367      153.19191      292.50473     -0.10700186     0.0020988515 
 104140000   20.521769      134.6029       155.12467      273.67566      0.1665892      0.0020988515 
 104150000   18.182783      170.06046      188.24324      345.76824      0.041670682    0.0020988515 
 104160000   34.352885      155.19691      189.54979      315.54756      0.14579161     0.0020988515 
 104170000   4.1056612      140.79982      144.90548      286.27528      0.082607046    0.0020988515 
 104180000   13.31763       144.16802      157.48565      293.12353      0.034399738    0.0020988515 
 104190000   35.703838      136.35889      172.06272      277.24594      0.31678947     0.0020988515 
 104200000   23.700647      147.70891      171.40956      300.3229       0.29222057     0.0020988515 
 104210000   19.289324      153.48501      172.77433      312.06691     -0.071327931    0.0020988515 
 104220000   13.479823      149.43081      162.91063      303.82388      0.17094242     0.0020988515 
 104230000   13.86499       143.19011      157.0551       291.13525      0.15431391     0.0020988515 
 104240000   26.311916      159.23401      185.54593      323.75582      0.17417679     0.0020988515 
 104250000   36.56777       141.02667      177.59444      286.73652      0.11623204     0.0020988515 
 104260000   18.572858      157.17905      175.75191      319.57767     -0.10679154     0.0020988515 
 104270000   40.308868      152.35785      192.66672      309.77516      0.047701541    0.0020988515 
 104280000   18.414682      151.84317      170.25785      308.7287       0.38755221     0.0020988515 
 104290000   20.560781      145.25646      165.81724      295.33656     -0.022831843    0.0020988515 
 104300000   36.86517       144.4318       181.29697      293.65984     -0.14392674     0.0020988515 
 104310000   41.006072      141.65332      182.65939      288.01062      0.37286902     0.0020988515 
 104320000   27.345112      155.59738      182.9425       316.3618       0.032025421    0.0020988515 
 104330000   26.570855      156.25372      182.82457      317.69627      0.0038827503   0.0020988515 
 104340000   32.217729      153.13736      185.35508      311.36006      0.028113344    0.0020988515 
 104350000   42.715405      150.42349      193.13889      305.8422      -0.10361275     0.0020988515 
 104360000   2.023071       160.19119      162.21426      325.70197     -0.048710743    0.0020988515 
 104370000   42.617078      156.21411      198.83119      317.61574     -0.17192371     0.0020988515 
 104380000   34.035839      146.18182      180.21766      297.21801     -0.0051586525   0.0020988515 
 104390000   34.237836      170.42597      204.6638       346.51139      0.026400055    0.0020988515 
 104400000   19.474528      134.268        153.74252      272.99473      0.13765905     0.0020988515 
 104410000   17.846756      157.9894       175.83616      321.22527      0.28466287     0.0020988515 
 104420000   26.295639      146.58478      172.88042      298.03731     -0.034729518    0.0020988515 
 104430000   24.07583       153.77518      177.85101      312.65688     -0.17289509     0.0020988515 
 104440000   21.492077      146.63286      168.12494      298.13507     -0.096691328    0.0020988515 
 104450000   21.869924      151.08138      172.95131      307.17984     -0.025725286    0.0020988515 
 104460000   0.65373827     145.27194      145.92568      295.36803     -0.054369762    0.0020988515 
 104470000   20.004019      133.67464      153.67866      271.78832      0.081649952    0.0020988515 
 104480000   29.472868      152.70375      182.17661      310.47844      0.20333065     0.0020988515 
 104490000   16.407086      146.52469      162.93178      297.91513     -0.17042306     0.0020988515 
 104500000   30.468878      158.35504      188.82391      321.96869      0.1033914      0.0020988515 
 104510000   15.386495      150.24555      165.63204      305.48041      0.039731019    0.0020988515 
 104520000   4.1375624      140.76516      144.90273      286.20482      0.034190879    0.0020988515 
 104530000   20.763465      144.16947      164.93293      293.12648     -0.14830805     0.0020988515 
 104540000   21.449107      143.66611      165.11522      292.10305     -0.29056306     0.0020988515 
 104550000   20.506607      142.28429      162.79089      289.29351     -0.052636792    0.0020988515 
 104560000   22.940277      147.26924      170.20952      299.42896     -0.075905432    0.0020988515 
 104570000   23.189439      138.19664      161.38608      280.98247     -0.13943259     0.0020988515 
 104580000   27.517917      148.7836       176.30152      302.50797      0.1547281      0.0020988515 
 104590000   8.6212275      138.45302      147.07424      281.50374     -0.24597703     0.0020988515 
 104600000   13.911797      149.78445      163.69624      304.54289      0.044682788    0.0020988515 
 104610000   31.235506      145.48705      176.72256      295.8054       0.31017316     0.0020988515 
 104620000   43.596306      153.05738      196.65368      311.19744     -0.047916835    0.0020988515 
 104630000   29.21533       164.18364      193.39897      333.81945     -0.079282114    0.0020988515 
 104640000   19.982389      139.86937      159.85176      284.38349      0.17363715     0.0020988515 
 104650000   21.688781      137.02041      158.70919      278.59096     -0.096033787    0.0020988515 
 104660000   35.830163      133.02012      168.85028      270.45753     -0.13447001     0.0020988515 
 104670000   25.368122      127.32332      152.69145      258.87477     -0.13888416     0.0020988515 
 104680000   5.4707724      146.16993      151.6407       297.19384      0.26203859     0.0020988515 
 104690000   3.0024647      136.29046      139.29292      277.10681      0.064830919    0.0020988515 
 104700000   0.87572479     170.40151      171.27724      346.46167     -0.21416313     0.0020988515 
 104710000   13.537908      143.29117      156.82908      291.34071     -0.12495387     0.0020988515 
 104720000  -2.0212953      149.18096      147.15966      303.31588     -0.20390114     0.0020988515 
 104730000   12.579042      154.98238      167.56142      315.11138      0.064022738    0.0020988515 
 104740000   17.16211       150.57496      167.73707      306.15018     -0.27015357     0.0020988515 
 104750000   7.4538604      139.4089       146.86276      283.44725      0.095354222    0.0020988515 
 104760000   5.0788679      153.77872      158.85759      312.66409     -0.12390774     0.0020988515 
 104770000   16.627144      159.17738      175.80452      323.64068     -0.15767967     0.0020988515 
 104780000   23.357948      129.18843      152.54637      262.66691     -0.032804957    0.0020988515 
 104790000   14.917178      133.58328      148.50046      271.60255      0.065047294    0.0020988515 
 104800000   15.667129      135.75334      151.42047      276.01473      0.16571312     0.0020988515 
 104810000   8.2278888      164.39773      172.62562      334.25475      0.14553054     0.0020988515 
 104820000   6.0312109      143.79978      149.83099      292.37482      0.045625202    0.0020988515 
 104830000   5.046423       157.10066      162.14709      319.41828     -0.025564026    0.0020988515 
 104840000   13.060756      145.50318      158.56393      295.83818     -0.12616668     0.0020988515 
 104850000  -2.3802271      151.31469      148.93447      307.6542       0.071130049    0.0020988515 
 104860000   8.5344836      152.16829      160.70277      309.38974     -0.076747679    0.0020988515 
 104870000   11.697253      148.82628      160.52353      302.59473      0.19368287     0.0020988515 
 104880000   13.595981      164.68097      178.27695      334.83061     -0.056495916    0.0020988515 
 104890000   3.2740885      145.23844      148.51252      295.29991      0.18562727     0.0020988515 
 104900000   8.2478281      151.01313      159.26096      307.04107      0.11970473     0.0020988515 
 104910000   22.260465      126.59821      148.85868      257.40047     -0.10670927     0.0020988515 
 104920000   5.4733879      140.23346      145.70685      285.12377      0.0968379      0.0020988515 
 104930000   3.3612006      150.08984      153.45104      305.16383      0.14984017     0.0020988515 
 104940000   17.244625      149.85206      167.09669      304.68037      0.050986862    0.0020988515 
 104950000   20.877597      151.3265       172.2041       307.67821     -0.26527443     0.0020988515 
 104960000   25.998625      146.38973      172.38836      297.64074      0.064964783    0.0020988515 
 104970000  -4.0341319      158.09331      154.05918      321.43654      0.064203848    0.0020988515 
 104980000   14.546901      136.2416       150.7885       277.00748      0.0096946821   0.0020988515 
 104990000   0.89253717     144.95149      145.84402      294.71648     -0.17727844     0.0020988515 
 105000000   4.5351256      156.93648      161.4716       319.08446      0.062909526    0.0020988515 
Loop time of 7021 on 4 procs for 100000000 steps with 166 atoms

Performance: 12305.940 ns/day, 0.002 hours/ns, 14242.987 timesteps/s, 2.364 Matom-step/s
99.6% CPU use with 4 MPI tasks x 1 OpenMP threads

MPI task timing breakdown:
Section |  min time  |  avg time  |  max time  |%varavg| %total
---------------------------------------------------------------
Pair    | 508.22     | 1871.8     | 4575.9     |3755.9 | 26.66
Bond    | 196.46     | 338.43     | 641.22     | 978.6 |  4.82
Neigh   | 8.4302     | 8.4852     | 8.5383     |   1.7 |  0.12
Comm    | 1560.9     | 4639       | 6180.6     |2712.5 | 66.07
Output  | 0.87445    | 1.2675     | 2.4332     |  59.8 |  0.02
Modify  | 81.099     | 122.58     | 204.11     | 440.9 |  1.75
Other   |            | 39.45      |            |       |  0.56

Nlocal:           41.5 ave          62 max           8 min
Histogram: 1 0 0 0 0 0 1 0 1 1
Nghost:             48 ave          70 max          26 min
Histogram: 1 0 1 0 0 0 0 1 0 1
Neighs:         220.75 ave         434 max          12 min
Histogram: 1 1 0 0 0 0 0 0 1 1

Total # of neighbors = 883
Ave neighs/atom = 5.3192771
Ave special neighs/atom = 5.2048193
Neighbor list builds = 144951
Dangerous builds = 0
System init for write_data ...
Generated 0 of 6 mixed pair_coeff terms from geometric mixing rule
Total wall time: 2:02:07
