LAMMPS (29 Aug 2024)
  using 1 OpenMP thread(s) per MPI task
Reading data file ...
  orthogonal box = (-640 -640 -640) to (640 640 640)
  2 by 4 by 4 MPI processor grid
  reading atoms ...
  5066 atoms
  scanning bonds ...
  1 = max bonds/atom
  scanning angles ...
  1 = max angles/atom
  orthogonal box = (-640 -640 -640) to (640 640 640)
  2 by 4 by 4 MPI processor grid
  reading bonds ...
  4565 bonds
  reading angles ...
  4064 angles
Finding 1-2 1-3 1-4 neighbors ...
  special bond factors lj:    0        0        1       
  special bond factors coul:  0        0        0       
     2 = max # of 1-2 neighbors
     2 = max # of 1-3 neighbors
     4 = max # of 1-4 neighbors
     6 = max # of special neighbors
  special bonds CPU = 0.001 seconds
  read_data CPU = 0.027 seconds

CITE-CITE-CITE-CITE-CITE-CITE-CITE-CITE-CITE-CITE-CITE-CITE-CITE

Your simulation uses code contributions which should be cited:
- Type Label Framework: https://doi.org/10.1021/acs.jpcb.3c08419
The log file lists these citations in BibTeX format.

CITE-CITE-CITE-CITE-CITE-CITE-CITE-CITE-CITE-CITE-CITE-CITE-CITE

Switching to 'neigh_modify every 1 delay 0 check yes' setting during minimization
Generated 0 of 6 mixed pair_coeff terms from geometric mixing rule
Neighbor list info ...
  update: every = 1 steps, delay = 0 steps, check = yes
  max neighbors/atom: 2000, page size: 100000
  master list distance cutoff = 33
  ghost atom cutoff = 33
  binsize = 16.5, bins = 78 78 78
  2 neighbor lists, perpetual/occasional/extra = 2 0 0
  (1) pair lj/cut, perpetual, trim from (2)
      attributes: half, newton on, cut 25
      pair build: trim
      stencil: none
      bin: none
  (2) pair base/rna, perpetual
      attributes: half, newton on
      pair build: half/bin/newton
      stencil: half/bin/3d
      bin: standard
Setting up cg style minimization ...
  Unit style    : real
  Current step  : 0
Per MPI rank memory allocation (min/avg/max) = 8.537 | 8.546 | 8.807 Mbytes
   Step          Temp          E_pair         E_mol          TotEng         Press     
         0   0              2323.8296      5535.0438      7858.8734      0.3429271    
        38   0             -100.24447      5418.147       5317.9025     -0.001797625  
Loop time of 0.00561144 on 32 procs for 38 steps with 5066 atoms

87.2% CPU use with 32 MPI tasks x 1 OpenMP threads

Minimization stats:
  Stopping criterion = energy tolerance
  Energy initial, next-to-last, final = 
      7858.87337794618   5318.36106358481   5317.90254233563
  Force two-norm initial, final = 5888.4578 4.7261695
  Force max component initial, final = 2667.2637 1.262123
  Final line search alpha, max atom move = 0.05818558 0.07343736
  Iterations, force evaluations = 38 41

MPI task timing breakdown:
Section |  min time  |  avg time  |  max time  |%varavg| %total
---------------------------------------------------------------
Pair    | 0.0009613  | 0.0011591  | 0.0016785  |   0.5 | 20.66
Bond    | 0.00014227 | 0.00021202 | 0.00036221 |   0.0 |  3.78
Neigh   | 0          | 0          | 0          |   0.0 |  0.00
Comm    | 0.0022605  | 0.0025337  | 0.0029438  |   0.4 | 45.15
Output  | 0          | 0          | 0          |   0.0 |  0.00
Modify  | 0          | 0          | 0          |   0.0 |  0.00
Other   |            | 0.001707   |            |       | 30.41

Nlocal:        158.312 ave         274 max         107 min
Histogram: 6 6 8 3 2 2 4 0 0 1
Nghost:         94.625 ave         182 max          39 min
Histogram: 5 1 8 4 3 3 4 1 2 1
Neighs:        243.844 ave         555 max         137 min
Histogram: 8 9 5 4 2 2 1 0 0 1

Total # of neighbors = 7803
Ave neighs/atom = 1.5402685
Ave special neighs/atom = 4.8132649
Neighbor list builds = 0
Dangerous builds = 0
Generated 0 of 6 mixed pair_coeff terms from geometric mixing rule
Setting up Verlet run ...
  Unit style    : real
  Current step  : 0
  Time step     : 10
Per MPI rank memory allocation (min/avg/max) = 7.428 | 7.437 | 7.698 Mbytes
   Step         PotEng         KinEng         TotEng          Temp          Press         Density    
         0   5317.9025      4529.3409      9847.2434      300            0.096929832    0.0013178293 
     10000   2380.9991      4459.4256      6840.4246      295.36917      0.030823165    0.0013178293 
     20000   2466.5448      4488.1079      6954.6526      297.26894      0.02114075     0.0013178293 
     30000   2460.6244      4512.5224      6973.1468      298.88603      0.016100806    0.0013178293 
     40000   2485.2953      4471.3136      6956.6089      296.15658     -0.0070764551   0.0013178293 
     50000   2469.879       4488.3423      6958.2212      297.28446     -0.0082009416   0.0013178293 
     60000   2395.1794      4456.7983      6851.9778      295.19516      0.01529847     0.0013178293 
     70000   2481.8986      4555.4631      7037.3617      301.7302       0.0094723059   0.0013178293 
     80000   2467.2749      4425.5745      6892.8494      293.12705     -0.0073086806   0.0013178293 
     90000   2526.8371      4568.1597      7094.9968      302.57116      0.0053092699   0.0013178293 
    100000   2497.5965      4532.0332      7029.6297      300.17833      0.013303627    0.0013178293 
    110000   2425.5507      4597.6361      7023.1868      304.52352      0.014988416    0.0013178293 
    120000   2470.1777      4544.8873      7015.0651      301.02972      0.020865096    0.0013178293 
    130000   2495.2222      4484.933       6980.1552      297.05865      0.028787971    0.0013178293 
    140000   2447.5052      4436.3848      6883.8899      293.84307      0.02070874     0.0013178293 
    150000   2414.896       4554.0197      6968.9157      301.6346       0.038083854    0.0013178293 
    160000   2441.4449      4476.7815      6918.2264      296.51874      0.0087051475   0.0013178293 
    170000   2487.655       4599.2946      7086.9496      304.63337      0.0022308964   0.0013178293 
    180000   2453.0416      4477.5703      6930.6119      296.57099      0.026411271    0.0013178293 
    190000   2478.0451      4446.0714      6924.1165      294.48466      0.031507412    0.0013178293 
    200000   2513.0156      4404.5229      6917.5385      291.73271      0.036983229    0.0013178293 
    210000   2516.2395      4602.1153      7118.3548      304.8202       0.048960449    0.0013178293 
    220000   2423.9342      4553.4147      6977.3489      301.59452      0.028968084    0.0013178293 
    230000   2489.8723      4568.3006      7058.1729      302.58049      0.020989231    0.0013178293 
    240000   2460.8739      4486.2711      6947.145       297.14728      0.011784484    0.0013178293 
    250000   2480.4441      4468.2154      6948.6595      295.95137      0.012882327    0.0013178293 
    260000   2529.5172      4614.2717      7143.7889      305.62538      0.01367946     0.0013178293 
    270000   2503.7226      4456.2358      6959.9584      295.1579      -0.013050406    0.0013178293 
    280000   2523.1556      4565.7051      7088.8607      302.40858     -0.035267392    0.0013178293 
    290000   2524.1605      4467.8456      6992.0061      295.92687     -0.0073857471   0.0013178293 
    300000   2421.5956      4554.3602      6975.9558      301.65715      0.012302478    0.0013178293 
    310000   2411.1407      4561.6736      6972.8143      302.14155     -0.0069615699   0.0013178293 
    320000   2410.0013      4561.5709      6971.5722      302.13475      0.014624399    0.0013178293 
    330000   2440.047       4476.0398      6916.0868      296.46962      0.016279282    0.0013178293 
    340000   2458.2951      4479.2481      6937.5432      296.68211     -0.013684055    0.0013178293 
    350000   2438.6589      4557.9488      6996.6077      301.89484      0.018879777    0.0013178293 
    360000   2371.0591      4549.6664      6920.7255      301.34626      0.0036587096   0.0013178293 
    370000   2447.1991      4562.0466      7009.2457      302.16626      0.0078123961   0.0013178293 
    380000   2451.7943      4513.6055      6965.3999      298.95777      0.0037380011   0.0013178293 
    390000   2503.684       4533.4663      7037.1503      300.27325     -0.0014601861   0.0013178293 
    400000   2392.9347      4594.1961      6987.1308      304.29567      0.031123578    0.0013178293 
    410000   2421.8357      4542.1392      6963.9749      300.8477       0.0056747528   0.0013178293 
    420000   2425.9539      4491.4494      6917.4034      297.49027      0.016548436    0.0013178293 
    430000   2425.2562      4462.0134      6887.2697      295.54058      0.00070868943  0.0013178293 
    440000   2467.0713      4509.1268      6976.1981      298.66112     -0.013608666    0.0013178293 
    450000   2437.9618      4492.1216      6930.0833      297.53479     -0.006488102    0.0013178293 
    460000   2430.4136      4532.9527      6963.3663      300.23923      0.0017637763   0.0013178293 
    470000   2429.7595      4592.1812      7021.9406      304.16221      0.017360702    0.0013178293 
    480000   2441.3235      4605.7188      7047.0422      305.05887      0.0095912545   0.0013178293 
    490000   2341.4291      4502.3597      6843.7888      298.21291      0.01291811     0.0013178293 
    500000   2478.5196      4580.0447      7058.5643      303.35836     -0.0032023512   0.0013178293 
    510000   2420.4696      4617.101       7037.5706      305.81277      0.0083042209   0.0013178293 
    520000   2414.844       4518.5712      6933.4152      299.28667      0.020538126    0.0013178293 
    530000   2469.9761      4501.7846      6971.7607      298.17482      0.011363902    0.0013178293 
    540000   2487.8975      4621.1521      7109.0496      306.0811       0.0099076951   0.0013178293 
    550000   2491.445       4524.1986      7015.6436      299.6594       0.0046714345   0.0013178293 
    560000   2421.462       4516.5509      6938.013       299.15286      0.017829921    0.0013178293 
    570000   2451.2304      4506.4198      6957.6502      298.48183      0.019454728    0.0013178293 
    580000   2460.3114      4640.2056      7100.5169      307.3431       0.0037757753   0.0013178293 
    590000   2466.5917      4530.3651      6996.9568      300.06784      0.0051377266   0.0013178293 
    600000   2328.5065      4472.2941      6800.8006      296.22152      0.011004093    0.0013178293 
    610000   2467.7987      4519.6404      6987.4391      299.35749     -0.00020790231  0.0013178293 
    620000   2483.0235      4429.9676      6912.9911      293.41803      0.033300804    0.0013178293 
    630000   2418.6083      4473.1792      6891.7876      296.28015      0.0056283734   0.0013178293 
    640000   2413.1578      4511.3126      6924.4704      298.8059       0.019983766    0.0013178293 
    650000   2495.8452      4490.2149      6986.0601      297.4085      -0.0095238353   0.0013178293 
    660000   2421.083       4507.4798      6928.5629      298.55204     -0.003224608    0.0013178293 
    670000   2483.7359      4566.9461      7050.682       302.49078      0.018482127    0.0013178293 
    680000   2544.9264      4484.3334      7029.2598      297.01894     -0.011792611    0.0013178293 
    690000   2449.368       4545.7733      6995.1413      301.0884       0.018942054    0.0013178293 
    700000   2476.1917      4578.8386      7055.0303      303.27847      0.01244009     0.0013178293 
    710000   2479.1085      4497.7779      6976.8864      297.90943      0.016099765    0.0013178293 
    720000   2427.6187      4423.5419      6851.1606      292.99243      0.0095026435   0.0013178293 
    730000   2451.3968      4407.4477      6858.8445      291.92643      0.043689897    0.0013178293 
    740000   2535.3324      4477.0703      7012.4027      296.53787      0.004951224    0.0013178293 
    750000   2473.9857      4499.0799      6973.0656      297.99567      0.012092089    0.0013178293 
    760000   2495.6275      4625.8146      7121.4422      306.38992      0.015097823    0.0013178293 
    770000   2548.5805      4565.5226      7114.103       302.39649      0.0084974923   0.0013178293 
    780000   2449.7437      4542.5912      6992.3349      300.87763      0.016235627    0.0013178293 
    790000   2474.3055      4601.0436      7075.349       304.74921     -0.0051919054   0.0013178293 
    800000   2465.9147      4567.2845      7033.1992      302.51319      0.014612372    0.0013178293 
    810000   2459.4242      4529.674       6989.0982      300.02206      0.029848171    0.0013178293 
    820000   2506.7474      4582.5538      7089.3012      303.52455      0.009809278    0.0013178293 
    830000   2457.8303      4559.1014      7016.9318      301.97119     -0.024795679    0.0013178293 
    840000   2406.175       4430.2118      6836.3869      293.43421      0.00099240041  0.0013178293 
    850000   2368.7688      4596.0321      6964.8009      304.41728      0.010484805    0.0013178293 
    860000   2403.541       4581.3336      6984.8746      303.44373      0.013319945    0.0013178293 
    870000   2564.2724      4537.9867      7102.2591      300.57266      0.01190804     0.0013178293 
    880000   2520.1222      4539.531       7059.6532      300.67494      0.047522625    0.0013178293 
    890000   2432.1768      4489.0934      6921.2702      297.33422      0.0043140596   0.0013178293 
    900000   2447.8271      4469.577       6917.404       296.04155     -0.0075983847   0.0013178293 
    910000   2447.5102      4543.2721      6990.7823      300.92273      0.008861487    0.0013178293 
    920000   2484.6573      4458.6784      6943.3357      295.31968     -0.017581162    0.0013178293 
    930000   2473.2653      4459.204       6932.4693      295.3545       0.020569257    0.0013178293 
    940000   2490.3752      4531.9995      7022.3747      300.17609      0.037053373    0.0013178293 
    950000   2575.4275      4487.4548      7062.8823      297.22569     -0.021457496    0.0013178293 
    960000   2449.8776      4547.6969      6997.5746      301.21581      0.021502195    0.0013178293 
    970000   2473.9221      4536.3141      7010.2362      300.46187      0.016499274    0.0013178293 
    980000   2491.8805      4570.0776      7061.9581      302.69819      0.011297717    0.0013178293 
    990000   2363.0915      4527.1702      6890.2617      299.85622      0.029804458    0.0013178293 
   1000000   2471.6034      4458.1171      6929.7204      295.2825       0.02035312     0.0013178293 
   1010000   2436.7456      4435.4129      6872.1586      293.7787       0.0075376977   0.0013178293 
   1020000   2437.883       4548.6545      6986.5374      301.27923      0.011248667    0.0013178293 
   1030000   2439.2108      4519.6614      6958.8722      299.35888     -0.0024990564   0.0013178293 
   1040000   2441.8484      4569.5712      7011.4196      302.66465      0.018978489    0.0013178293 
   1050000   2480.2833      4522.2523      7002.5356      299.53049      0.031437742    0.0013178293 
   1060000   2414.7634      4537.8306      6952.5939      300.56231      0.023741957    0.0013178293 
   1070000   2485.4965      4608.9284      7094.4249      305.27146      0.014224799    0.0013178293 
   1080000   2488.2794      4540.199       7028.4784      300.71918      0.006368753    0.0013178293 
   1090000   2375.8515      4534.6605      6910.512       300.35235     -0.0043244786   0.0013178293 
   1100000   2388.4212      4518.632       6907.0532      299.2907       0.0016498521   0.0013178293 
   1110000   2443.9228      4469.9632      6913.886       296.06713      0.015579126    0.0013178293 
   1120000   2381.4843      4528.9434      6910.4277      299.97368     -0.00033864847  0.0013178293 
   1130000   2461.5075      4430.0055      6891.513       293.42054      0.010492002    0.0013178293 
   1140000   2489.9306      4491.5748      6981.5053      297.49857      0.013850058    0.0013178293 
   1150000   2459.4378      4482.2136      6941.6515      296.87854     -0.0089808992   0.0013178293 
   1160000   2416.0845      4445.0932      6861.1777      294.41987     -0.00025473448  0.0013178293 
   1170000   2407.0836      4554.2649      6961.3484      301.65084      0.022537537    0.0013178293 
   1180000   2458.0282      4532.9099      6990.9381      300.23639      0.00076600877  0.0013178293 
   1190000   2461.5714      4535.8564      6997.4278      300.43155     -0.0081193956   0.0013178293 
   1200000   2467.1608      4471.0422      6938.203       296.1386       0.0018516833   0.0013178293 
   1210000   2424.0369      4448.4096      6872.4464      294.63953     -0.00010605311  0.0013178293 
   1220000   2518.3538      4519.1696      7037.5234      299.32631     -0.010672458    0.0013178293 
   1230000   2468.4186      4507.6163      6976.035       298.56108      0.016660243    0.0013178293 
   1240000   2420.5285      4408.2779      6828.8064      291.98142      0.023854309    0.0013178293 
   1250000   2427.4253      4498.1602      6925.5855      297.93475      0.0044500532   0.0013178293 
   1260000   2484.1242      4523.993       7008.1172      299.64579      0.010111718    0.0013178293 
   1270000   2423.4341      4571.1914      6994.6255      302.77196      0.014142563    0.0013178293 
   1280000   2470.7388      4560.749       7031.4878      302.08031      0.017698528    0.0013178293 
   1290000   2421.3219      4570.0773      6991.3992      302.69817      0.0039617667   0.0013178293 
   1300000   2481.7135      4572.0948      7053.8083      302.8318       0.014245801    0.0013178293 
   1310000   2462.3477      4441.1558      6903.5035      294.15908      0.0026272809   0.0013178293 
   1320000   2437.7153      4491.3233      6929.0386      297.48191     -0.0039892365   0.0013178293 
   1330000   2400.9644      4575.4055      6976.3699      303.05108      0.0088996174   0.0013178293 
   1340000   2478.2045      4489.6322      6967.8367      297.3699       0.02366275     0.0013178293 
   1350000   2491.29        4512.7728      7004.0628      298.90262     -0.0055473019   0.0013178293 
   1360000   2457.4182      4463.3375      6920.7557      295.62828     -0.013268291    0.0013178293 
   1370000   2428.5746      4470.956       6899.5306      296.13289      0.0044551789   0.0013178293 
   1380000   2398.1048      4600.488       6998.5928      304.71242      0.0016529125   0.0013178293 
   1390000   2458.9339      4500.879       6959.8129      298.11483      0.00053622137  0.0013178293 
   1400000   2436.4361      4658.4796      7094.9157      308.55348      0.0086826168   0.0013178293 
   1410000   2419.5483      4416.6301      6836.1784      292.53463      0.015396518    0.0013178293 
   1420000   2457.1712      4440.4496      6897.6208      294.11231     -0.006336797    0.0013178293 
   1430000   2455.3081      4456.1553      6911.4634      295.15257      0.022069204    0.0013178293 
   1440000   2467.5759      4570.2664      7037.8422      302.71069      0.030072703    0.0013178293 
   1450000   2468.6002      4463.1574      6931.7577      295.61635     -0.0051595397   0.0013178293 
   1460000   2513.5598      4624.1599      7137.7197      306.28032      0.012991801    0.0013178293 
   1470000   2354.531       4468.2623      6822.7934      295.95448      0.017882436    0.0013178293 
   1480000   2474.1253      4507.1596      6981.2849      298.53083      0.0098202318   0.0013178293 
   1490000   2422.744       4468.5454      6891.2894      295.97323      0.0007116593   0.0013178293 
   1500000   2442.2227      4543.7927      6986.0154      300.95721      0.010054312    0.0013178293 
   1510000   2482.1518      4553.036       7035.1878      301.56944      0.0028835738   0.0013178293 
   1520000   2448.3869      4582.1311      7030.518       303.49655      0.023296297    0.0013178293 
   1530000   2441.7347      4548.1884      6989.9231      301.24836     -0.0053251961   0.0013178293 
   1540000   2411.1669      4612.3957      7023.5626      305.50112      0.013347111    0.0013178293 
   1550000   2477.8612      4451.3236      6929.1848      294.83254     -0.017466027    0.0013178293 
   1560000   2460.1832      4612.6619      7072.8451      305.51875      0.03365901     0.0013178293 
   1570000   2480.9815      4535.2058      7016.1873      300.38846      0.0082075446   0.0013178293 
   1580000   2378.3438      4537.5999      6915.9436      300.54703      0.0045100679   0.0013178293 
   1590000   2445.2847      4536.2257      6981.5104      300.45601      0.01707884     0.0013178293 
   1600000   2381.2048      4503.7388      6884.9435      298.30425      0.037687103    0.0013178293 
   1610000   2395.3918      4495.6915      6891.0832      297.77124     -0.015126965    0.0013178293 
   1620000   2493.1213      4582.3865      7075.5078      303.51347      0.0063379449   0.0013178293 
   1630000   2384.9429      4530.5147      6915.4575      300.07775      0.018945379    0.0013178293 
   1640000   2460.9982      4493.9804      6954.9786      297.6579       0.019147374    0.0013178293 
   1650000   2550.7333      4542.7525      7093.4858      300.88832      0.014892688    0.0013178293 
   1660000   2371.19        4551.9343      6923.1243      301.49647     -0.0014989544   0.0013178293 
   1670000   2452.5288      4456.5298      6909.0585      295.17737      0.013103794    0.0013178293 
   1680000   2450.6007      4578.1131      7028.7137      303.23042     -0.015970371    0.0013178293 
   1690000   2396.4551      4545.0459      6941.501       301.04022     -0.0085213842   0.0013178293 
   1700000   2458.0188      4519.6819      6977.7007      299.36024      0.012637429    0.0013178293 
   1710000   2497.2536      4661.1976      7158.4512      308.73351      0.027110817    0.0013178293 
   1720000   2388.7129      4565.877       6954.5899      302.41996      0.022246581    0.0013178293 
   1730000   2466.004       4594.5556      7060.5596      304.31949      0.037472666    0.0013178293 
   1740000   2447.1183      4487.8749      6934.9932      297.25351      0.00036844745  0.0013178293 
   1750000   2440.8116      4483.2104      6924.022       296.94456      0.018707647    0.0013178293 
   1760000   2420.4351      4495.5322      6915.9672      297.76069      0.00093659354  0.0013178293 
   1770000   2413.3774      4569.3072      6982.6846      302.64716      0.022755951    0.0013178293 
   1780000   2416.5396      4485.7152      6902.2547      297.11046     -0.00040301866  0.0013178293 
   1790000   2443.7521      4512.2779      6956.0299      298.86984     -0.00043063086  0.0013178293 
   1800000   2454.2902      4461.1925      6915.4827      295.48621     -0.0035977877   0.0013178293 
   1810000   2503.8105      4470.672       6974.4825      296.11408      0.027163732    0.0013178293 
   1820000   2457.548       4514.2235      6971.7715      298.9987       0.0085997933   0.0013178293 
   1830000   2430.9798      4565.4981      6996.478       302.39487      0.0090792406   0.0013178293 
   1840000   2483.4185      4565.7477      7049.1662      302.4114       0.0081443517   0.0013178293 
   1850000   2446.8207      4440.8317      6887.6525      294.13761      0.018949427    0.0013178293 
   1860000   2432.5824      4468.2502      6900.8326      295.95367      0.0052028252   0.0013178293 
   1870000   2470.7992      4650.3789      7121.1781      308.01693      0.020525094    0.0013178293 
   1880000   2534.8914      4527.003       7061.8944      299.84515      0.011458815    0.0013178293 
   1890000   2483.5797      4488.3878      6971.9675      297.28748      0.0032927827   0.0013178293 
   1900000   2494.6244      4436.9714      6931.5957      293.88193      0.0017796845   0.0013178293 
   1910000   2510.9927      4462.7917      6973.7844      295.59213      0.0008716086   0.0013178293 
   1920000   2424.9395      4496.5026      6921.4421      297.82496      0.012858824    0.0013178293 
   1930000   2439.4467      4524.5446      6963.9914      299.68232      0.0061147084   0.0013178293 
   1940000   2505.5222      4510.3242      7015.8464      298.74043     -0.010836623    0.0013178293 
   1950000   2397.1493      4661.9445      7059.0937      308.78297      0.013937587    0.0013178293 
   1960000   2543.6547      4445.6309      6989.2857      294.45549      0.025550686    0.0013178293 
   1970000   2450.5258      4559.3793      7009.9051      301.98959      0.020294491    0.0013178293 
   1980000   2431.8312      4496.2953      6928.1265      297.81123      0.023725047    0.0013178293 
   1990000   2549.8313      4536.2971      7086.1284      300.46074      0.0035171792   0.0013178293 
   2000000   2403.6336      4541.1552      6944.7888      300.78252      0.0040457625   0.0013178293 
   2010000   2473.7363      4441.4608      6915.1972      294.17928      0.0049702726   0.0013178293 
   2020000   2418.0903      4472.5067      6890.597       296.2356       0.00062316371  0.0013178293 
   2030000   2430.0312      4477.0155      6907.0467      296.53424      0.016453082    0.0013178293 
   2040000   2559.1913      4462.3095      7021.5008      295.56019     -0.0044460467   0.0013178293 
   2050000   2466.64        4579.0702      7045.7102      303.29382     -0.0033678765   0.0013178293 
   2060000   2414.1806      4512.5579      6926.7385      298.88838      0.01495499     0.0013178293 
   2070000   2487.8014      4458.2766      6946.078       295.29307      0.0042838647   0.0013178293 
   2080000   2516.5296      4506.2638      7022.7934      298.47149      0.00265705     0.0013178293 
   2090000   2348.7393      4524.5308      6873.2701      299.68141      0.010818164    0.0013178293 
   2100000   2383.4535      4560.3388      6943.7923      302.05314      0.013233261    0.0013178293 
   2110000   2445.3733      4546.1412      6991.5144      301.11276      0.010198302    0.0013178293 
   2120000   2398.1761      4426.4506      6824.6268      293.18509      0.020976773    0.0013178293 
   2130000   2450.6881      4583.0199      7033.708       303.55542      0.011822686    0.0013178293 
   2140000   2496.4659      4527.2784      7023.7443      299.86339      0.015431401    0.0013178293 
   2150000   2451.5877      4506.5198      6958.1075      298.48845      0.013546563    0.0013178293 
   2160000   2517.5027      4509.167       7026.6697      298.66379      0.03491396     0.0013178293 
   2170000   2457.3579      4496.7106      6954.0684      297.83874      0.029189784    0.0013178293 
   2180000   2473.3886      4615.8267      7089.2153      305.72838      0.010731154    0.0013178293 
   2190000   2409.3842      4640.2763      7049.6605      307.34778      0.01930889     0.0013178293 
   2200000   2455.6801      4504.8455      6960.5257      298.37756     -0.00013473437  0.0013178293 
   2210000   2409.4172      4546.8157      6956.2328      301.15744      0.018221062    0.0013178293 
   2220000   2466.6703      4537.9898      7004.66        300.57286      0.023102459    0.0013178293 
   2230000   2431.4798      4643.3808      7074.8606      307.55341     -0.0055737989   0.0013178293 
   2240000   2435.4762      4558.1484      6993.6246      301.90806      0.02135366     0.0013178293 
   2250000   2424.167       4596.6863      7020.8534      304.46061      0.014987694    0.0013178293 
   2260000   2501.5182      4548.0085      7049.5266      301.23644      0.017554737    0.0013178293 
   2270000   2437.4042      4605.8013      7043.2055      305.06434      0.040906688    0.0013178293 
   2280000   2422.6995      4480.3814      6903.0809      296.75718      0.0037531275   0.0013178293 
   2290000   2426.1063      4595.569       7021.6753      304.38661      0.0083353558   0.0013178293 
   2300000   2410.6894      4493.7371      6904.4265      297.64179     -0.0048053546   0.0013178293 
   2310000   2350.5571      4681.0081      7031.5651      310.04565      0.0053091143   0.0013178293 
   2320000   2434.4305      4465.793       6900.2235      295.79092      0.011013184    0.0013178293 
   2330000   2526.3126      4464.2493      6990.562       295.68867     -0.0099030397   0.0013178293 
   2340000   2434.345       4589.6987      7024.0437      303.99779      0.021295986    0.0013178293 
   2350000   2372.4856      4448.5858      6821.0714      294.65121      0.010137824    0.0013178293 
   2360000   2518.1928      4663.5091      7181.7019      308.88661     -0.0049788516   0.0013178293 
   2370000   2480.036       4585.8604      7065.8964      303.74356      0.011627949    0.0013178293 
   2380000   2449.8059      4529.6887      6979.4947      300.02304      0.011987646    0.0013178293 
   2390000   2422.336       4459.6922      6882.0282      295.38683      0.017713217    0.0013178293 
   2400000   2508.3767      4551.8202      7060.1969      301.48891      0.0050701924   0.0013178293 
   2410000   2449.9664      4541.2593      6991.2256      300.78941      0.0024478946   0.0013178293 
   2420000   2474.2892      4571.3506      7045.6397      302.7825       0.014636547    0.0013178293 
   2430000   2478.9349      4507.069       6986.0039      298.52483      0.010815735    0.0013178293 
   2440000   2467.823       4484.9917      6952.8148      297.06254      0.0089445376   0.0013178293 
   2450000   2542.3184      4385.7834      6928.1019      290.4915      -0.0093529538   0.0013178293 
   2460000   2432.2042      4498.0915      6930.2957      297.93021      0.011551126    0.0013178293 
   2470000   2532.3777      4519.0929      7051.4706      299.32123      0.011669068    0.0013178293 
   2480000   2486.7756      4496.1636      6982.9392      297.80251      0.026361624    0.0013178293 
   2490000   2419.6406      4555.1263      6974.7669      301.70789     -0.0048607234   0.0013178293 
   2500000   2508.8971      4572.181       7081.0781      302.8375       0.027120589    0.0013178293 
   2510000   2427.6241      4640.3179      7067.942       307.35054      0.032901929    0.0013178293 
   2520000   2437.6584      4506.3348      6943.9931      298.47619      0.021508793    0.0013178293 
   2530000   2519.8849      4476.1913      6996.0761      296.47965     -0.0049853097   0.0013178293 
   2540000   2511.1488      4557.4705      7068.6192      301.86316      0.016470187    0.0013178293 
   2550000   2433.8038      4524.13        6957.9338      299.65486     -0.0020750868   0.0013178293 
   2560000   2512.7056      4654.1139      7166.8195      308.26432      0.038613238    0.0013178293 
   2570000   2437.4272      4600.2235      7037.6507      304.6949       0.0012785771   0.0013178293 
   2580000   2523.6109      4520.0185      7043.6294      299.38253     -0.0030976659   0.0013178293 
   2590000   2491.7371      4532.6828      7024.4199      300.22135     -0.013682648    0.0013178293 
   2600000   2489.2699      4459.1893      6948.4592      295.35352      0.0043033416   0.0013178293 
   2610000   2549.4922      4551.1634      7100.6557      301.44541      0.013321909    0.0013178293 
   2620000   2454.677       4491.8035      6946.4805      297.51372     -0.0082886622   0.0013178293 
   2630000   2455.0047      4486.7205      6941.7252      297.17705      0.0083317074   0.0013178293 
   2640000   2452.7249      4457.2084      6909.9334      295.22232      0.023915995    0.0013178293 
   2650000   2426.6883      4577.4467      7004.135       303.18628      0.002814317    0.0013178293 
   2660000   2533.5198      4510.5449      7044.0648      298.75506     -0.0058135434   0.0013178293 
   2670000   2489.845       4583.8901      7073.7352      303.61306      0.00046694053  0.0013178293 
   2680000   2399.6372      4527.268       6926.9052      299.8627       0.0066913434   0.0013178293 
   2690000   2489.7688      4453.7627      6943.5315      294.99409      0.0019196099   0.0013178293 
   2700000   2521.6584      4477.4311      6999.0895      296.56177      0.024292693    0.0013178293 
   2710000   2422.7594      4506.1465      6928.9059      298.46373      0.010646138    0.0013178293 
   2720000   2377.1881      4489.9966      6867.1847      297.39404      0.009467471    0.0013178293 
   2730000   2468.3999      4429.0643      6897.4643      293.3582       0.013715732    0.0013178293 
   2740000   2463.8131      4499.2503      6963.0634      298.00696     -0.0028294758   0.0013178293 
   2750000   2443.3147      4502.4953      6945.81        298.22189      0.0045074856   0.0013178293 
   2760000   2509.2238      4564.6764      7073.9002      302.34044      0.011201722    0.0013178293 
   2770000   2502.4625      4574.0076      7076.4701      302.95849     -0.00075696652  0.0013178293 
   2780000   2450.3755      4550.9159      7001.2914      301.42902      0.022723343    0.0013178293 
   2790000   2476.2457      4478.1392      6954.3849      296.60867     -0.014286225    0.0013178293 
   2800000   2489.2348      4473.3862      6962.621       296.29385      0.022639303    0.0013178293 
   2810000   2513.6258      4569.7699      7083.3957      302.67781     -0.006444395    0.0013178293 
   2820000   2502.4489      4537.6918      7040.1407      300.55312      0.031781776    0.0013178293 
   2830000   2358.3046      4536.7771      6895.0817      300.49254      0.026718513    0.0013178293 
   2840000   2479.1412      4542.6375      7021.7787      300.8807      -0.015296774    0.0013178293 
   2850000   2423.7517      4576.961       7000.7126      303.15411      0.017098327    0.0013178293 
   2860000   2467.3529      4493.8017      6961.1546      297.64607      0.020350649    0.0013178293 
   2870000   2427.4766      4498.1491      6925.6257      297.93402      0.017493149    0.0013178293 
   2880000   2413.0016      4545.5572      6958.5588      301.07408      0.016890197    0.0013178293 
   2890000   2471.1071      4546.0086      7017.1157      301.10398      0.0092359133   0.0013178293 
   2900000   2496.9908      4530.2065      7027.1974      300.05734      0.019376127    0.0013178293 
   2910000   2506.1312      4531.3498      7037.481       300.13306     -0.0043977718   0.0013178293 
   2920000   2452.8468      4620.5095      7073.3563      306.03853      0.016773971    0.0013178293 
   2930000   2456.3792      4524.673       6981.0522      299.69083      0.027539658    0.0013178293 
   2940000   2375.436       4578.2277      6953.6637      303.23801      0.02432623     0.0013178293 
   2950000   2450.6342      4510.0549      6960.689       298.7226       0.035621617    0.0013178293 
   2960000   2491.8491      4527.4472      7019.2963      299.87457      0.027806478    0.0013178293 
   2970000   2504.2057      4529.3557      7033.5614      300.00098     -0.00064734831  0.0013178293 
   2980000   2514.7974      4520.2963      7035.0937      299.40094     -0.023055762    0.0013178293 
   2990000   2567.2789      4491.1121      7058.391       297.46792      0.0085781343   0.0013178293 
   3000000   2389.6671      4514.4365      6904.1036      299.01281      0.010431227    0.0013178293 
   3010000   2492.6271      4477.0009      6969.628       296.53327     -0.0045574363   0.0013178293 
   3020000   2475.3868      4589.0298      7064.4167      303.95349      0.040233929    0.0013178293 
   3030000   2461.355       4611.8774      7073.2324      305.46679      0.0011930894   0.0013178293 
   3040000   2487.6891      4590.1488      7077.8379      304.0276       0.013355597    0.0013178293 
   3050000   2477.563       4615.9437      7093.5066      305.73612      0.012253989    0.0013178293 
   3060000   2492.2707      4543.046       7035.3167      300.90776      0.014957787    0.0013178293 
   3070000   2424.8081      4624.2786      7049.0867      306.28818      0.0019045358   0.0013178293 
   3080000   2480.8427      4519.8818      7000.7245      299.37348      0.02386174     0.0013178293 
   3090000   2455.0241      4482.0289      6937.053       296.8663      -0.0019528676   0.0013178293 
   3100000   2464.7605      4487.4959      6952.2563      297.2284       0.005997521    0.0013178293 
   3110000   2482.5095      4614.8373      7097.3468      305.66284      0.0024570882   0.0013178293 
   3120000   2432.999       4534.9672      6967.9662      300.37266      0.023044741    0.0013178293 
   3130000   2537.6049      4497.7138      7035.3188      297.90519     -0.0014839086   0.0013178293 
   3140000   2482.035       4518.3101      7000.3451      299.26938     -0.0031583708   0.0013178293 
   3150000   2441.5844      4545.2431      6986.8275      301.05328      0.016195182    0.0013178293 
   3160000   2453.5606      4491.027       6944.5876      297.46229      0.000509618    0.0013178293 
   3170000   2399.2802      4488.1419      6887.4221      297.2712       0.004240804    0.0013178293 
   3180000   2421.5878      4565.9334      6987.5212      302.4237       0.010116909    0.0013178293 
   3190000   2443.0068      4504.4255      6947.4323      298.34974      0.025611444    0.0013178293 
   3200000   2410.346       4531.4136      6941.7596      300.13729     -0.0021138993   0.0013178293 
   3210000   2437.9304      4549.9518      6987.8822      301.36516      0.0048519748   0.0013178293 
   3220000   2440.6934      4531.7933      6972.4868      300.16244     -0.0059849985   0.0013178293 
   3230000   2431.9166      4557.6059      6989.5225      301.87213      0.022142763    0.0013178293 
   3240000   2451.1838      4507.7255      6958.9093      298.56831     -0.0050041025   0.0013178293 
   3250000   2462.0571      4415.9022      6877.9593      292.48641     -0.00071704782  0.0013178293 
   3260000   2534.9365      4527.4617      7062.3982      299.87553     -0.0071725246   0.0013178293 
   3270000   2454.5139      4447.5971      6902.111       294.58572      0.027045256    0.0013178293 
   3280000   2481.6065      4534.748       7016.3546      300.35814     -0.0032273136   0.0013178293 
   3290000   2506.1084      4495.5938      7001.7022      297.76477      0.013409217    0.0013178293 
   3300000   2470.8179      4460.5823      6931.4001      295.44579      0.024234009    0.0013178293 
   3310000   2508.5559      4524.6064      7033.1623      299.68641      0.0086132399   0.0013178293 
   3320000   2471.1616      4511.2845      6982.4461      298.80404      0.025239016    0.0013178293 
   3330000   2497.1213      4489.4009      6986.5222      297.35458      0.026163361    0.0013178293 
   3340000   2504.2122      4450.9673      6955.1795      294.80894      0.0025292539   0.0013178293 
   3350000   2364.0817      4589.3027      6953.3844      303.97156      0.01417284     0.0013178293 
   3360000   2440.2928      4585.2481      7025.5409      303.70301     -0.0010198339   0.0013178293 
   3370000   2447.5404      4393.0951      6840.6355      290.97579      0.011962383    0.0013178293 
   3380000   2429.4424      4475.5021      6904.9444      296.434        0.022462242    0.0013178293 
   3390000   2445.3848      4389.0245      6834.4093      290.70617      0.0058597056   0.0013178293 
   3400000   2488.1706      4557.5043      7045.6749      301.8654       0.022986142    0.0013178293 
   3410000   2476.0892      4550.2811      7026.3703      301.38697      0.024932934    0.0013178293 
   3420000   2508.9003      4424.9213      6933.8216      293.08379      0.00011169337  0.0013178293 
   3430000   2429.1306      4522.7919      6951.9225      299.56623      0.04284368     0.0013178293 
   3440000   2454.4133      4544.453       6998.8663      301.00095      0.036173914    0.0013178293 
   3450000   2441.8051      4507.9703      6949.7754      298.58453      0.013397261    0.0013178293 
   3460000   2409.3055      4531.0027      6940.3083      300.11007     -0.00029689125  0.0013178293 
   3470000   2411.6218      4517.3924      6929.0142      299.2086       0.0001263753   0.0013178293 
   3480000   2395.844       4489.852       6885.696       297.38446      0.020012508    0.0013178293 
   3490000   2465.1473      4431.0209      6896.1683      293.4878       0.0084599304   0.0013178293 
   3500000   2485.9702      4529.6437      7015.6138      300.02005      0.021683235    0.0013178293 
   3510000   2455.2352      4538.4449      6993.6802      300.60301      0.021573182    0.0013178293 
   3520000   2453.5415      4514.2585      6967.8         299.00102      0.030625126    0.0013178293 
   3530000   2437.1297      4400.4419      6837.5716      291.4624       0.026492589    0.0013178293 
   3540000   2450.1631      4525.2372      6975.4004      299.7282       0.02052269     0.0013178293 
   3550000   2511.644       4560.1809      7071.8249      302.04268     -0.0026649764   0.0013178293 
   3560000   2437.17        4504.5466      6941.7166      298.35775      0.028313486    0.0013178293 
   3570000   2437.2718      4507.6354      6944.9072      298.56234      0.010893721    0.0013178293 
   3580000   2441.0354      4568.6532      7009.6886      302.60384      0.013914682    0.0013178293 
   3590000   2465.0964      4579.4497      7044.5461      303.31895      0.011320177    0.0013178293 
   3600000   2501.5468      4611.2809      7112.8277      305.42728      0.010562724    0.0013178293 
   3610000   2446.2647      4489.7858      6936.0505      297.38008      0.016299253    0.0013178293 
   3620000   2429.3744      4545.4258      6974.8002      301.06538      0.013895291    0.0013178293 
   3630000   2438.3149      4552.2326      6990.5475      301.51623      0.030058992    0.0013178293 
   3640000   2410.1186      4510.6134      6920.732       298.75959      0.0055706476   0.0013178293 
   3650000   2540.111       4487.4302      7027.5412      297.22405      0.015035328    0.0013178293 
   3660000   2434.7157      4539.4529      6974.1686      300.66977     -0.0091530333   0.0013178293 
   3670000   2467.2601      4586.6746      7053.9347      303.79749      0.024610915    0.0013178293 
   3680000   2479.1264      4507.1457      6986.2721      298.52991      0.014326566    0.0013178293 
   3690000   2503.7197      4467.6565      6971.3762      295.91435     -0.0086994656   0.0013178293 
   3700000   2439.1275      4548.4641      6987.5916      301.26662      0.010835028    0.0013178293 
   3710000   2411.4807      4547.4847      6958.9654      301.20175      0.012381482    0.0013178293 
   3720000   2510.9712      4548.5711      7059.5423      301.27371      0.028267007    0.0013178293 
   3730000   2457.1198      4584.147       7041.2668      303.63008      0.013278166    0.0013178293 
   3740000   2455.853       4565.4909      7021.3439      302.39439      0.0015504205   0.0013178293 
   3750000   2486.7383      4499.5175      6986.2558      298.02466      0.007878704    0.0013178293 
   3760000   2423.7141      4530.0227      6953.7368      300.04516     -0.006370847    0.0013178293 
   3770000   2475.1064      4545.7211      7020.8275      301.08494      0.0095817119   0.0013178293 
   3780000   2404.773       4526.3247      6931.0977      299.80023      0.018185545    0.0013178293 
   3790000   2452.7573      4517.3538      6970.1111      299.20604      0.019916252    0.0013178293 
   3800000   2468.2003      4478.6682      6946.8685      296.64371      0.011307678    0.0013178293 
   3810000   2483.7282      4494.0454      6977.7736      297.66221      0.020104452    0.0013178293 
   3820000   2492.7629      4599.6071      7092.37        304.65407      0.0077580772   0.0013178293 
   3830000   2496.8084      4567.2573      7064.0657      302.51138      0.0054390012   0.0013178293 
   3840000   2492.3329      4590.9361      7083.269       304.07975      0.023966495    0.0013178293 
   3850000   2506.0971      4502.0169      7008.114       298.1902       0.010503037    0.0013178293 
   3860000   2421.2779      4560.3206      6981.5985      302.05194     -0.010940746    0.0013178293 
   3870000   2527.5185      4512.9914      7040.51        298.9171       0.021733927    0.0013178293 
   3880000   2426.5565      4590.5161      7017.0727      304.05193      0.014000415    0.0013178293 
   3890000   2450.4335      4504.217       6954.6505      298.33592      0.010398981    0.0013178293 
   3900000   2490.8297      4564.5443      7055.374       302.33169      0.027674557    0.0013178293 
   3910000   2450.0935      4595.9719      7046.0654      304.41329      0.0094467487   0.0013178293 
   3920000   2427.8046      4542.3242      6970.1288      300.85995      0.028074354    0.0013178293 
   3930000   2455.0797      4440.5558      6895.6356      294.11934     -0.0083050515   0.0013178293 
   3940000   2470.7339      4476.2197      6946.9536      296.48153      0.011961029    0.0013178293 
   3950000   2488.8665      4652.124       7140.9906      308.13252      0.0041396999   0.0013178293 
   3960000   2457.313       4497.6501      6954.9631      297.90097      0.016990892    0.0013178293 
   3970000   2420.1917      4559.2085      6979.4002      301.97828      0.021674584    0.0013178293 
   3980000   2372.6783      4534.5194      6907.1977      300.343       -0.002101849    0.0013178293 
   3990000   2464.4973      4459.5404      6924.0378      295.37678     -0.016292643    0.0013178293 
   4000000   2449.339       4530.1419      6979.4809      300.05305     -0.01151241     0.0013178293 
   4010000   2420.9634      4587.3199      7008.2832      303.84023      0.025825341    0.0013178293 
   4020000   2433.7219      4484.489       6918.2108      297.02924      0.01691294     0.0013178293 
   4030000   2421.2554      4490.6424      6911.8977      297.43681     -0.01246392     0.0013178293 
   4040000   2534.4787      4550.7337      7085.2124      301.41695     -0.016245862    0.0013178293 
   4050000   2440.8888      4466.48        6907.3689      295.83643      0.012125174    0.0013178293 
   4060000   2498.5007      4554.9479      7053.4485      301.69607      0.02677542     0.0013178293 
   4070000   2419.7675      4472.7612      6892.5287      296.25245      0.023442235    0.0013178293 
   4080000   2397.5092      4540.4476      6937.9569      300.73565      0.0067804117   0.0013178293 
   4090000   2435.3634      4457.5328      6892.8963      295.24381      0.0039683361   0.0013178293 
   4100000   2465.1324      4602.8993      7068.0317      304.87213     -0.0010943345   0.0013178293 
   4110000   2468.9631      4611.8257      7080.7888      305.46336      0.0065593338   0.0013178293 
   4120000   2458.0777      4506.2135      6964.2912      298.46816     -0.0066181961   0.0013178293 
   4130000   2465.0306      4576.6798      7041.7104      303.13549      0.0093597151   0.0013178293 
   4140000   2503.388       4614.5526      7117.9406      305.64398     -0.0038450355   0.0013178293 
   4150000   2469.0363      4428.8997      6897.9359      293.3473      -0.0033997401   0.0013178293 
   4160000   2400.6529      4520.752       6921.405       299.43112     -0.010916014    0.0013178293 
   4170000   2431.9944      4516.0924      6948.0868      299.12249      0.0058999967   0.0013178293 
   4180000   2440.694       4567.5798      7008.2738      302.53275      0.0076385167   0.0013178293 
   4190000   2492.8848      4465.6575      6958.5424      295.78194      0.0034455992   0.0013178293 
   4200000   2497.2041      4480.1639      6977.368       296.74277      0.0064944562   0.0013178293 
   4210000   2460.0815      4480.1917      6940.2732      296.74461      0.011602687    0.0013178293 
   4220000   2432.7274      4531.0141      6963.7415      300.11082      0.0055063305   0.0013178293 
   4230000   2469.8777      4566.3754      7036.2531      302.45297      0.0028387446   0.0013178293 
   4240000   2525.9806      4530.5019      7056.4824      300.0769      -0.011851606    0.0013178293 
   4250000   2511.967       4502.3856      7014.3526      298.21462      0.0026612409   0.0013178293 
   4260000   2437.7292      4549.764       6987.4932      301.35272      0.034720758    0.0013178293 
   4270000   2538.2295      4491.6056      7029.835       297.50061      0.0073902012   0.0013178293 
   4280000   2451.4059      4492.9223      6944.3282      297.58782     -0.012525562    0.0013178293 
   4290000   2416.1744      4538.0003      6954.1747      300.57356      0.041772008    0.0013178293 
   4300000   2370.0803      4453.3297      6823.4099      294.96541      0.019717114    0.0013178293 
   4310000   2476.6404      4643.8659      7120.5063      307.58554     -0.0055778701   0.0013178293 
   4320000   2454.714       4469.7258      6924.4398      296.05141     -0.0033293509   0.0013178293 
   4330000   2484.4449      4534.9284      7019.3732      300.37009     -0.0066203326   0.0013178293 
   4340000   2424.3181      4439.1828      6863.5009      294.0284       0.015843997    0.0013178293 
   4350000   2420.8194      4584.9982      7005.8176      303.68645     -0.0098462709   0.0013178293 
   4360000   2447.0734      4489.7434      6936.8168      297.37727      0.0026763909   0.0013178293 
   4370000   2475.0501      4570.7038      7045.7539      302.73966      0.012078124    0.0013178293 
   4380000   2453.8966      4501.1951      6955.0917      298.13577      0.0099836085   0.0013178293 
   4390000   2451.7924      4494.7038      6946.4962      297.70582      0.0059438441   0.0013178293 
   4400000   2418.4784      4530.1512      6948.6296      300.05367      0.0061473756   0.0013178293 
   4410000   2410.4725      4493.9645      6904.437       297.65685     -0.0041095194   0.0013178293 
   4420000   2434.6039      4590.8739      7025.4778      304.07563      0.00078472773  0.0013178293 
   4430000   2469.2656      4542.3011      7011.5667      300.85842      0.014173241    0.0013178293 
   4440000   2457.1218      4457.5396      6914.6614      295.24426      0.0075729136   0.0013178293 
   4450000   2449.4834      4554.4246      7003.9079      301.66141      0.034726502    0.0013178293 
   4460000   2461.6674      4527.7227      6989.3901      299.89282      0.028964717    0.0013178293 
   4470000   2455.5643      4523.3398      6978.9041      299.60252      0.033236886    0.0013178293 
   4480000   2419.2526      4526.0104      6945.263       299.77941      0.026610818    0.0013178293 
   4490000   2475.9011      4594.5457      7070.4469      304.31883      0.007938355    0.0013178293 
   4500000   2413.4792      4538.6234      6952.1026      300.61482      0.0026944406   0.0013178293 
   4510000   2391.6463      4473.1014      6864.7478      296.27499      0.014632147    0.0013178293 
   4520000   2429.42        4595.6668      7025.0868      304.39309      0.011539677    0.0013178293 
   4530000   2474.3939      4579.7344      7054.1284      303.33781     -0.011802761    0.0013178293 
   4540000   2441.0224      4557.1456      6998.168       301.84164      0.0045195507   0.0013178293 
   4550000   2489.1637      4559.7955      7048.9592      302.01716      0.0045210321   0.0013178293 
   4560000   2514.4539      4480.1322      6994.5861      296.74067     -0.0012048828   0.0013178293 
   4570000   2416.1041      4464.7365      6880.8406      295.72094      0.014950262    0.0013178293 
   4580000   2437.5795      4510.3416      6947.9212      298.74159      0.00038107778  0.0013178293 
   4590000   2370.608       4602.2332      6972.8412      304.82801      0.013070652    0.0013178293 
   4600000   2480.318       4491.0559      6971.3739      297.4642       0.018999007    0.0013178293 
   4610000   2529.0194      4619.1295      7148.1489      305.94713     -0.0014119596   0.0013178293 
   4620000   2552.241       4464.3536      7016.5946      295.69558     -0.011572314    0.0013178293 
   4630000   2447.3893      4529.6467      6977.036       300.02026     -0.005275303    0.0013178293 
   4640000   2450.9709      4530.1704      6981.1413      300.05495      0.010870281    0.0013178293 
   4650000   2436.3839      4478.4042      6914.7881      296.62622     -0.015339763    0.0013178293 
   4660000   2479.0829      4548.3781      7027.461       301.26093      0.02191829     0.0013178293 
   4670000   2384.9748      4548.3711      6933.3458      301.26046     -0.0091773988   0.0013178293 
   4680000   2397.4562      4554.9311      6952.3873      301.69497      0.006147856    0.0013178293 
   4690000   2425.1826      4537.3386      6962.5212      300.52973      0.0085225188   0.0013178293 
   4700000   2513.1962      4606.6815      7119.8776      305.12264      0.0080980853   0.0013178293 
   4710000   2384.1446      4476.1851      6860.3297      296.47924      0.0047968351   0.0013178293 
   4720000   2425.1194      4454.4608      6879.5802      295.04033      0.0076675908   0.0013178293 
   4730000   2451.7765      4554.7856      7006.562       301.68532      0.0195849      0.0013178293 
   4740000   2503.404       4552.68        7056.084       301.54586      0.032913295    0.0013178293 
   4750000   2456.0187      4580.8679      7036.8866      303.41288     -0.0040110476   0.0013178293 
   4760000   2482.3226      4496.9541      6979.2767      297.85487     -0.014196037    0.0013178293 
   4770000   2487.5784      4534.746       7022.3243      300.35801      0.014175403    0.0013178293 
   4780000   2436.3866      4443.1914      6879.5781      294.29391      0.012662109    0.0013178293 
   4790000   2389.5208      4449.1567      6838.6775      294.68902      0.0093541329   0.0013178293 
   4800000   2438.5817      4595.8903      7034.472       304.40789      0.024262677    0.0013178293 
   4810000   2471.3082      4522.3699      6993.6781      299.53828     -0.015777978    0.0013178293 
   4820000   2427.9014      4553.2031      6981.1045      301.58051      0.031947554    0.0013178293 
   4830000   2476.5265      4543.8899      7020.4164      300.96365      0.020713037    0.0013178293 
   4840000   2465.2436      4594.13        7059.3736      304.29129      0.011306435    0.0013178293 
   4850000   2420.0358      4469.0079      6889.0437      296.00386      0.029715866    0.0013178293 
   4860000   2421.6675      4596.732       7018.3995      304.46364      0.010913705    0.0013178293 
   4870000   2432.4928      4526.3719      6958.8647      299.80335      0.0012391691   0.0013178293 
   4880000   2456.6355      4453.4404      6910.0759      294.97275     -0.014561894    0.0013178293 
   4890000   2443.7001      4666.1458      7109.8458      309.06124      0.0050062854   0.0013178293 
   4900000   2458.4273      4514.1511      6972.5783      298.99391      0.010150241    0.0013178293 
   4910000   2438.0505      4533.5736      6971.6241      300.28036      0.0046554914   0.0013178293 
   4920000   2475.6876      4459.0299      6934.7175      295.34296      0.0077982342   0.0013178293 
   4930000   2457.159       4606.5758      7063.7349      305.11564      0.010479207    0.0013178293 
   4940000   2426.614       4517.9268      6944.5409      299.24399     -0.0059141521   0.0013178293 
   4950000   2444.4661      4565.6668      7010.1329      302.40604     -0.0066513001   0.0013178293 
   4960000   2480.9133      4516.9381      6997.8514      299.17851      0.0093554776   0.0013178293 
   4970000   2413.359       4527.694       6941.0529      299.89092      0.02240972     0.0013178293 
   4980000   2505.3591      4547.2106      7052.5697      301.1836      -0.00068702131  0.0013178293 
   4990000   2467.4501      4519.1086      6986.5587      299.32227      0.0065428947   0.0013178293 
   5000000   2392.5875      4492.98        6885.5675      297.59165      0.031301665    0.0013178293 
Loop time of 324.552 on 32 procs for 5000000 steps with 5066 atoms

Performance: 13310.653 ns/day, 0.002 hours/ns, 15405.848 timesteps/s, 78.046 Matom-step/s
99.4% CPU use with 32 MPI tasks x 1 OpenMP threads

MPI task timing breakdown:
Section |  min time  |  avg time  |  max time  |%varavg| %total
---------------------------------------------------------------
Pair    | 56.27      | 69.261     | 164.63     | 220.1 | 21.34
Bond    | 17.031     | 25.803     | 46.744     | 125.8 |  7.95
Neigh   | 1.4484     | 1.4728     | 1.4933     |   1.0 |  0.45
Comm    | 94.206     | 203.75     | 233.39     | 170.3 | 62.78
Output  | 0.081796   | 0.10692    | 0.22618    |   7.5 |  0.03
Modify  | 10.333     | 15.712     | 27.986     |  96.6 |  4.84
Other   |            | 8.448      |            |       |  2.60

Nlocal:        158.312 ave         276 max          82 min
Histogram: 4 3 6 5 5 3 2 2 0 2
Nghost:        94.1875 ave         147 max          37 min
Histogram: 2 3 3 4 0 7 2 6 2 3
Neighs:        278.438 ave         526 max         124 min
Histogram: 4 5 5 6 4 3 1 0 0 4

Total # of neighbors = 8910
Ave neighs/atom = 1.7587841
Ave special neighs/atom = 4.8132649
Neighbor list builds = 13233
Dangerous builds = 0
Generated 0 of 6 mixed pair_coeff terms from geometric mixing rule
Setting up Verlet run ...
  Unit style    : real
  Current step  : 5000000
  Time step     : 10
Per MPI rank memory allocation (min/avg/max) = 8.708 | 8.76 | 8.98 Mbytes
   Step         PotEng         KinEng         TotEng          Temp          Press         Density    
   5000000   2392.5875      4492.98        6885.5675      297.59165      0.031301665    0.0013178293 
   5010000   2387.5733      4523.0536      6910.6269      299.58356      0.011478784    0.0013178293 
   5020000   2455.2713      4491.5789      6946.8502      297.49884      0.00673883     0.0013178293 
   5030000   2442.0788      4469.0136      6911.0924      296.00424      0.0075334589   0.0013178293 
   5040000   2446.8499      4521.5862      6968.436       299.48637     -0.0078663377   0.0013178293 
   5050000   2469.0158      4549.2614      7018.2772      301.31943      0.023527305    0.0013178293 
   5060000   2392.2931      4490.1486      6882.4417      297.40411      0.0087398355   0.0013178293 
   5070000   2465.2615      4504.8045      6970.066       298.37484     -0.015482811    0.0013178293 
   5080000   2416.4235      4479.2118      6895.6353      296.67971      0.011081669    0.0013178293 
   5090000   2404.9192      4536.5307      6941.4498      300.47621      0.005477593    0.0013178293 
   5100000   2465.7213      4481.0894      6946.8107      296.80407      0.01800584     0.0013178293 
   5110000   2372.8808      4484.8692      6857.75        297.05443      0.011555643    0.0013178293 
   5120000   2499.2862      4549.7657      7049.052       301.35284      8.9673303e-05  0.0013178293 
   5130000   2435.9529      4560.747       6996.6999      302.08018      0.02125966     0.0013178293 
   5140000   2440.9164      4504.4206      6945.3371      298.34941      0.015363313    0.0013178293 
   5150000   2541.9899      4512.6842      7054.6741      298.89675     -0.0071813112   0.0013178293 
   5160000   2402.7751      4520.8469      6923.622       299.43741      0.0069441068   0.0013178293 
   5170000   2429.549       4500.4062      6929.9552      298.08352      0.0069262205   0.0013178293 
   5180000   2456.9074      4515.857       6972.7644      299.1069       0.0049333459   0.0013178293 
   5190000   2457.2841      4542.8039      7000.0879      300.89172     -0.015496247    0.0013178293 
   5200000   2507.4724      4508.8593      7016.3317      298.64341      0.0025754604   0.0013178293 
   5210000   2518.3287      4589.7669      7108.0956      304.0023       0.012103373    0.0013178293 
   5220000   2456.6394      4442.4976      6899.1369      294.24795      0.03212898     0.0013178293 
   5230000   2467.1909      4515.9016      6983.0925      299.10985      0.0033862997   0.0013178293 
   5240000   2476.5181      4542.3277      7018.8458      300.86018     -0.0081303479   0.0013178293 
   5250000   2497.7792      4477.1428      6974.922       296.54267     -0.007288654    0.0013178293 
   5260000   2394.6652      4461.0615      6855.7267      295.47753      0.01013505     0.0013178293 
   5270000   2474.3739      4589.6024      7063.9764      303.99141      0.0042820835   0.0013178293 
   5280000   2405.5076      4540.3173      6945.8249      300.72702      0.021934066    0.0013178293 
   5290000   2459.2347      4554.6652      7013.8999      301.67735      0.018527022    0.0013178293 
   5300000   2468.1541      4507.3305      6975.4846      298.54215      2.2267122e-05  0.0013178293 
   5310000   2436.9103      4467.5065      6904.4168      295.90442     -0.0090023807   0.0013178293 
   5320000   2487.3035      4461.7776      6949.0811      295.52496      0.015783204    0.0013178293 
   5330000   2380.1772      4452.0579      6832.2351      294.88118      0.028418896    0.0013178293 
   5340000   2418.8661      4605.9818      7024.8479      305.0763       0.012479327    0.0013178293 
   5350000   2505.5182      4475.3565      6980.8747      296.42435     -0.00012152959  0.0013178293 
   5360000   2461.8862      4583.3121      7045.1983      303.57478      0.018793327    0.0013178293 
   5370000   2461.2883      4608.8179      7070.1062      305.26414      0.020928274    0.0013178293 
   5380000   2463.4218      4616.7484      7080.1702      305.78942      0.024953084    0.0013178293 
   5390000   2475.3955      4570.974       7046.3695      302.75756      0.019650649    0.0013178293 
   5400000   2454.3424      4509.5322      6963.8745      298.68797      0.024214034    0.0013178293 
   5410000   2415.1551      4539.3065      6954.4616      300.66007      0.019487448    0.0013178293 
   5420000   2461.3651      4568.9581      7030.3232      302.62404      0.009071898    0.0013178293 
   5430000   2429.2854      4513.7798      6943.0652      298.96931      0.0099099859   0.0013178293 
   5440000   2475.8866      4530.3192      7006.2058      300.0648      -0.0057037953   0.0013178293 
   5450000   2470.2881      4555.4524      7025.7405      301.72949      0.043064984    0.0013178293 
   5460000   2453.6907      4614.5484      7068.239       305.6437       0.0095132014   0.0013178293 
   5470000   2490.4115      4446.102       6936.5135      294.48669      0.012780655    0.0013178293 
   5480000   2544.6277      4604.871       7149.4987      305.00273      0.011570768    0.0013178293 
   5490000   2438.8484      4522.3013      6961.1497      299.53374      0.016962963    0.0013178293 
   5500000   2412.6404      4533.4399      6946.0803      300.2715      -0.012456669    0.0013178293 
   5510000   2494.9711      4637.5561      7132.5271      307.16761      0.0015976013   0.0013178293 
   5520000   2504.5588      4571.6803      7076.2391      302.80434      0.0095126241   0.0013178293 
   5530000   2452.4511      4447.468       6899.9191      294.57717     -0.008379363    0.0013178293 
   5540000   2427.1185      4595.8891      7023.0076      304.40781      0.035584106    0.0013178293 
   5550000   2494.1171      4549.3506      7043.4677      301.32534      0.010773209    0.0013178293 
   5560000   2461.315       4468.3517      6929.6667      295.9604       0.0088227192   0.0013178293 
   5570000   2461.8086      4546.4524      7008.2611      301.13338     -0.0059926198   0.0013178293 
   5580000   2437.3917      4514.0337      6951.4254      298.98613     -0.0045706156   0.0013178293 
   5590000   2514.4599      4491.2109      7005.6708      297.47447      0.021927348    0.0013178293 
   5600000   2470.868       4452.7747      6923.6427      294.92866     -0.014340889    0.0013178293 
   5610000   2469.4466      4564.8563      7034.3028      302.35236      0.023943976    0.0013178293 
   5620000   2484.0557      4528.2637      7012.3195      299.92866      0.0045460505   0.0013178293 
   5630000   2463.1393      4604.1706      7067.31        304.95633      0.021845257    0.0013178293 
   5640000   2422.2961      4533.4066      6955.7027      300.26929     -0.01351861     0.0013178293 
   5650000   2483.3338      4507.4901      6990.824       298.55272      0.010554606    0.0013178293 
   5660000   2555.5742      4558.0974      7113.6717      301.90468     -0.011790401    0.0013178293 
   5670000   2501.0576      4602.9339      7103.9914      304.87442      0.00786273     0.0013178293 
   5680000   2501.4864      4585.8621      7087.3485      303.74367      0.024205669    0.0013178293 
   5690000   2464.1915      4515.5502      6979.7417      299.08658      0.019240917    0.0013178293 
   5700000   2570.3543      4524.9477      7095.302       299.70902     -0.0048956864   0.0013178293 
   5710000   2473.8068      4467.4982      6941.305       295.90387      0.019458776    0.0013178293 
   5720000   2484.0199      4495.9752      6979.9951      297.79003      0.01869966     0.0013178293 
   5730000   2455.2366      4439.6118      6894.8484      294.05681      0.012294501    0.0013178293 
   5740000   2516.7292      4414.8531      6931.5823      292.41692     -0.0039895663   0.0013178293 
   5750000   2450.6841      4543.3036      6993.9877      300.92482      0.0016052774   0.0013178293 
   5760000   2493.3855      4524.7398      7018.1253      299.69525      0.0050035638   0.0013178293 
   5770000   2463.2729      4522.7001      6985.973       299.56015      0.018196954    0.0013178293 
   5780000   2453.3457      4488.8225      6942.1682      297.31627      0.027802985    0.0013178293 
   5790000   2502.1697      4635.6935      7137.8632      307.04425      0.025402894    0.0013178293 
   5800000   2465.1787      4573.179       7038.3578      302.90361      0.0031472307   0.0013178293 
   5810000   2414.6743      4425.5637      6840.2379      293.12634      0.020236163    0.0013178293 
   5820000   2449.1156      4468.5622      6917.6777      295.97433      0.0082335261   0.0013178293 
   5830000   2418.9285      4421.4143      6840.3428      292.8515       0.016988265    0.0013178293 
   5840000   2504.6972      4494.3041      6999.0013      297.67935     -0.010337935    0.0013178293 
   5850000   2479.8274      4501.6717      6981.499       298.16734      0.0019387764   0.0013178293 
   5860000   2451.179       4446.9838      6898.1628      294.5451      -0.0016037703   0.0013178293 
   5870000   2510.5439      4477.9476      6988.4915      296.59597     -0.00026496821  0.0013178293 
   5880000   2422.5643      4442.2812      6864.8456      294.23362      0.0027983667   0.0013178293 
   5890000   2393.0775      4425.2651      6818.3426      293.10656      0.008946049    0.0013178293 
   5900000   2462.616       4492.6773      6955.2933      297.57159      0.035870742    0.0013178293 
   5910000   2455.0792      4494.0143      6949.0935      297.66015      0.0083412564   0.0013178293 
   5920000   2446.2766      4547.0798      6993.3564      301.17493     -0.002863933    0.0013178293 
   5930000   2433.3201      4446.0317      6879.3518      294.48203      0.017708955    0.0013178293 
   5940000   2373.1953      4644.1948      7017.3901      307.60733     -0.0048791053   0.0013178293 
   5950000   2472.9004      4568.0337      7040.9342      302.56281     -0.0218485      0.0013178293 
   5960000   2422.6539      4512.8478      6935.5017      298.90758     -0.0066655638   0.0013178293 
   5970000   2440.4589      4481.6587      6922.1177      296.84178     -0.0057112588   0.0013178293 
   5980000   2519.4126      4553.2885      7072.7011      301.58616      0.024619603    0.0013178293 
   5990000   2443.0977      4573.4205      7016.5182      302.91961      0.025436382    0.0013178293 
   6000000   2438.9563      4573.7896      7012.7459      302.94405      0.0051495673   0.0013178293 
   6010000   2478.7995      4557.0058      7035.8053      301.83238     -0.0036908336   0.0013178293 
   6020000   2354.8099      4490.3373      6845.1471      297.4166       0.019024879    0.0013178293 
   6030000   2438.4553      4463.9685      6902.4238      295.67008     -0.0056198652   0.0013178293 
   6040000   2430.0725      4508.1086      6938.1811      298.59368     -0.0072026121   0.0013178293 
   6050000   2495.1416      4628.2693      7123.4108      306.5525      -0.015984796    0.0013178293 
   6060000   2446.8651      4614.4245      7061.2895      305.6355       0.019683382    0.0013178293 
   6070000   2493.1248      4402.4254      6895.5502      291.59378      0.0050986536   0.0013178293 
   6080000   2507.6094      4576.5478      7084.1571      303.12674      0.023942129    0.0013178293 
   6090000   2404.7438      4515.1168      6919.8605      299.05787      0.017635509    0.0013178293 
   6100000   2391.2838      4497.0435      6888.3273      297.86079      0.003698014    0.0013178293 
   6110000   2435.3721      4597.6157      7032.9878      304.52217      0.013186668    0.0013178293 
   6120000   2475.1848      4559.6358      7034.8206      302.00658      0.016554604    0.0013178293 
   6130000   2424.6554      4428.8945      6853.5499      293.34695      0.0099831124   0.0013178293 
   6140000   2410.1663      4558.7681      6968.9344      301.94911      0.0039123124   0.0013178293 
   6150000   2454.1392      4484.3557      6938.4949      297.02042     -0.011915626    0.0013178293 
   6160000   2461.8921      4558.0786      7019.9707      301.90344      0.0141677      0.0013178293 
   6170000   2466.4935      4541.9476      7008.4411      300.835        0.0084118413   0.0013178293 
   6180000   2474.9721      4551.9517      7026.9238      301.49763      0.017256714    0.0013178293 
   6190000   2360.8984      4429.3619      6790.2603      293.37791      0.024083894    0.0013178293 
   6200000   2471.5058      4471.1516      6942.6574      296.14585      0.017006229    0.0013178293 
   6210000   2461.3744      4646.755       7108.1294      307.7769       0.018639121    0.0013178293 
   6220000   2459.9612      4567.0071      7026.9683      302.49482      0.019530113    0.0013178293 
   6230000   2371.4517      4463.64        6835.0918      295.64832      0.0068966502   0.0013178293 
   6240000   2502.8262      4471.5762      6974.4024      296.17397      0.035563231    0.0013178293 
   6250000   2470.1391      4568.9382      7039.0773      302.62272      0.032997957    0.0013178293 
   6260000   2442.5982      4581.083       7023.6812      303.42713      0.0039161899   0.0013178293 
   6270000   2489.2448      4519.2269      7008.4717      299.3301       0.043537344    0.0013178293 
   6280000   2541.0937      4525.1306      7066.2242      299.72113      0.053682333    0.0013178293 
   6290000   2444.229       4511.9601      6956.1892      298.84879      0.0081459602   0.0013178293 
   6300000   2505.311       4455.6924      6961.0034      295.12191      0.010662571    0.0013178293 
   6310000   2452.5167      4467.6481      6920.1648      295.91379     -7.9404601e-05  0.0013178293 
   6320000   2439.4292      4506.883       6946.3122      298.51251      0.0072861203   0.0013178293 
   6330000   2464.3368      4536.1148      7000.4516      300.44867      0.0028185333   0.0013178293 
   6340000   2439.8703      4506.9978      6946.8681      298.52011     -0.015491228    0.0013178293 
   6350000   2482.2612      4592.5266      7074.7877      304.18509      0.010929077    0.0013178293 
   6360000   2423.8928      4543.5259      6967.4187      300.93954      0.0088745157   0.0013178293 
   6370000   2428.3344      4466.1083      6894.4428      295.81181      0.012834692    0.0013178293 
   6380000   2379.1956      4535.9323      6915.1278      300.43658      0.023109868    0.0013178293 
   6390000   2466.3436      4523.1322      6989.4759      299.58877      0.027160144    0.0013178293 
   6400000   2462.8194      4461.3991      6924.2185      295.49989      0.0016699739   0.0013178293 
   6410000   2440.6598      4499.1592      6939.8191      298.00092     -0.0025644612   0.0013178293 
   6420000   2482.0935      4575.6136      7057.7071      303.06487     -0.014744008    0.0013178293 
   6430000   2385.2695      4600.1199      6985.3894      304.68804      0.0081615665   0.0013178293 
   6440000   2398.9839      4493.6639      6892.6478      297.63695      0.0089052776   0.0013178293 
   6450000   2434.2794      4486.9222      6921.2016      297.19041      0.029552272    0.0013178293 
   6460000   2503.7053      4535.7075      7039.4128      300.42169      0.016724062    0.0013178293 
   6470000   2450.2613      4486.1192      6936.3804      297.13722      0.01188889     0.0013178293 
   6480000   2497.8359      4482.55        6980.3859      296.90081      0.0025523852   0.0013178293 
   6490000   2506.7164      4573.3249      7080.0413      302.91327     -0.015694868    0.0013178293 
   6500000   2466.9894      4555.0226      7022.0121      301.70103     -0.005456345    0.0013178293 
   6510000   2470.2946      4564.8966      7035.1912      302.35503      0.027586836    0.0013178293 
   6520000   2460.3176      4508.3686      6968.6863      298.61091      0.015749479    0.0013178293 
   6530000   2471.7172      4471.636       6943.3532      296.17793      0.0099168843   0.0013178293 
   6540000   2459.7217      4492.9624      6952.6841      297.59048      0.015963991    0.0013178293 
   6550000   2423.8371      4582.1972      7006.0343      303.50093      0.016952002    0.0013178293 
   6560000   2403.3677      4540.2371      6943.6049      300.72171      0.014931376    0.0013178293 
   6570000   2488.7768      4474.8258      6963.6026      296.38921      0.025093216    0.0013178293 
   6580000   2500.9976      4536.5692      7037.5668      300.47877      0.0086204139   0.0013178293 
   6590000   2432.9861      4476.9943      6909.9804      296.53283      0.0037813463   0.0013178293 
   6600000   2409.9461      4517.201       6927.1471      299.19592      0.010349326    0.0013178293 
   6610000   2386.9937      4566.9133      6953.9069      302.4886       0.013739251    0.0013178293 
   6620000   2427.3326      4526.8315      6954.1641      299.83379     -0.0004963858   0.0013178293 
   6630000   2419.5328      4439.5618      6859.0946      294.0535       0.018785814    0.0013178293 
   6640000   2470.8196      4556.4247      7027.2442      301.79389      0.009227623    0.0013178293 
   6650000   2458.5321      4599.0932      7057.6253      304.62003      0.026363419    0.0013178293 
   6660000   2467.5651      4484.6048      6952.1699      297.03691     -0.0058621029   0.0013178293 
   6670000   2496.0388      4418.8263      6914.8651      292.68009      0.023262047    0.0013178293 
   6680000   2491.9341      4563.0619      7054.9959      302.2335       0.03091465     0.0013178293 
   6690000   2476.3359      4522.6199      6998.9558      299.55484      0.032840216    0.0013178293 
   6700000   2472.051       4580.5684      7052.6194      303.39304     -0.00093136785  0.0013178293 
   6710000   2488.6812      4578.7018      7067.383       303.26941     -0.0098007669   0.0013178293 
   6720000   2435.1818      4470.5742      6905.7561      296.1076       0.0038809414   0.0013178293 
   6730000   2441.1061      4567.3052      7008.4113      302.51456      0.023615822    0.0013178293 
   6740000   2428.6061      4500.1086      6928.7147      298.06381      0.015637479    0.0013178293 
   6750000   2518.14        4569.108       7087.248       302.63397      0.024043711    0.0013178293 
   6760000   2437.2138      4573.6859      7010.8997      302.93718      0.014244519    0.0013178293 
   6770000   2418.1702      4476.0814      6894.2515      296.47237      0.017747223    0.0013178293 
   6780000   2472.2487      4572.9687      7045.2174      302.88968      0.012504556    0.0013178293 
   6790000   2467.8528      4503.3578      6971.2106      298.27901      0.021416764    0.0013178293 
   6800000   2379.3228      4613.099       6992.4217      305.5477       0.0086411314   0.0013178293 
   6810000   2483.7931      4565.0122      7048.8054      302.36268      0.0082001409   0.0013178293 
   6820000   2418.8713      4547.1054      6965.9767      301.17663      0.010219488    0.0013178293 
   6830000   2385.9774      4619.3025      7005.2799      305.95859      0.027468044    0.0013178293 
   6840000   2448.4895      4698.5627      7147.0522      311.20838      0.01257142     0.0013178293 
   6850000   2443.2648      4521.5441      6964.8089      299.48358      0.016967299    0.0013178293 
   6860000   2480.2967      4515.9276      6996.2242      299.11157      0.029995955    0.0013178293 
   6870000   2485.5682      4612.3407      7097.9089      305.49748      0.041895694    0.0013178293 
   6880000   2524.6848      4474.9003      6999.5852      296.39414      0.019702916    0.0013178293 
   6890000   2475.2519      4541.4501      7016.7019      300.80205     -0.0082144608   0.0013178293 
   6900000   2414.8329      4482.7078      6897.5407      296.91127      0.0043977322   0.0013178293 
   6910000   2480.2099      4524.278       7004.4879      299.66466      0.00099920509  0.0013178293 
   6920000   2425.6022      4460.6794      6886.2816      295.45222      0.033256625    0.0013178293 
   6930000   2463.0641      4508.0099      6971.074       298.58715      0.0059644757   0.0013178293 
   6940000   2436.3783      4590.0569      7026.4351      304.02151      0.0053416868   0.0013178293 
   6950000   2421.9306      4468.4905      6890.4211      295.96959      0.018433545    0.0013178293 
   6960000   2478.0244      4499.4661      6977.4905      298.02125     -0.0024367406   0.0013178293 
   6970000   2456.6581      4510.6378      6967.2959      298.76121      0.0050162973   0.0013178293 
   6980000   2476.6884      4577.4126      7054.101       303.18402      0.020020676    0.0013178293 
   6990000   2433.3255      4552.6519      6985.9774      301.544        0.019214218    0.0013178293 
   7000000   2439.033       4415.0937      6854.1267      292.43286      0.01316059     0.0013178293 
   7010000   2522.9704      4543.4137      7066.3841      300.93211      0.017676817    0.0013178293 
   7020000   2462.4539      4496.2167      6958.6706      297.80603      0.014097582    0.0013178293 
   7030000   2460.4888      4487.7439      6948.2327      297.24483      0.013705464    0.0013178293 
   7040000   2469.8218      4492.9585      6962.7803      297.59022     -0.017382143    0.0013178293 
   7050000   2481.465       4529.5543      7011.0193      300.01414      0.019620154    0.0013178293 
   7060000   2442.5459      4492.3187      6934.8645      297.54784     -0.013294766    0.0013178293 
   7070000   2429.3462      4535.6772      6965.0234      300.41969     -0.009524814    0.0013178293 
   7080000   2407.0663      4485.25        6892.3163      297.07965      0.0051219154   0.0013178293 
   7090000   2462.4799      4522.9311      6985.411       299.57545      0.027350867    0.0013178293 
   7100000   2470.627       4542.1192      7012.7462      300.84637      0.034675512    0.0013178293 
   7110000   2417.6372      4515.2727      6932.9098      299.06819     -0.01890585     0.0013178293 
   7120000   2441.2785      4428.4257      6869.7042      293.3159       0.024051292    0.0013178293 
   7130000   2477.6097      4506.3213      6983.931       298.4753       0.014712818    0.0013178293 
   7140000   2434.6345      4594.3182      7028.9527      304.30376      0.026572949    0.0013178293 
   7150000   2396.9632      4506.0117      6902.9749      298.4548       0.017685005    0.0013178293 
   7160000   2434.3336      4533.2058      6967.5395      300.256        0.020277655    0.0013178293 
   7170000   2490.945       4562.9404      7053.8854      302.22546      0.0061402763   0.0013178293 
   7180000   2439.2595      4596.4065      7035.6659      304.44208      0.012389616    0.0013178293 
   7190000   2456.3058      4532.3343      6988.6401      300.19827      0.010683256    0.0013178293 
   7200000   2427.341       4587.1103      7014.4513      303.82635      0.021681337    0.0013178293 
   7210000   2429.9556      4485.9955      6915.9511      297.12903      0.0057581358   0.0013178293 
   7220000   2506.6161      4513.3643      7019.9804      298.94179      0.030508665    0.0013178293 
   7230000   2418.6945      4558.9854      6977.6799      301.9635      -0.0014378567   0.0013178293 
   7240000   2444.0785      4541.7596      6985.8382      300.82255      0.010308083    0.0013178293 
   7250000   2439.8766      4462.0634      6901.94        295.54389      0.019101788    0.0013178293 
   7260000   2430.1425      4522.3033      6952.4457      299.53387      0.021299851    0.0013178293 
   7270000   2449.6807      4600.5492      7050.2299      304.71647     -0.011189632    0.0013178293 
[...]
 103190000   2531.4447      4520.1811      7051.6258      299.3933       0.0035427743   0.0013178293 
 103200000   2473.1278      4454.3472      6927.475       295.03281      0.017334238    0.0013178293 
 103210000   2476.3927      4528.7255      7005.1182      299.95924      0.009027372    0.0013178293 
 103220000   2420.9188      4397.1034      6818.0223      291.24128      0.01275233     0.0013178293 
 103230000   2489.1076      4493.251       6982.3586      297.6096       0.021669502    0.0013178293 
 103240000   2428.7815      4578.7353      7007.5168      303.27163      0.0073198186   0.0013178293 
 103250000   2492.5771      4557.968       7050.5451      301.89611     -0.00019445961  0.0013178293 
 103260000   2461.7194      4546.3881      7008.1075      301.12912      0.013752764    0.0013178293 
 103270000   2439.1684      4518.6096      6957.778       299.28921      0.0087992696   0.0013178293 
 103280000   2494.1427      4563.7868      7057.9295      302.28152      0.00017895148  0.0013178293 
 103290000   2441.5905      4555.0983      6996.6888      301.70604      0.02393731     0.0013178293 
 103300000   2496.4579      4611.5936      7108.0515      305.44799     -0.00079366865  0.0013178293 
 103310000   2486.1186      4505.0939      6991.2125      298.39401      0.0076449256   0.0013178293 
 103320000   2495.8419      4495.2983      6991.1403      297.7452       0.023098278    0.0013178293 
 103330000   2488.4724      4475.9378      6964.4102      296.46286      0.00088746059  0.0013178293 
 103340000   2491.3255      4506.349       6997.6744      298.47714     -0.0087762447   0.0013178293 
 103350000   2477.7933      4534.3227      7012.116       300.32997      0.0074913344   0.0013178293 
 103360000   2453.6608      4575.1778      7028.8386      303.036        0.02875538     0.0013178293 
 103370000   2491.2082      4615.3067      7106.5149      305.69393      0.0030251618   0.0013178293 
 103380000   2420.769       4608.0053      7028.7743      305.21032      0.018332501    0.0013178293 
 103390000   2488.4917      4451.6242      6940.1159      294.85245      0.0068815115   0.0013178293 
 103400000   2423.6485      4574.3502      6997.9987      302.98118      0.031975739    0.0013178293 
 103410000   2468.8077      4597.5808      7066.3885      304.51986      0.0038272708   0.0013178293 
 103420000   2448.9826      4482.3209      6931.3035      296.88564      0.0057367549   0.0013178293 
 103430000   2420.6726      4497.2569      6917.9296      297.87493      0.015383221    0.0013178293 
 103440000   2515.5628      4499.1963      7014.7591      298.00338      0.0037911055   0.0013178293 
 103450000   2443.6988      4496.9345      6940.6332      297.85357      0.032690392    0.0013178293 
 103460000   2431.3198      4461.6303      6892.95        295.5152       0.008143734    0.0013178293 
 103470000   2480.9336      4592.7622      7073.6959      304.2007       0.0044049776   0.0013178293 
 103480000   2492.1243      4466.8609      6958.9852      295.86165     -0.0023207503   0.0013178293 
 103490000   2464.0643      4552.6457      7016.71        301.54359      0.032424024    0.0013178293 
 103500000   2527.8213      4462.1337      6989.955       295.54855      0.0011493328   0.0013178293 
 103510000   2355.0302      4588.1856      6943.2157      303.89757      0.026359265    0.0013178293 
 103520000   2444.7184      4465.5676      6910.286       295.77599      0.02359223     0.0013178293 
 103530000   2526.295       4427.0508      6953.3458      293.22484      0.0034082228   0.0013178293 
 103540000   2422.6557      4574.3272      6996.9829      302.97966     -0.0024988115   0.0013178293 
 103550000   2467.4369      4645.6115      7113.0484      307.70116      0.0024333665   0.0013178293 
 103560000   2502.0932      4566.7414      7068.8346      302.47721      0.018964922    0.0013178293 
 103570000   2472.145       4423.896       6896.041       293.01588     -0.010539586    0.0013178293 
 103580000   2466.1901      4549.0754      7015.2655      301.30712     -0.004280666    0.0013178293 
 103590000   2477.4492      4487.879       6965.3281      297.25378     -0.00076796998  0.0013178293 
 103600000   2418.9799      4501.2248      6920.2046      298.13773      0.020072204    0.0013178293 
 103610000   2429.2162      4508.4686      6937.6848      298.61753      0.0097379052   0.0013178293 
 103620000   2508.0452      4462.5883      6970.6335      295.57866      0.011997638    0.0013178293 
 103630000   2421.4231      4508.7201      6930.1432      298.63419      0.015302578    0.0013178293 
 103640000   2536.106       4582.703       7118.809       303.53443      0.016861595    0.0013178293 
 103650000   2435.1125      4555.6271      6990.7396      301.74107     -0.01121932     0.0013178293 
 103660000   2447.9244      4506.148       6954.0724      298.46382      0.0055370968   0.0013178293 
 103670000   2503.0715      4611.5862      7114.6577      305.4475       0.0082518432   0.0013178293 
 103680000   2494.2486      4636.4541      7130.7027      307.09462     -0.0020251383   0.0013178293 
 103690000   2495.0887      4529.5753      7024.664       300.01553      0.0084418732   0.0013178293 
 103700000   2481.2065      4437.6371      6918.8436      293.92602      0.015502334    0.0013178293 
 103710000   2448.68        4541.4034      6990.0834      300.79896      0.028109765    0.0013178293 
 103720000   2457.2266      4478.0618      6935.2884      296.60354      0.017435463    0.0013178293 
 103730000   2468.195       4514.1951      6982.3901      298.99682      0.021116785    0.0013178293 
 103740000   2448.016       4463.9869      6912.0029      295.67129      0.0022918907   0.0013178293 
 103750000   2422.6182      4545.9353      6968.5535      301.09913      0.03188073     0.0013178293 
 103760000   2506.9943      4521.8781      7028.8723      299.5057       0.014952519    0.0013178293 
 103770000   2501.3964      4536.6462      7038.0426      300.48387     -0.01120731     0.0013178293 
 103780000   2464.2983      4492.6366      6956.9349      297.5689       0.015904408    0.0013178293 
 103790000   2464.9202      4522.8843      6987.8045      299.57235      0.015109624    0.0013178293 
 103800000   2476.2994      4546.8432      7023.1426      301.15926      0.009301498    0.0013178293 
 103810000   2437.41        4542.9141      6980.3241      300.89902      0.02181762     0.0013178293 
 103820000   2443.0261      4483.5567      6926.5828      296.96749     -0.0053746932   0.0013178293 
 103830000   2423.6984      4548.6413      6972.3398      301.27836      0.042317683    0.0013178293 
 103840000   2494.9549      4510.1041      7005.059       298.72585      0.031912008    0.0013178293 
 103850000   2409.7226      4528.5515      6938.2741      299.94772      0.012419086    0.0013178293 
 103860000   2514.4571      4502.5865      7017.0435      298.22793      0.03287963     0.0013178293 
 103870000   2450.4837      4589.8293      7040.3129      304.00644     -0.0066485598   0.0013178293 
 103880000   2435.2649      4539.3655      6974.6303      300.66398      0.00520459     0.0013178293 
 103890000   2416.1325      4531.375       6947.5075      300.13473      0.036960246    0.0013178293 
 103900000   2478.4615      4527.9469      7006.4084      299.90767     -0.023808281    0.0013178293 
 103910000   2417.3271      4366.2102      6783.5373      289.19507      0.014973621    0.0013178293 
 103920000   2456.7432      4411.3966      6868.1398      292.18799      0.00019826778  0.0013178293 
 103930000   2425.9466      4490.9786      6916.9251      297.45908      0.010145229    0.0013178293 
 103940000   2421.8199      4500.5576      6922.3774      298.09354     -0.0062804455   0.0013178293 
 103950000   2496.411       4572.1128      7068.5238      302.83299     -0.018001794    0.0013178293 
 103960000   2462.1938      4526.6151      6988.8089      299.81946      0.035398818    0.0013178293 
 103970000   2449.9616      4512.2783      6962.2399      298.86986      0.035954961    0.0013178293 
 103980000   2442.4459      4469.1342      6911.58        296.01222      0.0050874285   0.0013178293 
 103990000   2401.0038      4626.1068      7027.1106      306.40927      0.021626173    0.0013178293 
 104000000   2473.2626      4538.4239      7011.6865      300.60161      0.0170816      0.0013178293 
 104010000   2388.7956      4634.4594      7023.255       306.9625       0.033694644    0.0013178293 
 104020000   2494.3302      4502.3998      6996.73        298.21556     -0.011315374    0.0013178293 
 104030000   2424.1381      4504.8964      6929.0346      298.38093      0.028142156    0.0013178293 
 104040000   2462.0079      4619.8389      7081.8468      305.99412      0.029947047    0.0013178293 
 104050000   2512.8115      4582.1902      7095.0017      303.50046     -0.0022071642   0.0013178293 
 104060000   2447.1685      4649.0272      7096.1957      307.9274       0.030066711    0.0013178293 
 104070000   2464.481       4498.3993      6962.8803      297.95059      0.016837118    0.0013178293 
 104080000   2401.3198      4464.586       6865.9058      295.71098      0.018969638    0.0013178293 
 104090000   2430.7689      4565.2468      6996.0157      302.37822      0.031211962    0.0013178293 
 104100000   2478.8261      4514.9733      6993.7994      299.04837     -0.0031382661   0.0013178293 
 104110000   2441.6252      4448.9614      6890.5866      294.67608      0.021280717    0.0013178293 
 104120000   2447.2965      4441.8486      6889.1451      294.20497      0.022266586    0.0013178293 
 104130000   2501.1555      4461.5298      6962.6852      295.50855     -0.016378404    0.0013178293 
 104140000   2447.1292      4614.9438      7062.0731      305.6699       0.0078423511   0.0013178293 
 104150000   2484.8317      4499.7256      6984.5573      298.03844      0.0029268538   0.0013178293 
 104160000   2479.7655      4608.4149      7088.1803      305.23745      0.028303705    0.0013178293 
 104170000   2472.3007      4531.4321      7003.7329      300.13851      0.017307092    0.0013178293 
 104180000   2432.6278      4417.4626      6850.0903      292.58976      0.0097781315   0.0013178293 
 104190000   2465.216       4488.2898      6953.5059      297.28099      0.003178064    0.0013178293 
 104200000   2486.9386      4540.152       7027.0906      300.71608      0.020953227    0.0013178293 
 104210000   2485.6476      4549.4209      7035.0685      301.32999      0.022555299    0.0013178293 
 104220000   2454.2892      4503.7217      6958.0109      298.30312      0.0022453086   0.0013178293 
 104230000   2466.7247      4638.3185      7105.0432      307.21811      0.0081082687   0.0013178293 
 104240000   2408.8533      4549.8568      6958.7101      301.35887      0.018012461    0.0013178293 
 104250000   2438.1886      4527.1454      6965.334       299.85458     -0.00028474467  0.0013178293 
 104260000   2468.6022      4527.55        6996.1522      299.88139     -0.0015811514   0.0013178293 
 104270000   2455.6845      4483.0155      6938.7         296.93165      0.0097862349   0.0013178293 
 104280000   2465.4223      4512.187       6977.6093      298.86382      0.014692467    0.0013178293 
 104290000   2464.0394      4505.4257      6969.4651      298.41598     -0.0057581533   0.0013178293 
 104300000   2462.1381      4514.886       6977.024       299.04258      0.010072158    0.0013178293 
 104310000   2445.7449      4476.3762      6922.1211      296.49189      0.0017192297   0.0013178293 
 104320000   2465.587       4441.5804      6907.1674      294.1872       0.022025977    0.0013178293 
 104330000   2402.949       4529.5031      6932.4521      300.01074      0.011346016    0.0013178293 
 104340000   2422.5435      4550.7546      6973.2981      301.41833      0.011877625    0.0013178293 
 104350000   2431.1533      4530.4409      6961.5941      300.07286     -0.0010164828   0.0013178293 
 104360000   2357.764       4580.5438      6938.3078      303.39142      0.010033859    0.0013178293 
 104370000   2442.9591      4444.77        6887.7291      294.39847      0.017828603    0.0013178293 
 104380000   2470.4032      4522.8558      6993.259       299.57046      0.019925836    0.0013178293 
 104390000   2478.9503      4522.6356      7001.5858      299.55588      0.016828994    0.0013178293 
 104400000   2455.9562      4506.3448      6962.301       298.47686     -0.0033869073   0.0013178293 
 104410000   2461.1195      4548.1241      7009.2436      301.2441      -0.015897513    0.0013178293 
 104420000   2428.9133      4501.5095      6930.4228      298.1566       0.0079243079   0.0013178293 
 104430000   2494.6251      4551.5602      7046.1853      301.47169      0.013253023    0.0013178293 
 104440000   2456.0295      4501.899       6957.9285      298.1824       0.01817953     0.0013178293 
 104450000   2415.5157      4447.4902      6863.0058      294.57863     -0.0012155736   0.0013178293 
 104460000   2477.492       4607.3996      7084.8915      305.1702       0.0081268747   0.0013178293 
 104470000   2516.7676      4563.7132      7080.4807      302.27664      0.00038447006  0.0013178293 
 104480000   2481.9057      4572.9144      7054.82        302.88608      0.015437076    0.0013178293 
 104490000   2444.0455      4497.5572      6941.6027      297.89481      0.040284922    0.0013178293 
 104500000   2414.9394      4539.0238      6953.9633      300.64135      0.0045397107   0.0013178293 
 104510000   2468.7133      4523.9296      6992.643       299.64159     -0.0032519763   0.0013178293 
 104520000   2457.6484      4551.8096      7009.458       301.48821      0.017520749    0.0013178293 
 104530000   2531.5841      4624.246       7155.8302      306.28603      0.0074119038   0.0013178293 
 104540000   2516.2241      4467.2766      6983.5006      295.88918      0.011807679    0.0013178293 
 104550000   2440.5129      4515.4254      6955.9383      299.07831      0.023036468    0.0013178293 
 104560000   2401.4709      4548.8884      6950.3593      301.29473      0.0082185679   0.0013178293 
 104570000   2518.1615      4490.9085      7009.0701      297.45444     -0.0045371372   0.0013178293 
 104580000   2499.0879      4524.426       7023.5139      299.67446      0.01951647     0.0013178293 
 104590000   2514.3877      4452.4039      6966.7916      294.90409     -0.0034520568   0.0013178293 
 104600000   2409.0579      4552.3841      6961.442       301.52626      0.030202071    0.0013178293 
 104610000   2456.7777      4525.9979      6982.7756      299.77858      0.0053722839   0.0013178293 
 104620000   2444.143       4576.2436      7020.3866      303.10659      0.0046262896   0.0013178293 
 104630000   2503.2714      4571.7013      7074.9727      302.80573      0.0045070364   0.0013178293 
 104640000   2393.3301      4533.8966      6927.2267      300.30175      0.0088797211   0.0013178293 
 104650000   2440.4834      4605.4042      7045.8876      305.03804      0.017455788    0.0013178293 
 104660000   2437.2464      4509.1253      6946.3718      298.66103      0.00021265564  0.0013178293 
 104670000   2464.0564      4496.3446      6960.401       297.8145      -8.0815115e-05  0.0013178293 
 104680000   2481.9098      4497.3343      6979.2441      297.88005      0.022115237    0.0013178293 
 104690000   2434.7971      4520.1681      6954.9652      299.39244      0.018093384    0.0013178293 
 104700000   2479.8744      4646.8464      7126.7208      307.78295     -0.0049027758   0.0013178293 
 104710000   2439.2773      4563.3364      7002.6138      302.25169      0.017720723    0.0013178293 
 104720000   2499.5785      4571.0939      7070.6724      302.7655       0.011028942    0.0013178293 
 104730000   2513.9159      4503.8939      7017.8098      298.31453      0.0074367624   0.0013178293 
 104740000   2447.0699      4599.4334      7046.5033      304.64257     -0.0056447545   0.0013178293 
 104750000   2422.787       4514.3148      6937.1018      299.00475     -0.0018991551   0.0013178293 
 104760000   2411.0934      4490.1283      6901.2217      297.40276      0.036611535    0.0013178293 
 104770000   2434.6637      4518.5067      6953.1704      299.2824       0.011148859    0.0013178293 
 104780000   2493.0876      4592.7757      7085.8634      304.2016       0.0095352154   0.0013178293 
 104790000   2507.3692      4517.7077      7025.0769      299.22948     -0.015148725    0.0013178293 
 104800000   2432.8378      4566.559       6999.3968      302.46514      0.011200827    0.0013178293 
 104810000   2459.9277      4491.6752      6951.6029      297.50522     -0.0011764307   0.0013178293 
 104820000   2403.0677      4591.4323      6994.5         304.11261     -0.0081755277   0.0013178293 
 104830000   2504.8894      4541.5896      7046.479       300.81129      0.00073247395  0.0013178293 
 104840000   2498.7185      4481.5507      6980.2692      296.83463      0.0063689468   0.0013178293 
 104850000   2406.5379      4530.8073      6937.3453      300.09713      0.020686182    0.0013178293 
 104860000   2485.9194      4569.7628      7055.6822      302.67734     -0.0008239802   0.0013178293 
 104870000   2446.7103      4655.0275      7101.7378      308.32483      0.00048948614  0.0013178293 
 104880000   2453.2531      4427.9565      6881.2096      293.28482     -0.0025509661   0.0013178293 
 104890000   2508.0499      4562.8135      7070.8634      302.21705      0.0014872393   0.0013178293 
 104900000   2524.1424      4501.3993      7025.5418      298.1493       0.0063196944   0.0013178293 
 104910000   2464.28        4445.8211      6910.101       294.46808     -0.0011323355   0.0013178293 
 104920000   2529.8442      4504.3624      7034.2066      298.34556     -0.018423074    0.0013178293 
 104930000   2517.2834      4520.8048      7038.0882      299.43461      0.0041674065   0.0013178293 
 104940000   2435.281       4558.721       6994.0021      301.94599      0.0078016126   0.0013178293 
 104950000   2416.4707      4557.5607      6974.0314      301.86913      0.010460689    0.0013178293 
 104960000   2443.244       4617.8745      7061.1185      305.86401      0.011820155    0.0013178293 
 104970000   2437.1072      4557.802       6994.9092      301.88512     -0.00033198532  0.0013178293 
 104980000   2541.4192      4586.6452      7128.0644      303.79554      0.012460503    0.0013178293 
 104990000   2449.3057      4536.482       6985.7877      300.47299      0.0034833824   0.0013178293 
 105000000   2496.902       4481.2605      6978.1625      296.81541      0.003617803    0.0013178293 
Loop time of 6786.19 on 32 procs for 100000000 steps with 5066 atoms

Performance: 12731.732 ns/day, 0.002 hours/ns, 14735.800 timesteps/s, 74.652 Matom-step/s
99.4% CPU use with 32 MPI tasks x 1 OpenMP threads

MPI task timing breakdown:
Section |  min time  |  avg time  |  max time  |%varavg| %total
---------------------------------------------------------------
Pair    | 1061.4     | 1315.2     | 3963.1     |1332.7 | 19.38
Bond    | 403.47     | 513.31     | 677.77     | 279.7 |  7.56
Neigh   | 26.73      | 27.359     | 27.777     |   5.7 |  0.40
Comm    | 1655.8     | 4427.7     | 4940.9     | 808.1 | 65.25
Output  | 1.6185     | 2.0212     | 4.1028     |  29.2 |  0.03
Modify  | 245.02     | 312.14     | 389.48     | 208.0 |  4.60
Other   |            | 188.4      |            |       |  2.78

Nlocal:        158.312 ave         246 max          64 min
Histogram: 2 0 2 7 5 5 4 4 0 3
Nghost:        98.5938 ave         169 max          37 min
Histogram: 1 1 8 4 5 4 3 3 2 1
Neighs:        278.469 ave         919 max         113 min
Histogram: 4 15 9 3 0 0 0 0 0 1

Total # of neighbors = 8911
Ave neighs/atom = 1.7589814
Ave special neighs/atom = 4.8132649
Neighbor list builds = 264546
Dangerous builds = 0
System init for write_data ...
Generated 0 of 6 mixed pair_coeff terms from geometric mixing rule
Total wall time: 1:58:30
