LAMMPS (29 Aug 2024)
  using 1 OpenMP thread(s) per MPI task
Reading data file ...
  orthogonal box = (-300 -300 -300) to (300 300 300)
  2 by 2 by 2 MPI processor grid
  reading atoms ...
  566 atoms
  scanning bonds ...
  1 = max bonds/atom
  scanning angles ...
  1 = max angles/atom
  orthogonal box = (-300 -300 -300) to (300 300 300)
  2 by 2 by 2 MPI processor grid
  reading bonds ...
  515 bonds
  reading angles ...
  464 angles
Finding 1-2 1-3 1-4 neighbors ...
  special bond factors lj:    0        0        1       
  special bond factors coul:  0        0        0       
     2 = max # of 1-2 neighbors
     2 = max # of 1-3 neighbors
     4 = max # of 1-4 neighbors
     6 = max # of special neighbors
  special bonds CPU = 0.000 seconds
  read_data CPU = 0.008 seconds

CITE-CITE-CITE-CITE-CITE-CITE-CITE-CITE-CITE-CITE-CITE-CITE-CITE

Your simulation uses code contributions which should be cited:
- Type Label Framework: https://doi.org/10.1021/acs.jpcb.3c08419
The log file lists these citations in BibTeX format.

CITE-CITE-CITE-CITE-CITE-CITE-CITE-CITE-CITE-CITE-CITE-CITE-CITE

Switching to 'neigh_modify every 1 delay 0 check yes' setting during minimization
Generated 0 of 6 mixed pair_coeff terms from geometric mixing rule
Neighbor list info ...
  update: every = 1 steps, delay = 0 steps, check = yes
  max neighbors/atom: 2000, page size: 100000
  master list distance cutoff = 33
  ghost atom cutoff = 33
  binsize = 16.5, bins = 37 37 37
  2 neighbor lists, perpetual/occasional/extra = 2 0 0
  (1) pair lj/cut, perpetual, trim from (2)
      attributes: half, newton on, cut 25
      pair build: trim
      stencil: none
      bin: none
  (2) pair base/rna, perpetual
      attributes: half, newton on
      pair build: half/bin/newton
      stencil: half/bin/3d
      bin: standard
Setting up cg style minimization ...
  Unit style    : real
  Current step  : 0
Per MPI rank memory allocation (min/avg/max) = 8.453 | 8.487 | 8.721 Mbytes
   Step          Temp          E_pair         E_mol          TotEng         Press     
         0   0              2323.8455      600.24167      2924.0872      3.3293987    
       105   0             -113.61727      545.65555      432.03829     -0.00054649257
Loop time of 0.00949486 on 8 procs for 105 steps with 566 atoms

90.2% CPU use with 8 MPI tasks x 1 OpenMP threads

Minimization stats:
  Stopping criterion = energy tolerance
  Energy initial, next-to-last, final = 
      2924.08717631795   432.066576253238   432.038285837559
  Force two-norm initial, final = 5888.4578 1.0655009
  Force max component initial, final = 2667.2637 0.2837216
  Final line search alpha, max atom move = 0.14553149 0.041290429
  Iterations, force evaluations = 105 155

MPI task timing breakdown:
Section |  min time  |  avg time  |  max time  |%varavg| %total
---------------------------------------------------------------
Pair    | 0.0019728  | 0.0028737  | 0.0046138  |   1.7 | 30.27
Bond    | 0.00021655 | 0.00038671 | 0.00059187 |   0.0 |  4.07
Neigh   | 0          | 0          | 0          |   0.0 |  0.00
Comm    | 0.0031355  | 0.0048633  | 0.0057935  |   1.3 | 51.22
Output  | 0          | 0          | 0          |   0.0 |  0.00
Modify  | 0          | 0          | 0          |   0.0 |  0.00
Other   |            | 0.001371   |            |       | 14.44

Nlocal:          70.75 ave         115 max          34 min
Histogram: 1 0 1 2 0 3 0 0 0 1
Nghost:        103.625 ave         124 max          83 min
Histogram: 1 2 1 0 0 0 0 2 0 2
Neighs:        200.875 ave         363 max          91 min
Histogram: 2 1 0 1 1 1 0 1 0 1

Total # of neighbors = 1607
Ave neighs/atom = 2.8392226
Ave special neighs/atom = 4.9187279
Neighbor list builds = 0
Dangerous builds = 0
Generated 0 of 6 mixed pair_coeff terms from geometric mixing rule
Setting up Verlet run ...
  Unit style    : real
  Current step  : 0
  Time step     : 10
Per MPI rank memory allocation (min/avg/max) = 7.344 | 7.378 | 7.612 Mbytes
   Step         PotEng         KinEng         TotEng          Temp          Press         Density    
         0   432.03829      505.2473       937.28559      300            0.10637945     0.001427081  
     10000   183.67489      486.30984      669.98473      288.75553     -0.061500687    0.001427081  
     20000   193.55013      488.13711      681.68724      289.8405      -0.072061681    0.001427081  
     30000   179.84666      496.22245      676.0691       294.64132      0.051382545    0.001427081  
     40000   209.69932      469.97094      679.67025      279.054        0.013629899    0.001427081  
     50000   225.36086      503.06756      728.42843      298.70574     -0.026718659    0.001427081  
     60000   229.87614      508.99575      738.87189      302.22571     -0.015936691    0.001427081  
     70000   221.04096      486.23077      707.27173      288.70858     -0.021408866    0.001427081  
     80000   219.27741      459.59356      678.87097      272.89224      0.024054372    0.001427081  
     90000   202.15717      505.44352      707.60069      300.11651      0.01482364     0.001427081  
    100000   211.24661      512.44116      723.68777      304.27148      0.018992854    0.001427081  
    110000   197.77897      517.82578      715.60475      307.4687       0.0093200395   0.001427081  
    120000   237.01078      517.58113      754.59191      307.32344      0.048227163    0.001427081  
    130000   198.21066      502.25028      700.46094      298.22046      0.017792302    0.001427081  
    140000   220.45454      506.64516      727.0997       300.83        -0.035655517    0.001427081  
    150000   207.74302      522.40379      730.14681      310.18698      0.010504305    0.001427081  
    160000   206.9916       523.05122      730.04282      310.57141      0.011189515    0.001427081  
    170000   204.40339      525.76856      730.17195      312.18488     -0.025555456    0.001427081  
    180000   225.43826      503.73813      729.17639      299.1039      -0.013350879    0.001427081  
    190000   214.76807      499.20383      713.9719       296.41157     -0.081966924    0.001427081  
    200000   204.3635       504.94623      709.30973      299.82123     -0.033254013    0.001427081  
    210000   197.83164      516.7118       714.54344      306.80726      0.054838477    0.001427081  
    220000   210.96471      516.32196      727.28667      306.57578      0.015278516    0.001427081  
    230000   202.28462      470.89287      673.17749      279.60141     -0.071642879    0.001427081  
    240000   203.71171      498.42371      702.13542      295.94836     -0.052393894    0.001427081  
    250000   192.54238      505.77407      698.31645      300.31278      0.040697598    0.001427081  
    260000   204.46871      493.59751      698.06622      293.08272      0.062444801    0.001427081  
    270000   194.16378      509.36127      703.52505      302.44274      0.024604319    0.001427081  
    280000   229.42334      540.1474       769.57073      320.72258      0.17577962     0.001427081  
    290000   178.97786      476.51158      655.48944      282.93763      0.044177552    0.001427081  
    300000   228.36316      478.48926      706.85242      284.11191      0.050481052    0.001427081  
    310000   194.8538       508.47877      703.33257      301.91874     -0.016606801    0.001427081  
    320000   228.05943      508.58336      736.64279      301.98085     -0.062005022    0.001427081  
    330000   187.43028      501.62045      689.05073      297.84649      0.042359735    0.001427081  
    340000   206.74151      550.0338       756.77532      326.59282      0.0074262848   0.001427081  
    350000   212.50108      513.9785       726.47958      305.18431     -0.023343256    0.001427081  
    360000   224.34909      508.46317      732.81226      301.90948      0.010278805    0.001427081  
    370000   192.91508      511.81228      704.72736      303.89808      0.0046905205   0.001427081  
    380000   214.32611      479.08552      693.41163      284.46595      0.029898677    0.001427081  
    390000   197.69331      524.72885      722.42216      311.56753      0.083659887    0.001427081  
    400000   205.19896      500.45035      705.64931      297.15172     -0.045725251    0.001427081  
    410000   219.61894      495.0674       714.68634      293.95549      0.072924773    0.001427081  
    420000   204.72593      484.29165      689.01758      287.55719      0.0099922688   0.001427081  
    430000   191.22326      516.19381      707.41707      306.49969     -0.059187464    0.001427081  
    440000   210.20027      515.92207      726.12234      306.33834      0.059108844    0.001427081  
    450000   213.12895      487.12299      700.25193      289.23835      0.04632376     0.001427081  
    460000   215.57423      526.92751      742.50174      312.87303     -0.042455477    0.001427081  
    470000   225.24717      478.49633      703.7435       284.11611      0.017158505    0.001427081  
    480000   233.27458      474.73065      708.00523      281.88017      0.02024709     0.001427081  
    490000   202.33922      528.8858       731.22502      314.0358       0.0054868332   0.001427081  
    500000   211.08284      505.61292      716.69576      300.21709     -0.022622512    0.001427081  
    510000   230.6056       496.52083      727.12643      294.81849      0.087717703    0.001427081  
    520000   224.28952      517.25258      741.5421       307.12835     -0.011719062    0.001427081  
    530000   219.79111      506.23406      726.02517      300.58591      0.039430769    0.001427081  
    540000   229.68785      529.03319      758.72104      314.12331     -0.014103824    0.001427081  
    550000   209.3355       471.15718      680.49268      279.75835      0.016786087    0.001427081  
    560000   188.50025      504.846        693.34626      299.76172     -0.015256898    0.001427081  
    570000   251.49637      504.17987      755.67624      299.36619     -0.0014506195   0.001427081  
    580000   226.61107      526.44999      753.06106      312.58949     -0.14078349     0.001427081  
    590000   208.73324      528.98296      737.7162       314.09349      0.054231865    0.001427081  
    600000   214.21095      504.9904       719.20135      299.84746      0.079931022    0.001427081  
    610000   217.16418      489.85226      707.01644      290.8589       0.040380135    0.001427081  
    620000   235.13525      507.96276      743.09801      301.61235      0.059174451    0.001427081  
    630000   205.0011       512.53875      717.53986      304.32944     -0.016369686    0.001427081  
    640000   212.33769      527.11801      739.45569      312.98614     -0.029611799    0.001427081  
    650000   194.2963       499.86241      694.15871      296.80262      0.015586067    0.001427081  
    660000   210.42562      483.66489      694.09051      287.18504     -0.021996412    0.001427081  
    670000   207.67468      494.11283      701.78751      293.3887       0.063433471    0.001427081  
    680000   218.08263      520.94509      739.02773      309.32086      0.066958792    0.001427081  
    690000   206.59674      526.91629      733.51302      312.86636     -0.02571268     0.001427081  
    700000   215.95467      514.15359      730.10826      305.28827      0.013366511    0.001427081  
    710000   227.45617      491.05158      718.50775      291.57102      0.011906701    0.001427081  
    720000   221.33555      499.89296      721.22851      296.82076     -0.0074008972   0.001427081  
    730000   209.59432      527.89034      737.48466      313.44472      0.083449639    0.001427081  
    740000   224.28941      508.33268      732.62208      301.832        0.017045563    0.001427081  
    750000   237.27998      513.23965      750.51962      304.7456       0.058288867    0.001427081  
    760000   209.05257      530.12577      739.17834      314.77205     -0.0058143847   0.001427081  
    770000   167.57881      504.67436      672.25318      299.65981     -0.010491217    0.001427081  
    780000   196.30314      512.74766      709.0508       304.45347      0.024443273    0.001427081  
    790000   219.72216      464.10377      683.82593      275.57026     -0.015505879    0.001427081  
    800000   203.11586      506.10556      709.22143      300.50961      0.038319356    0.001427081  
    810000   201.97033      503.2171       705.18742      298.79453      0.096335876    0.001427081  
    820000   203.99065      490.32653      694.31718      291.14051      0.01393478     0.001427081  
    830000   201.56722      500.91726      702.48449      297.42896      0.0057417519   0.001427081  
    840000   217.33914      530.08051      747.41965      314.74518     -0.073339763    0.001427081  
    850000   223.97217      492.15461      716.12677      292.22597     -0.02264486     0.001427081  
    860000   198.71542      510.81917      709.53459      303.3084      -0.041286286    0.001427081  
    870000   214.82265      490.64734      705.46999      291.331        0.014582864    0.001427081  
    880000   215.57625      530.72171      746.29796      315.1259      -0.031033012    0.001427081  
    890000   201.48657      489.01251      690.49908      290.36029      0.046218215    0.001427081  
    900000   236.36989      492.6509       729.0208       292.52065      0.063073971    0.001427081  
    910000   189.0969       509.92245      699.01936      302.77596      0.027482462    0.001427081  
    920000   220.11891      501.51128      721.63019      297.78166      0.028428641    0.001427081  
    930000   224.50749      533.24852      757.75602      316.62625      0.042397876    0.001427081  
    940000   233.3275       517.99889      751.32638      307.57149     -0.012000866    0.001427081  
    950000   208.30335      501.36726      709.67062      297.69615      0.014689161    0.001427081  
    960000   213.89593      508.19607      722.092        301.75088     -0.033383005    0.001427081  
    970000   223.43635      486.18358      709.61993      288.68056     -0.013478678    0.001427081  
    980000   229.76872      476.94         706.70872      283.19201      0.0054134987   0.001427081  
    990000   196.33643      525.61922      721.95566      312.09621      0.010598314    0.001427081  
   1000000   201.40373      516.73992      718.14365      306.82395     -0.026665564    0.001427081  
   1010000   231.17609      523.41021      754.5863       310.78457      0.017381291    0.001427081  
   1020000   220.06508      510.21644      730.28152      302.95052      0.012446299    0.001427081  
   1030000   222.83029      517.97645      740.80674      307.55817      0.0098970839   0.001427081  
   1040000   218.65227      488.93805      707.59032      290.31608      0.055019139    0.001427081  
   1050000   239.34311      501.74757      741.09068      297.92197      0.017965883    0.001427081  
   1060000   213.99724      518.96671      732.96395      308.14615      0.0048690396   0.001427081  
   1070000   242.33697      506.19119      748.52816      300.56045      0.027435063    0.001427081  
   1080000   219.24687      488.82205      708.06893      290.2472      -0.013039934    0.001427081  
   1090000   207.7757       492.15009      699.92579      292.22328      0.04972498     0.001427081  
   1100000   209.66486      501.2532       710.91807      297.62843     -0.059615111    0.001427081  
   1110000   202.05406      506.98772      709.04178      301.03341     -0.0054901209   0.001427081  
   1120000   210.14668      493.11344      703.26012      292.79529     -0.06896689     0.001427081  
   1130000   234.5879       497.55786      732.14576      295.43425      0.037349395    0.001427081  
   1140000   223.25454      545.6444       768.89894      323.98653      0.027262243    0.001427081  
   1150000   236.15131      494.72009      730.87141      293.74927     -0.0064479089   0.001427081  
   1160000   217.34608      510.84333      728.18941      303.32274     -0.036967527    0.001427081  
   1170000   218.56979      467.13119      685.70098      277.36785     -0.040128266    0.001427081  
   1180000   231.8109       509.55668      741.36758      302.55877     -0.031684574    0.001427081  
   1190000   226.57504      506.52102      733.09605      300.75629     -0.034746115    0.001427081  
   1200000   219.29514      520.13628      739.43142      308.84061      0.026467398    0.001427081  
   1210000   229.25613      519.41979      748.67592      308.41518      0.088927313    0.001427081  
   1220000   225.36892      494.18033      719.54925      293.42878      0.027444944    0.001427081  
   1230000   217.22922      489.16386      706.39308      290.45016      0.045370482    0.001427081  
   1240000   194.45572      505.45402      699.90975      300.12274      0.12274779     0.001427081  
   1250000   216.46275      499.82128      716.28403      296.7782      -0.016475052    0.001427081  
   1260000   248.98296      496.48659      745.46955      294.79816     -0.065871564    0.001427081  
   1270000   222.97132      517.83195      740.80326      307.47237     -0.011997523    0.001427081  
   1280000   199.90201      501.16259      701.0646       297.57463      0.08286032     0.001427081  
   1290000   197.84922      511.09925      708.94847      303.4747      -0.010956924    0.001427081  
   1300000   188.27144      526.12967      714.40111      312.39929     -0.0068702664   0.001427081  
   1310000   199.5456       513.2093       712.7549       304.72758     -0.019627266    0.001427081  
   1320000   203.88017      483.15611      687.03628      286.88294      0.08569645     0.001427081  
   1330000   218.30039      494.92928      713.22967      293.87348     -0.039502911    0.001427081  
   1340000   220.21026      485.70148      705.91174      288.3943       0.040655381    0.001427081  
   1350000   193.36849      508.5675       701.93599      301.97143      0.017465733    0.001427081  
   1360000   212.07136      448.69447      660.76583      266.4207      -0.084116484    0.001427081  
   1370000   238.06667      528.76089      766.82756      313.96163     -0.036267299    0.001427081  
   1380000   213.95654      513.44463      727.40117      304.86731     -0.00013111657  0.001427081  
   1390000   226.14583      508.11563      734.26147      301.70312      0.065601821    0.001427081  
   1400000   216.42343      477.41644      693.83987      283.47491      0.0080552419   0.001427081  
   1410000   226.86559      526.71012      753.57571      312.74395     -0.023718679    0.001427081  
   1420000   201.89365      487.88202      689.77567      289.68904     -0.0014798725   0.001427081  
   1430000   201.35932      495.65628      697.0156       294.30515      0.0071754435   0.001427081  
   1440000   215.18026      501.70346      716.88373      297.89578      0.051766234    0.001427081  
   1450000   223.87421      498.60178      722.47599      296.0541       0.090718474    0.001427081  
   1460000   199.49895      507.09087      706.58982      301.09465     -0.030041861    0.001427081  
   1470000   239.05143      514.67586      753.72729      305.59838      0.021618278    0.001427081  
   1480000   235.65732      487.57691      723.23422      289.50787      0.045331266    0.001427081  
   1490000   217.15265      543.54283      760.69547      322.73868      0.022293746    0.001427081  
   1500000   243.43387      520.15583      763.5897       308.85221      0.039442636    0.001427081  
   1510000   217.34884      494.26047      711.60932      293.47636      0.04172467     0.001427081  
   1520000   250.62672      522.54127      773.16799      310.26861     -0.050473645    0.001427081  
   1530000   213.28986      524.34544      737.6353       311.33987      0.024828759    0.001427081  
   1540000   212.58787      503.23326      715.82114      298.80413      0.034617185    0.001427081  
   1550000   236.09136      495.94189      732.03326      294.47474     -0.020809347    0.001427081  
   1560000   238.58619      498.19674      736.78293      295.8136      -0.066458026    0.001427081  
   1570000   218.3419       464.8117       683.1536       275.99061     -0.022196136    0.001427081  
   1580000   252.39882      508.4038       760.80262      301.87423      0.031798769    0.001427081  
   1590000   195.11968      518.82428      713.94396      308.06158     -0.041737669    0.001427081  
   1600000   219.34         516.94365      736.28365      306.94492      0.0095379857   0.001427081  
   1610000   226.58122      472.09485      698.67606      280.31511     -0.074262533    0.001427081  
   1620000   190.26742      538.24546      728.51288      319.59327     -0.062621941    0.001427081  
   1630000   221.82603      496.25271      718.07874      294.65929     -0.049106151    0.001427081  
   1640000   206.1612       505.3112       711.4724       300.03794     -0.015418163    0.001427081  
   1650000   199.58314      522.57297      722.15612      310.28744     -0.047988211    0.001427081  
   1660000   216.89484      536.08165      752.9765       318.30847      0.00044152635  0.001427081  
   1670000   225.56897      498.99709      724.56606      296.28882      0.013553973    0.001427081  
   1680000   250.79463      507.7046       758.49924      301.45907      0.004755888    0.001427081  
   1690000   221.67809      501.30353      722.98162      297.65831      0.084677128    0.001427081  
   1700000   204.59653      495.55287      700.1494       294.24375     -0.033814994    0.001427081  
   1710000   225.03825      510.95622      735.99447      303.38977     -0.058375105    0.001427081  
   1720000   208.22092      481.85421      690.07512      286.10991     -0.060490819    0.001427081  
   1730000   238.13616      520.53354      758.6697       309.07649      0.027946557    0.001427081  
   1740000   231.92081      508.51676      740.43757      301.9413      -0.0037031283   0.001427081  
   1750000   240.16778      501.38674      741.55452      297.70772      0.04820375     0.001427081  
   1760000   244.41437      539.16124      783.5756       320.13703     -0.055621208    0.001427081  
   1770000   222.29162      516.63557      738.92719      306.76199      0.030689652    0.001427081  
   1780000   241.20132      523.47032      764.67163      310.82025      0.069289295    0.001427081  
   1790000   202.39842      477.72275      680.12117      283.65678      0.021408987    0.001427081  
   1800000   226.43809      500.06645      726.50454      296.92377      0.031765273    0.001427081  
   1810000   229.66938      526.00441      755.67379      312.32492     -0.05070162     0.001427081  
   1820000   219.96983      516.03854      736.00837      306.4075      -0.0080377208   0.001427081  
   1830000   250.13494      471.84236      721.9773       280.16519      0.018769143    0.001427081  
   1840000   234.86869      499.64721      734.5159       296.67484     -0.062535165    0.001427081  
   1850000   230.5981       512.7579       743.356        304.45956      0.013126426    0.001427081  
   1860000   221.21854      540.63508      761.85361      321.01215      0.11421766     0.001427081  
   1870000   222.65003      526.43205      749.08209      312.57884      0.018791241    0.001427081  
   1880000   221.71604      489.85809      711.57412      290.86237     -0.039974463    0.001427081  
   1890000   219.94607      508.49371      728.43978      301.92761      0.04460907     0.001427081  
   1900000   210.18009      534.54181      744.7219       317.39416      0.021267757    0.001427081  
   1910000   206.51035      480.86959      687.37994      285.52528      0.038167516    0.001427081  
   1920000   216.79185      516.37121      733.16306      306.60502     -0.0027059745   0.001427081  
   1930000   225.35518      512.0475       737.40268      304.03774      0.062055486    0.001427081  
   1940000   219.96084      505.64617      725.607        300.23683      0.094147732    0.001427081  
   1950000   222.6068       511.50388      734.11068      303.71496     -0.099705152    0.001427081  
   1960000   205.93363      515.21678      721.15041      305.91956      0.091780354    0.001427081  
   1970000   225.87876      480.16019      706.03895      285.10406     -0.066942533    0.001427081  
   1980000   210.13442      516.83215      726.96657      306.87872     -0.050162426    0.001427081  
   1990000   231.23883      503.3873       734.62613      298.89559     -0.046334791    0.001427081  
   2000000   217.26165      523.93226      741.19391      311.09454     -0.011091099    0.001427081  
   2010000   229.8924       487.91961      717.81201      289.71136      0.062625142    0.001427081  
   2020000   213.67552      490.88749      704.56301      291.47359      0.09352912     0.001427081  
   2030000   245.18999      492.60457      737.79456      292.49314     -0.070824322    0.001427081  
   2040000   203.77031      505.021        708.79131      299.86563      0.0066308898   0.001427081  
   2050000   222.95104      526.66476      749.6158       312.71701      0.081503549    0.001427081  
   2060000   229.45857      526.37666      755.83523      312.54595     -0.08329508     0.001427081  
   2070000   201.24951      498.18037      699.42988      295.80388      0.047282741    0.001427081  
   2080000   199.52571      526.15651      725.68222      312.41523      0.044915398    0.001427081  
   2090000   238.92206      515.15862      754.08068      305.88503      0.069728476    0.001427081  
   2100000   215.3497       503.14846      718.49816      298.75377      0.097819295    0.001427081  
   2110000   203.13669      498.66769      701.80438      296.09323      0.019529311    0.001427081  
   2120000   186.77695      511.14173      697.91868      303.49993     -0.029423889    0.001427081  
   2130000   211.1051       514.82247      725.92757      305.68544      0.022395991    0.001427081  
   2140000   206.58981      514.41317      721.00299      305.44241      0.036587903    0.001427081  
   2150000   239.78664      507.42777      747.21442      301.2947      -0.01508049     0.001427081  
   2160000   214.2906       513.3396       727.6302       304.80495     -0.0092643578   0.001427081  
   2170000   218.68         499.0819       717.7619       296.33918      0.0080384839   0.001427081  
   2180000   206.83189      490.55957      697.39146      291.27888      0.066532336    0.001427081  
   2190000   204.21479      488.03183      692.24662      289.77799      0.065536322    0.001427081  
   2200000   215.81787      476.09335      691.91121      282.68929     -0.033150658    0.001427081  
   2210000   221.7896       512.99083      734.78043      304.59786      0.045799895    0.001427081  
   2220000   201.60659      505.83154      707.43812      300.3469       0.0042573679   0.001427081  
   2230000   238.07208      520.58287      758.65495      309.10578     -0.024469132    0.001427081  
   2240000   213.52995      514.55024      728.0802       305.52379      0.023707155    0.001427081  
   2250000   209.5999       494.15393      703.75384      293.4131       0.016998646    0.001427081  
   2260000   210.15553      477.82753      687.98306      283.719       -0.0066306026   0.001427081  
   2270000   222.16946      528.28459      750.45405      313.67882     -0.042449533    0.001427081  
   2280000   215.60582      523.92759      739.53341      311.09177      0.040587305    0.001427081  
   2290000   199.23315      489.9282       689.16136      290.904        0.023315403    0.001427081  
   2300000   205.09862      502.53541      707.63403      298.38977     -0.050936382    0.001427081  
   2310000   232.86468      492.16723      725.03191      292.23346      0.072792653    0.001427081  
   2320000   197.12999      529.97517      727.10516      314.68263     -0.081189509    0.001427081  
   2330000   184.09717      525.38612      709.48329      311.9578       0.017971232    0.001427081  
   2340000   210.18092      506.7218       716.90272      300.87551      0.021436054    0.001427081  
   2350000   220.55224      483.13703      703.68927      286.87161      0.029957845    0.001427081  
   2360000   229.02805      501.39944      730.42749      297.71526     -0.0051540433   0.001427081  
   2370000   191.39441      494.55103      685.94544      293.64889      0.082514629    0.001427081  
   2380000   230.51633      504.42118      734.93751      299.50947     -0.067401665    0.001427081  
   2390000   234.01541      516.33872      750.35413      306.58573     -0.026943432    0.001427081  
   2400000   214.91841      524.2608       739.17921      311.28962      0.010620033    0.001427081  
   2410000   207.21116      510.62419      717.83535      303.19262      0.062321751    0.001427081  
   2420000   217.38211      496.68464      714.06675      294.91576      0.042738006    0.001427081  
   2430000   217.67019      514.29994      731.97013      305.37517     -0.078189669    0.001427081  
   2440000   225.08729      499.48663      724.57393      296.57949      0.014637513    0.001427081  
   2450000   214.77562      526.82719      741.60281      312.81346      0.061876567    0.001427081  
   2460000   231.08209      539.9613       771.04338      320.61208      0.03174574     0.001427081  
   2470000   209.43007      481.00434      690.43441      285.60529      0.029420303    0.001427081  
   2480000   237.92605      513.95224      751.8783       305.16872      0.051893552    0.001427081  
   2490000   209.0631       474.43149      683.49459      281.70254     -0.065818619    0.001427081  
   2500000   224.23397      508.76234      732.99631      302.08712     -0.036667087    0.001427081  
   2510000   176.66128      524.59604      701.25732      311.48867      0.0798001      0.001427081  
   2520000   194.8765       537.36253      732.23903      319.06901      0.047477353    0.001427081  
   2530000   245.76256      512.80574      758.5683       304.48796     -0.053477583    0.001427081  
   2540000   220.50407      480.51537      701.01944      285.31496      0.047933135    0.001427081  
   2550000   234.64363      497.31075      731.95438      295.28752     -0.044881819    0.001427081  
   2560000   228.11681      513.86245      741.97926      305.1154      -0.028542851    0.001427081  
   2570000   190.22651      480.20841      670.43493      285.13269      0.057756516    0.001427081  
   2580000   221.23462      524.83489      746.06951      311.6305      -0.026838188    0.001427081  
   2590000   218.40861      511.73124      730.13985      303.84996      0.0174323      0.001427081  
   2600000   195.36753      570.14667      765.5142       338.53521     -0.020438857    0.001427081  
   2610000   214.48116      471.76996      686.25112      280.12221     -0.061189965    0.001427081  
   2620000   206.42238      503.73321      710.15559      299.10098     -0.016138027    0.001427081  
   2630000   192.09065      465.34931      657.43996      276.30982      0.020781184    0.001427081  
   2640000   193.92968      517.89109      711.82078      307.50749     -0.038295408    0.001427081  
   2650000   215.2841       506.41834      721.70245      300.69533      0.032000063    0.001427081  
   2660000   206.10748      494.21363      700.32111      293.44855     -0.038346       0.001427081  
   2670000   218.58023      553.18796      771.76818      328.46566     -0.0051948532   0.001427081  
   2680000   189.70824      521.36361      711.07185      309.56936      0.025370488    0.001427081  
   2690000   204.3959       538.18926      742.58516      319.5599       0.069637365    0.001427081  
   2700000   217.85107      481.71441      699.56548      286.02691      0.038944491    0.001427081  
   2710000   230.53053      486.41219      716.94272      288.8163      -0.037466006    0.001427081  
   2720000   206.14149      542.81735      748.95884      322.30792     -0.044347535    0.001427081  
   2730000   213.63042      513.71001      727.34043      305.02489      0.081757255    0.001427081  
   2740000   199.17256      533.13543      732.30799      316.55909      0.074439769    0.001427081  
   2750000   228.55152      513.68327      742.23479      305.00901     -0.030265965    0.001427081  
   2760000   224.33574      516.73986      741.0756       306.82392      0.016888655    0.001427081  
   2770000   219.30939      508.97097      728.28036      302.211        0.015317165    0.001427081  
   2780000   223.9239       483.66225      707.58615      287.18347      0.010329666    0.001427081  
   2790000   237.79842      506.68292      744.48134      300.85243      0.023763409    0.001427081  
   2800000   197.86326      489.92947      687.79273      290.90475      0.029983706    0.001427081  
   2810000   197.62773      499.82232      697.45006      296.77882     -0.070748866    0.001427081  
   2820000   223.74551      504.49097      728.23648      299.55091     -0.053473293    0.001427081  
   2830000   227.88316      466.29827      694.18143      276.87329     -0.0068008758   0.001427081  
   2840000   247.74684      533.3369       781.08374      316.67872     -0.11304555     0.001427081  
   2850000   212.14112      484.26789      696.409        287.54308     -0.053322773    0.001427081  
   2860000   238.96775      513.55902      752.52678      304.93524     -0.043471016    0.001427081  
   2870000   226.00049      520.68437      746.68487      309.16605     -0.033024507    0.001427081  
   2880000   209.25932      502.28292      711.54224      298.23984      0.026927739    0.001427081  
   2890000   221.47425      481.67108      703.14533      286.00118     -0.055043718    0.001427081  
   2900000   243.2638       500.8674       744.1312       297.39935      0.060260084    0.001427081  
   2910000   223.71972      502.43324      726.15296      298.32909      0.0039861437   0.001427081  
   2920000   211.85644      526.54546      738.4019       312.64617     -0.12067548     0.001427081  
   2930000   226.05276      505.81548      731.86824      300.33736      0.0077585407   0.001427081  
   2940000   218.53287      515.99931      734.53219      306.3842       0.067163516    0.001427081  
   2950000   232.19104      497.38618      729.57721      295.33231     -0.041679645    0.001427081  
   2960000   240.56928      491.6383       732.20758      291.9194       0.046338035    0.001427081  
   2970000   221.01751      510.92958      731.94709      303.37396      0.030319716    0.001427081  
   2980000   210.39295      539.4726       749.86555      320.32191      0.12671801     0.001427081  
   2990000   256.69008      507.34366      764.03374      301.24475      0.020591534    0.001427081  
   3000000   232.00189      487.09215      719.09405      289.22004      0.046159769    0.001427081  
   3010000   239.41887      487.19909      726.61796      289.28354      0.0057749234   0.001427081  
   3020000   244.80646      506.01434      750.8208       300.45544     -0.0075059826   0.001427081  
   3030000   218.00478      501.10474      719.10951      297.54027      0.028286805    0.001427081  
   3040000   245.13429      490.01549      735.14978      290.95583     -0.012146115    0.001427081  
   3050000   238.21471      499.65629      737.87101      296.68023      0.10038505     0.001427081  
   3060000   247.99561      492.091        740.08661      292.1882      -0.080884023    0.001427081  
   3070000   212.39341      511.72405      724.11746      303.84569      0.052507959    0.001427081  
   3080000   215.79065      510.56594      726.35659      303.15804     -0.0055576746   0.001427081  
   3090000   221.7388       518.5143       740.2531       307.87753     -0.045774997    0.001427081  
   3100000   233.8456       509.30559      743.15118      302.40968      0.054013742    0.001427081  
   3110000   234.15735      509.93377      744.09112      302.78268     -0.024504728    0.001427081  
   3120000   217.67141      502.83074      720.50215      298.56512      0.083172938    0.001427081  
   3130000   213.59411      517.01284      730.60695      306.98601      0.052967864    0.001427081  
   3140000   213.76839      503.71758      717.48597      299.0917       0.032794901    0.001427081  
   3150000   221.94219      527.24592      749.18811      313.06209     -0.011891828    0.001427081  
   3160000   255.25413      551.35085      806.60497      327.37484     -0.0075726704   0.001427081  
   3170000   237.3405       515.75412      753.09462      306.23862     -0.034576376    0.001427081  
   3180000   238.81789      486.20033      725.01822      288.69051     -0.12322039     0.001427081  
   3190000   224.60637      506.10615      730.71252      300.50996      0.0070430319   0.001427081  
   3200000   192.93436      515.37049      708.30484      306.01083     -0.0069838703   0.001427081  
   3210000   251.32989      536.6464       787.97629      318.6438      -0.035181972    0.001427081  
   3220000   231.37746      476.6279       708.00536      283.0067       0.011433675    0.001427081  
   3230000   208.26271      496.57341      704.83612      294.84972      0.019350609    0.001427081  
   3240000   226.05931      487.30495      713.36426      289.3464      -0.028944858    0.001427081  
   3250000   219.36459      499.35778      718.72237      296.50299     -0.047090714    0.001427081  
   3260000   225.49844      510.36217      735.86061      303.03705      0.060979024    0.001427081  
   3270000   236.62117      497.74699      734.36816      295.54655      0.047496684    0.001427081  
   3280000   243.54476      530.52796      774.07272      315.01086      0.032306818    0.001427081  
   3290000   222.6585       482.61661      705.27511      286.5626       0.083406739    0.001427081  
   3300000   214.81768      476.78528      691.60296      283.10014     -0.044123082    0.001427081  
   3310000   225.00472      525.85347      750.85819      312.2353       0.08341307     0.001427081  
   3320000   237.92752      503.9245       741.85203      299.21456      0.0068834249   0.001427081  
   3330000   207.88337      510.47801      718.36138      303.10583      0.0309513      0.001427081  
   3340000   229.5733       532.87195      762.44525      316.40265      0.013363307    0.001427081  
   3350000   221.52596      502.89828      724.42424      298.60523      0.016805689    0.001427081  
   3360000   228.60351      488.46503      717.06854      290.03521     -0.076687808    0.001427081  
   3370000   246.17825      519.14899      765.32724      308.25439      0.0037879353   0.001427081  
   3380000   206.59372      516.75843      723.35214      306.83494      0.031526979    0.001427081  
   3390000   230.95742      514.18009      745.13751      305.30401      0.016707676    0.001427081  
   3400000   243.37956      486.81706      730.19662      289.0567       0.0660197      0.001427081  
   3410000   241.67389      470.73373      712.40762      279.50692      0.0040369053   0.001427081  
   3420000   219.0043       464.8873       683.8916       276.0355       0.034013929    0.001427081  
   3430000   254.51146      509.11803      763.62949      302.29832     -0.019277048    0.001427081  
   3440000   234.86053      468.94589      703.80642      278.44536     -0.030295794    0.001427081  
   3450000   237.52303      507.91751      745.44054      301.58548      0.024354299    0.001427081  
   3460000   253.11174      503.16882      756.28056      298.76586      0.016421797    0.001427081  
   3470000   262.38888      533.66401      796.05288      316.87295     -0.01082978     0.001427081  
   3480000   239.51407      506.16481      745.67888      300.54479     -0.0016196307   0.001427081  
   3490000   258.83134      487.83847      746.6698       289.66318     -0.058335833    0.001427081  
   3500000   248.58113      471.36437      719.9455       279.88138      0.10760201     0.001427081  
   3510000   238.53903      491.32964      729.86867      291.73613      0.061675389    0.001427081  
   3520000   255.56053      496.73358      752.29411      294.94482     -0.025689805    0.001427081  
   3530000   238.9733       488.37776      727.35105      289.98339      0.0020141957   0.001427081  
   3540000   218.15997      498.20385      716.36382      295.81782     -0.030895869    0.001427081  
   3550000   258.12732      505.25588      763.38319      300.00509     -0.031260326    0.001427081  
   3560000   245.59469      493.19732      738.79201      292.8451       0.11104888     0.001427081  
   3570000   259.07063      505.28807      764.35871      300.02421      0.0026543001   0.001427081  
   3580000   249.77159      501.37189      751.14348      297.6989       0.063885232    0.001427081  
   3590000   222.20838      505.66017      727.86855      300.24515      0.026795509    0.001427081  
   3600000   240.27732      533.7436       774.02092      316.92021     -0.027213345    0.001427081  
   3610000   230.71605      477.92346      708.63951      283.77596     -0.01508524     0.001427081  
   3620000   229.26465      526.7114       755.97605      312.74471     -0.050550824    0.001427081  
   3630000   228.09778      517.14845      745.24624      307.06653      0.042033728    0.001427081  
   3640000   239.64578      514.93253      754.57831      305.75079      0.020617108    0.001427081  
   3650000   240.55565      514.6704       755.22605      305.59514      0.085426481    0.001427081  
   3660000   222.69741      486.87096      709.56838      289.08871     -0.0087634169   0.001427081  
   3670000   217.36782      506.9605       724.32832      301.01724      0.029516559    0.001427081  
   3680000   228.20416      489.74108      717.94524      290.79289      0.037356934    0.001427081  
   3690000   198.79611      484.43257      683.22868      287.64086     -0.012584667    0.001427081  
   3700000   203.78013      513.00171      716.78185      304.60433      0.018218645    0.001427081  
   3710000   216.28363      528.97814      745.26176      314.09062      0.054666879    0.001427081  
   3720000   199.9151       496.85529      696.77039      295.01709     -0.053564909    0.001427081  
   3730000   186.3911       490.34697      676.73807      291.15265     -0.010789113    0.001427081  
   3740000   199.05788      507.16798      706.22586      301.14044      0.0085070828   0.001427081  
   3750000   225.734        512.12223      737.85623      304.08212     -0.022609917    0.001427081  
   3760000   218.38237      526.75932      745.14169      312.77316      0.0077158871   0.001427081  
   3770000   199.88044      522.1515       722.03194      310.03718     -0.047952702    0.001427081  
   3780000   195.91391      512.21143      708.12534      304.13508      0.030209418    0.001427081  
   3790000   188.87426      532.59433      721.46858      316.2378      -0.02086516     0.001427081  
   3800000   195.56905      500.9554       696.52444      297.4516      -0.088446312    0.001427081  
   3810000   201.23633      521.93063      723.16696      309.90604     -0.045532309    0.001427081  
   3820000   212.06832      493.90125      705.96956      293.26307     -0.061841283    0.001427081  
   3830000   205.09421      486.35295      691.44716      288.78113     -0.01538998     0.001427081  
   3840000   217.83535      494.55363      712.38898      293.65043     -0.071332086    0.001427081  
   3850000   206.83592      497.24867      704.0846       295.25066      0.02341649     0.001427081  
   3860000   206.37294      483.74163      690.11457      287.23061     -0.017703777    0.001427081  
   3870000   207.86684      517.70606      725.5729       307.39762      0.038486294    0.001427081  
   3880000   225.39467      533.03806      758.43273      316.50128     -0.024402033    0.001427081  
   3890000   216.20066      486.06423      702.26489      288.60969     -0.027405802    0.001427081  
   3900000   217.11342      528.60447      745.71789      313.86875      0.080898182    0.001427081  
   3910000   210.25391      512.72125      722.97516      304.4378      -0.044076633    0.001427081  
   3920000   206.75926      537.25375      744.01302      319.00443      0.11104874     0.001427081  
   3930000   203.95611      489.89503      693.85115      290.8843       0.045210232    0.001427081  
   3940000   215.39834      506.41025      721.80859      300.69052     -0.052102865    0.001427081  
   3950000   210.76074      538.83586      749.59661      319.94383      0.067075255    0.001427081  
   3960000   228.07492      464.91075      692.98567      276.04942      0.058037507    0.001427081  
   3970000   204.77357      510.63993      715.4135       303.20197      0.018538487    0.001427081  
   3980000   211.31392      480.15725      691.47117      285.10231     -0.070879934    0.001427081  
   3990000   230.84413      514.97606      745.8202       305.77663     -0.034002929    0.001427081  
   4000000   188.68419      501.85297      690.53717      297.98455      0.094702149    0.001427081  
   4010000   205.35289      534.39924      739.75213      317.3095       0.060171184    0.001427081  
   4020000   206.03198      505.23859      711.27057      299.99483      0.025364876    0.001427081  
   4030000   199.12946      506.81909      705.94855      300.93328     -0.010943578    0.001427081  
   4040000   243.42472      532.30983      775.73455      316.06888      0.010109938    0.001427081  
   4050000   209.03922      505.60509      714.6443       300.21244      0.002997004    0.001427081  
   4060000   222.14315      523.35134      745.49449      310.74961      0.037583006    0.001427081  
   4070000   210.04785      515.87696      725.92481      306.31156     -0.063014072    0.001427081  
   4080000   211.27973      525.45912      736.73885      312.00114     -0.0082190026   0.001427081  
   4090000   194.34765      476.43748      670.78513      282.89363     -0.023112858    0.001427081  
   4100000   221.38029      511.59781      732.97809      303.77073     -0.0012278732   0.001427081  
   4110000   222.89907      506.20562      729.1047       300.56902      0.06848931     0.001427081  
   4120000   216.23188      507.00546      723.23735      301.04394      0.030534655    0.001427081  
   4130000   229.92283      521.17355      751.09638      309.45651      0.05397482     0.001427081  
   4140000   224.32402      491.57916      715.90318      291.88429      0.030719178    0.001427081  
   4150000   199.03953      528.7139       727.75343      313.93373      0.040689117    0.001427081  
   4160000   201.81101      490.15114      691.96215      291.03637      0.094225232    0.001427081  
   4170000   215.2315       512.0037       727.2352       304.01174     -0.033852162    0.001427081  
   4180000   212.58293      525.78242      738.36535      312.19311      0.02471952     0.001427081  
   4190000   222.083        517.10223      739.18523      307.03908      0.048180796    0.001427081  
   4200000   223.05348      491.25996      714.31344      291.69475      0.020034399    0.001427081  
   4210000   205.41075      507.16014      712.57089      301.13578      0.047405578    0.001427081  
   4220000   244.46548      496.3003       740.76579      294.68755      0.013960855    0.001427081  
   4230000   246.36784      489.98471      736.35255      290.93755     -0.014628925    0.001427081  
   4240000   255.43427      533.88212      789.31639      317.00245      0.0071643543   0.001427081  
   4250000   221.34916      518.55009      739.89925      307.89878      0.01313468     0.001427081  
   4260000   221.5688       483.12228      704.69108      286.86285     -0.0014775692   0.001427081  
   4270000   225.06461      509.93328      734.99789      302.78239      0.019767106    0.001427081  
   4280000   231.41418      509.57277      740.98695      302.56832     -0.064558721    0.001427081  
   4290000   228.71166      538.04617      766.75783      319.47494      0.061387945    0.001427081  
   4300000   209.67967      499.97664      709.65631      296.87045      0.037075651    0.001427081  
   4310000   219.6093       496.41931      716.02861      294.75821     -0.029421507    0.001427081  
   4320000   213.89722      511.6453       725.54251      303.79893     -0.072453577    0.001427081  
   4330000   204.59723      555.16705      759.76428      329.64078      0.026345854    0.001427081  
   4340000   212.19168      499.39511      711.58679      296.52515     -0.021827812    0.001427081  
   4350000   224.48569      496.69112      721.17681      294.9196       0.042569085    0.001427081  
   4360000   217.82575      500.53418      718.35994      297.2015       0.051593567    0.001427081  
   4370000   208.88408      502.17422      711.0583       298.1753       0.017865441    0.001427081  
   4380000   216.25793      482.80176      699.05969      286.67254      0.056411654    0.001427081  
   4390000   217.46344      469.27415      686.73759      278.64027      0.039462329    0.001427081  
   4400000   228.14404      480.38854      708.53259      285.23965     -0.009364804    0.001427081  
   4410000   219.80351      515.25803      735.06154      305.94405     -0.0005350855   0.001427081  
   4420000   236.95153      492.03971      728.99124      292.15775     -0.040430089    0.001427081  
   4430000   196.07906      516.39706      712.47611      306.62037      0.064791441    0.001427081  
   4440000   229.87746      500.65373      730.53119      297.27248      0.10317945     0.001427081  
   4450000   225.55822      487.4173       712.97552      289.4131      -0.034418698    0.001427081  
   4460000   225.79606      497.90846      723.70452      295.64242     -0.013695209    0.001427081  
   4470000   225.52085      499.69391      725.21476      296.70257     -0.023713219    0.001427081  
   4480000   216.41154      502.71614      719.12768      298.49707     -0.059917592    0.001427081  
   4490000   226.88308      491.58557      718.46864      291.88809      0.068561897    0.001427081  
   4500000   215.92265      478.35669      694.27934      284.0332       0.02391781     0.001427081  
   4510000   204.24412      539.63276      743.87688      320.417        0.028440266    0.001427081  
   4520000   238.1246       501.37047      739.49507      297.69806      0.034183075    0.001427081  
   4530000   241.00046      517.89348      758.89394      307.5089       0.0089269005   0.001427081  
   4540000   217.05823      512.71059      729.76881      304.43146      0.1170529      0.001427081  
   4550000   211.79138      491.57328      703.36466      291.88079      0.014543505    0.001427081  
   4560000   230.35576      488.97251      719.32828      290.33654      0.053601961    0.001427081  
   4570000   204.80531      506.62937      711.43468      300.82063      0.033847593    0.001427081  
   4580000   217.54643      529.20555      746.75199      314.22566      0.0044488806   0.001427081  
   4590000   251.37566      494.93091      746.30657      293.87445     -0.094480107    0.001427081  
   4600000   235.1509       531.35545      766.50635      315.5022       0.014422611    0.001427081  
   4610000   210.71221      510.75092      721.46314      303.26788      0.037467882    0.001427081  
   4620000   242.53383      487.3534       729.88723      289.37516      0.10660162     0.001427081  
   4630000   227.0305       498.05954      725.09004      295.73213      0.047160031    0.001427081  
   4640000   225.33732      491.35046      716.68778      291.74849      0.0049639293   0.001427081  
   4650000   219.40685      508.90961      728.31647      302.17457     -0.019611005    0.001427081  
   4660000   202.50116      495.44306      697.94421      294.17855     -0.047413961    0.001427081  
   4670000   214.07528      525.11236      739.18764      311.79525      0.040945184    0.001427081  
   4680000   205.92499      520.0908       726.01579      308.8136       0.017344603    0.001427081  
   4690000   235.13718      506.62725      741.76443      300.81937      0.0095716683   0.001427081  
   4700000   244.45838      498.92233      743.38071      296.24443     -0.0068767532   0.001427081  
   4710000   212.82706      522.59212      735.41919      310.29881      0.0014683184   0.001427081  
   4720000   234.20126      495.59614      729.7974       294.26944      0.04789754     0.001427081  
   4730000   206.25331      509.573        715.82631      302.56846      0.016184222    0.001427081  
   4740000   216.85341      492.09603      708.94944      292.19119     -0.026424836    0.001427081  
   4750000   232.22173      490.17971      722.40144      291.05334     -0.086095042    0.001427081  
   4760000   205.22819      502.16069      707.38888      298.16727      0.041119857    0.001427081  
   4770000   214.42083      510.95508      725.3759       303.3891      -0.027760207    0.001427081  
   4780000   234.51965      507.04182      741.56147      301.06553     -0.067635114    0.001427081  
   4790000   244.32201      456.31589      700.6379       270.94606      0.018750697    0.001427081  
   4800000   215.00428      527.83744      742.84172      313.41331      0.072867931    0.001427081  
   4810000   234.38769      525.12379      759.51148      311.80203      0.018774128    0.001427081  
   4820000   226.79245      531.28113      758.07358      315.45807     -0.0065437237   0.001427081  
   4830000   222.57264      471.85126      694.42391      280.17048     -0.044043461    0.001427081  
   4840000   199.5869       495.34298      694.92987      294.11912      0.054045341    0.001427081  
   4850000   211.44641      532.53198      743.97839      316.20079     -0.010832247    0.001427081  
   4860000   202.11694      498.33903      700.45597      295.89808      0.017212005    0.001427081  
   4870000   217.45894      499.8368       717.29574      296.78741      0.033917806    0.001427081  
   4880000   250.402        508.55454      758.95655      301.96374      0.06441413     0.001427081  
   4890000   217.77909      500.55015      718.32924      297.21098      0.043935582    0.001427081  
   4900000   178.22349      493.63337      671.85687      293.10401      0.0264688      0.001427081  
   4910000   233.274        527.01435      760.28834      312.92459     -0.0022932974   0.001427081  
   4920000   228.55641      502.3422       730.89861      298.27504      0.020014732    0.001427081  
   4930000   217.60874      504.6663       722.27504      299.65502      0.033988978    0.001427081  
   4940000   216.64711      513.19794      729.84505      304.72084     -0.07758522     0.001427081  
   4950000   246.1224       503.55007      749.67248      298.99224     -0.0047320162   0.001427081  
   4960000   227.86801      491.30045      719.16846      291.7188      -0.037014638    0.001427081  
   4970000   209.69487      503.71093      713.4058       299.08775     -0.10114819     0.001427081  
   4980000   219.91302      502.18986      722.10288      298.18458     -0.031658862    0.001427081  
   4990000   232.14625      519.04748      751.19373      308.19411      0.024976053    0.001427081  
   5000000   204.91234      501.18862      706.10096      297.59008      0.025704337    0.001427081  
Loop time of 207.426 on 8 procs for 5000000 steps with 566 atoms

Performance: 20826.730 ns/day, 0.001 hours/ns, 24105.011 timesteps/s, 13.643 Matom-step/s
99.5% CPU use with 8 MPI tasks x 1 OpenMP threads

MPI task timing breakdown:
Section |  min time  |  avg time  |  max time  |%varavg| %total
---------------------------------------------------------------
Pair    | 34.986     | 54.539     | 79.772     | 218.2 | 26.29
Bond    | 3.6316     | 11.78      | 17.467     | 110.2 |  5.68
Neigh   | 0.42582    | 0.45519    | 0.47848    |   3.3 |  0.22
Comm    | 105.89     | 131.28     | 154.33     | 165.1 | 63.29
Output  | 0.046973   | 0.061943   | 0.15123    |  13.6 |  0.03
Modify  | 2.5825     | 7.2388     | 10.605     |  80.8 |  3.49
Other   |            | 2.075      |            |       |  1.00

Nlocal:          70.75 ave         103 max          46 min
Histogram: 2 2 0 0 1 0 1 0 0 2
Nghost:        113.875 ave         162 max          73 min
Histogram: 1 1 0 1 2 1 0 1 0 1
Neighs:        176.375 ave         368 max          70 min
Histogram: 3 1 0 1 1 0 0 1 0 1

Total # of neighbors = 1411
Ave neighs/atom = 2.4929329
Ave special neighs/atom = 4.9187279
Neighbor list builds = 9775
Dangerous builds = 0
Generated 0 of 6 mixed pair_coeff terms from geometric mixing rule
Setting up Verlet run ...
  Unit style    : real
  Current step  : 5000000
  Time step     : 10
Per MPI rank memory allocation (min/avg/max) = 8.609 | 8.777 | 8.878 Mbytes
   Step         PotEng         KinEng         TotEng          Temp          Press         Density    
   5000000   204.91234      501.18862      706.10096      297.59008      0.025704337    0.001427081  
   5010000   220.25082      502.81231      723.06313      298.55418     -0.025750674    0.001427081  
   5020000   226.87212      514.07012      740.94224      305.23871     -0.035608907    0.001427081  
   5030000   248.44452      496.76513      745.20965      294.96355     -0.016365912    0.001427081  
   5040000   209.2536       471.91895      681.17255      280.21067      0.048675389    0.001427081  
   5050000   244.72385      493.83472      738.55857      293.22356     -0.0024884064   0.001427081  
   5060000   214.62506      493.92225      708.5473       293.27554      0.013059646    0.001427081  
   5070000   220.31195      496.30056      716.61251      294.68771     -0.060447974    0.001427081  
   5080000   233.6537       487.66295      721.31665      289.55896     -0.098494425    0.001427081  
   5090000   231.86153      512.84355      744.70508      304.51041     -0.0088157086   0.001427081  
   5100000   205.99707      505.69968      711.69675      300.2686      -0.039769262    0.001427081  
   5110000   215.57216      506.42994      722.0021       300.70221      0.087390098    0.001427081  
   5120000   225.19745      504.06543      729.26287      299.29824     -0.053347543    0.001427081  
   5130000   228.79029      510.6762       739.46649      303.22351     -0.041061248    0.001427081  
   5140000   208.07962      500.17121      708.25083      296.98597      0.04060517     0.001427081  
   5150000   235.24256      519.29612      754.53868      308.34175     -0.029746591    0.001427081  
   5160000   216.03859      495.84911      711.8877       294.41965      0.050697779    0.001427081  
   5170000   207.61645      505.0467       712.66315      299.88089     -0.0072032689   0.001427081  
   5180000   220.96482      516.5869       737.55172      306.73309      0.079311697    0.001427081  
   5190000   215.3959       492.84257      708.23847      292.63446      0.013817959    0.001427081  
   5200000   210.89483      509.60327      720.4981       302.58644      0.064702067    0.001427081  
   5210000   236.87814      502.08132      738.95946      298.12014     -0.049147205    0.001427081  
   5220000   196.11204      518.19699      714.30903      307.68912      0.052809111    0.001427081  
   5230000   224.99764      509.06484      734.06248      302.26673     -0.049959322    0.001427081  
   5240000   227.70358      511.00379      738.70737      303.41802     -0.0061003901   0.001427081  
   5250000   217.50533      508.64519      726.15052      302.01756      0.038671972    0.001427081  
   5260000   216.09585      513.51887      729.61472      304.9114       0.025791317    0.001427081  
   5270000   212.61513      498.74834      711.36347      296.14112      0.025533069    0.001427081  
   5280000   223.32751      524.83272      748.16023      311.62921      0.079204838    0.001427081  
   5290000   215.22543      525.67979      740.90522      312.13217     -0.015737827    0.001427081  
   5300000   237.9798       471.29731      709.27711      279.84156     -0.021594489    0.001427081  
   5310000   206.69455      480.4224       687.11695      285.25975      0.08568376     0.001427081  
   5320000   195.42482      510.27866      705.70348      302.98746      0.029026415    0.001427081  
   5330000   213.22784      508.32861      721.55645      301.82959     -0.051494253    0.001427081  
   5340000   219.61202      490.08975      709.70178      290.99992      0.096722684    0.001427081  
   5350000   216.19333      522.85753      739.05086      310.4564       0.027305344    0.001427081  
   5360000   224.59244      493.00439      717.59684      292.73054     -0.081991917    0.001427081  
   5370000   215.34999      515.82394      731.17393      306.28007      0.041102805    0.001427081  
   5380000   185.3413       510.88098      696.22228      303.3451      -0.052789136    0.001427081  
   5390000   203.73145      497.32345      701.05491      295.29507     -0.016575268    0.001427081  
   5400000   244.45382      549.17583      793.62965      326.08338     -0.00060609298  0.001427081  
   5410000   204.87293      527.12464      731.99756      312.99008      0.032406777    0.001427081  
   5420000   204.61362      496.63748      701.25111      294.88776      0.010207295    0.001427081  
   5430000   208.10066      462.18813      670.28878      274.43281      0.023573079    0.001427081  
   5440000   200.55147      509.0153       709.56677      302.23732      0.011015623    0.001427081  
   5450000   228.5112       498.67528      727.18647      296.09774      0.025611849    0.001427081  
   5460000   202.40155      524.34111      726.74266      311.3373       0.039062452    0.001427081  
   5470000   165.04569      513.027        678.07269      304.61934     -0.021945013    0.001427081  
   5480000   206.88037      498.92961      705.80999      296.24875     -0.010606352    0.001427081  
   5490000   234.47052      500.48811      734.95864      297.17414      0.052351933    0.001427081  
   5500000   180.70013      513.07363      693.77376      304.64703      0.045779338    0.001427081  
   5510000   214.22687      520.77868      735.00555      309.22204      0.03534875     0.001427081  
   5520000   209.08401      493.8796       702.96361      293.25022      0.05575688     0.001427081  
   5530000   214.97762      508.21995      723.19758      301.76507      0.01528212     0.001427081  
   5540000   216.77098      529.9188       746.68978      314.64916      0.036653903    0.001427081  
   5550000   202.05474      519.82934      721.88408      308.65836      0.033703659    0.001427081  
   5560000   216.38858      499.60222      715.9908       296.64813     -0.042291021    0.001427081  
   5570000   236.86911      543.41788      780.28699      322.66449     -0.027521717    0.001427081  
   5580000   208.0316       498.52789      706.55949      296.01022     -0.0016901032   0.001427081  
   5590000   203.21337      516.21499      719.42836      306.51227     -0.020827213    0.001427081  
   5600000   227.37337      532.6584       760.03176      316.27585      0.057288521    0.001427081  
   5610000   228.62733      475.62625      704.25358      282.41195      0.044306362    0.001427081  
   5620000   220.20249      513.39834      733.60082      304.83983     -0.0070820625   0.001427081  
   5630000   201.20919      512.95594      714.16512      304.57714      0.020085385    0.001427081  
   5640000   248.69617      527.71719      776.41336      313.34192      0.0050365436   0.001427081  
   5650000   221.39487      491.835        713.22988      292.0362       0.018100435    0.001427081  
   5660000   199.12507      507.90379      707.02887      301.57734      0.10257557     0.001427081  
   5670000   226.79371      513.46634      740.26005      304.8802      -0.0025100254   0.001427081  
   5680000   206.43148      536.74305      743.17453      318.70119      0.14829761     0.001427081  
   5690000   230.70566      503.73791      734.44357      299.10377     -0.0056137779   0.001427081  
   5700000   198.01847      513.45559      711.47407      304.87383      0.025874375    0.001427081  
   5710000   210.09636      475.07652      685.17289      282.08554     -0.065952834    0.001427081  
   5720000   178.22145      544.46856      722.69001      323.28835      0.08030596     0.001427081  
   5730000   208.89084      485.9808       694.87165      288.56016     -0.059983355    0.001427081  
   5740000   205.85437      493.50818      699.36255      293.02968      0.0091014937   0.001427081  
   5750000   227.44199      487.64818      715.09016      289.55019      0.013648074    0.001427081  
   5760000   203.86258      528.10982      731.97239      313.57504     -0.0480749      0.001427081  
   5770000   193.72143      505.30376      699.02519      300.03353      0.0099852783   0.001427081  
   5780000   207.22477      506.05221      713.27698      300.47793     -0.053512648    0.001427081  
   5790000   207.11776      493.87134      700.98911      293.24531      0.038377337    0.001427081  
   5800000   195.28687      492.27641      687.56328      292.29829      0.029701615    0.001427081  
   5810000   229.85867      498.18064      728.03932      295.80404      0.0027240928   0.001427081  
   5820000   208.87156      495.96089      704.83245      294.48602      0.033569695    0.001427081  
   5830000   232.83113      516.20258      749.03372      306.5049       0.095293428    0.001427081  
   5840000   215.54774      497.76542      713.31316      295.55749     -0.0061321698   0.001427081  
   5850000   212.38367      521.93454      734.31821      309.90836     -0.029233665    0.001427081  
   5860000   209.39637      492.00363      701.4          292.13632      0.075490377    0.001427081  
   5870000   191.70908      497.42258      689.13166      295.35393     -0.00018145699  0.001427081  
   5880000   225.97495      547.76031      773.73526      325.24289     -0.02844164     0.001427081  
   5890000   228.86943      507.73554      736.60497      301.47743      0.014342836    0.001427081  
   5900000   177.26464      491.23321      668.49785      291.67887      0.070211227    0.001427081  
   5910000   206.33746      495.83642      702.17388      294.41211      0.065510785    0.001427081  
   5920000   189.92984      487.53327      677.4631       289.48196     -0.1225637      0.001427081  
   5930000   213.58856      522.68304      736.27159      310.35279      0.016796476    0.001427081  
   5940000   214.02881      537.02287      751.05168      318.86733      0.0099867044   0.001427081  
   5950000   196.68232      491.5338       688.21611      291.85735      0.091625302    0.001427081  
   5960000   203.49111      505.46338      708.95449      300.1283       0.13231116     0.001427081  
   5970000   224.28435      498.61076      722.89511      296.05943     -0.036991999    0.001427081  
   5980000   231.94776      494.00559      725.95335      293.32502      0.085822066    0.001427081  
   5990000   212.87209      499.14192      712.01401      296.37482      0.030719464    0.001427081  
   6000000   206.4371       476.11855      682.55565      282.70426      0.030165482    0.001427081  
   6010000   255.85987      507.06594      762.92581      301.07985     -0.0019316211   0.001427081  
   6020000   214.93637      510.18081      725.11718      302.92936      0.14444546     0.001427081  
   6030000   211.34161      529.01418      740.35579      314.11203      0.034891106    0.001427081  
   6040000   201.98921      500.18855      702.17776      296.99627      0.0087884888   0.001427081  
   6050000   213.22839      472.41242      685.6408       280.50367      0.023510179    0.001427081  
   6060000   226.12371      498.14438      724.26809      295.78251     -0.054336141    0.001427081  
   6070000   216.9062       528.6984       745.6046       313.92452      0.053423578    0.001427081  
   6080000   217.9444       499.7936       717.738        296.76176     -0.013389945    0.001427081  
   6090000   235.83613      518.09869      753.93482      307.63075     -0.0092392874   0.001427081  
   6100000   228.67186      501.6947       730.36656      297.89058     -0.020028972    0.001427081  
   6110000   185.84195      520.59497      706.43693      309.11296      0.042410435    0.001427081  
   6120000   241.85427      482.62995      724.48422      286.57052      0.033012649    0.001427081  
   6130000   228.43502      538.19448      766.62949      319.563       -0.014443646    0.001427081  
   6140000   211.02794      513.02992      724.05786      304.62107      0.067942564    0.001427081  
   6150000   199.29508      543.61556      742.91064      322.78187      0.0015624298   0.001427081  
   6160000   204.86536      489.65504      694.5204       290.7418      -0.0085439511   0.001427081  
   6170000   235.49911      474.74587      710.24498      281.8892       0.032546606    0.001427081  
   6180000   229.26946      517.33853      746.60799      307.17939     -0.021377954    0.001427081  
   6190000   218.91953      485.3387       704.25823      288.1789       0.01673343     0.001427081  
   6200000   222.02403      505.83215      727.85618      300.34726     -0.0014747306   0.001427081  
   6210000   229.7211       495.729        725.4501       294.34833     -0.038423041    0.001427081  
   6220000   206.86917      501.73109      708.60025      297.91218      0.053330864    0.001427081  
   6230000   215.83886      513.22467      729.06353      304.73671      0.004532419    0.001427081  
   6240000   202.43677      502.99233      705.4291       298.66107      0.021678265    0.001427081  
   6250000   212.11468      487.03339      699.14807      289.18515     -0.045135193    0.001427081  
   6260000   223.08645      493.48251      716.56896      293.01443     -0.042870259    0.001427081  
   6270000   228.26354      491.25495      719.51849      291.69178      0.0079303426   0.001427081  
   6280000   213.87805      536.16747      750.04552      318.35942     -0.0033970946   0.001427081  
   6290000   236.26863      492.76255      729.03118      292.58695     -0.075916716    0.001427081  
   6300000   227.87336      512.71315      740.58651      304.43298      0.060154263    0.001427081  
   6310000   203.6712       528.77054      732.44175      313.96736      0.0094561367   0.001427081  
   6320000   208.11552      495.03067      703.14619      293.93368      0.074801947    0.001427081  
   6330000   205.65479      502.13476      707.78954      298.15187      0.021739885    0.001427081  
   6340000   216.65003      507.85252      724.50255      301.5469       0.0049719132   0.001427081  
   6350000   225.70167      497.03786      722.73953      295.12549     -0.019446871    0.001427081  
   6360000   237.57755      510.18539      747.76295      302.93208      0.036976482    0.001427081  
   6370000   216.46825      497.00448      713.47273      295.10567     -0.019818424    0.001427081  
   6380000   236.57862      518.0574       754.63602      307.60623      0.073809894    0.001427081  
   6390000   216.76937      503.18463      719.95399      298.77525     -0.00087418797  0.001427081  
   6400000   239.25338      519.28675      758.54013      308.33618      0.043179829    0.001427081  
   6410000   236.39057      492.93189      729.32247      292.68749     -0.015973558    0.001427081  
   6420000   241.21862      494.29002      735.50864      293.49391     -0.0073424038   0.001427081  
   6430000   215.88498      520.61092      736.49591      309.12244     -0.046498194    0.001427081  
   6440000   230.24206      521.79611      752.03817      309.82616      0.040590979    0.001427081  
   6450000   233.45947      494.86731      728.32678      293.83668      0.03700595     0.001427081  
   6460000   209.45937      552.34271      761.80208      327.96377      0.066777765    0.001427081  
   6470000   266.60843      518.71327      785.3217       307.99567      0.085025211    0.001427081  
   6480000   227.00465      499.69839      726.70305      296.70523      0.053853607    0.001427081  
   6490000   221.8687       514.56561      736.43431      305.53292     -0.075975848    0.001427081  
   6500000   201.60732      501.569        703.17632      297.81594      0.0074437186   0.001427081  
   6510000   219.58955      492.96796      712.55751      292.70891     -0.033541824    0.001427081  
   6520000   232.07255      545.61227      777.68482      323.96745      0.038380339    0.001427081  
   6530000   215.46927      500.14672      715.61599      296.97143     -0.0041657885   0.001427081  
   6540000   209.39285      494.26587      703.65872      293.47957      0.042265914    0.001427081  
   6550000   232.10643      529.85088      761.95731      314.60883     -0.034628065    0.001427081  
   6560000   229.4068       513.77285      743.17964      305.0622       0.041091257    0.001427081  
   6570000   224.32693      534.32995      758.65689      317.26836      0.074213173    0.001427081  
   6580000   223.69905      520.76232      744.46136      309.21233      0.081381437    0.001427081  
   6590000   219.6966       511.75056      731.44716      303.86143     -0.0031451491   0.001427081  
   6600000   220.01208      525.77442      745.7865       312.18836      0.042996019    0.001427081  
   6610000   230.63723      518.61988      749.25711      307.94022      0.036292384    0.001427081  
   6620000   210.12808      502.15526      712.28334      298.16404     -0.043221933    0.001427081  
   6630000   218.18871      485.55827      703.74698      288.30927      0.042625381    0.001427081  
   6640000   224.35324      517.09577      741.44901      307.03525      0.049654326    0.001427081  
   6650000   207.56947      498.02274      705.59221      295.71028      0.017052283    0.001427081  
   6660000   224.58725      499.36078      723.94803      296.50477     -0.081527265    0.001427081  
   6670000   226.91403      518.30107      745.2151       307.75092     -0.068974218    0.001427081  
   6680000   244.27759      520.35544      764.63304      308.97074      0.01000487     0.001427081  
   6690000   238.68819      497.67868      736.36687      295.50599      0.022890642    0.001427081  
   6700000   212.69238      488.88286      701.57524      290.28331      0.091931093    0.001427081  
   6710000   213.74761      504.42682      718.17442      299.51282      0.073233259    0.001427081  
   6720000   232.82316      522.5445       755.36766      310.27054      0.10300682     0.001427081  
   6730000   227.46039      502.35304      729.81343      298.28148     -0.041931625    0.001427081  
   6740000   231.92296      487.61328      719.53624      289.52947      0.07250784     0.001427081  
   6750000   227.09375      522.04657      749.14032      309.97488      0.064485983    0.001427081  
   6760000   212.93627      484.04376      696.98003      287.41         0.043189708    0.001427081  
   6770000   243.2332       513.72814      756.96134      305.03566      0.012455233    0.001427081  
   6780000   230.29221      502.7987       733.09091      298.5461      -0.010494234    0.001427081  
   6790000   227.24938      480.4806       707.72998      285.29431     -0.022561862    0.001427081  
   6800000   241.22713      500.56448      741.7916       297.21948      0.12577366     0.001427081  
   6810000   208.74641      508.03955      716.78596      301.65795      0.014323589    0.001427081  
   6820000   232.75504      492.7125       725.46755      292.55723      0.00056902529  0.001427081  
   6830000   234.4813       506.47981      740.96111      300.73183      0.049477848    0.001427081  
   6840000   244.80015      520.53702      765.33717      309.07856     -0.052012916    0.001427081  
   6850000   237.80262      477.26263      715.06525      283.38358     -0.030396141    0.001427081  
   6860000   230.81067      522.69428      753.50495      310.35947     -0.071516409    0.001427081  
   6870000   218.23016      484.84301      703.07316      287.88457      0.081865136    0.001427081  
   6880000   229.9076       508.9426       738.8502       302.19415     -0.053298378    0.001427081  
   6890000   229.17435      512.13872      741.31307      304.09191      0.014239205    0.001427081  
   6900000   218.12086      512.0623       730.18316      304.04653     -0.049977595    0.001427081  
   6910000   231.11664      486.79212      717.90875      289.04189      0.006421121    0.001427081  
   6920000   242.8456       521.1021       763.9477       309.41408     -0.0034797534   0.001427081  
   6930000   268.83412      506.99478      775.82889      301.03759      0.051973616    0.001427081  
   6940000   214.17563      501.95013      716.12577      298.04224      0.013586817    0.001427081  
   6950000   215.96111      503.42124      719.38234      298.91574      0.069105867    0.001427081  
   6960000   223.22496      506.93643      730.16139      301.00295      0.078363091    0.001427081  
   6970000   237.36723      508.54718      745.9144       301.95936     -0.056261111    0.001427081  
   6980000   234.55183      489.87741      724.42924      290.87384     -0.048729595    0.001427081  
   6990000   231.46404      468.16206      699.6261       277.97995     -0.06489401     0.001427081  
   7000000   216.52386      498.59461      715.11848      296.04984      0.091188397    0.001427081  
   7010000   226.76201      499.56182      726.32384      296.62414     -0.002968754    0.001427081  
   7020000   210.96354      523.60918      734.57272      310.90271      0.061862574    0.001427081  
   7030000   236.04533      499.59935      735.64467      296.64642      0.04036924     0.001427081  
   7040000   235.41511      510.4956       745.91072      303.11628      0.029520762    0.001427081  
   7050000   214.31669      504.77772      719.09441      299.72117     -0.010419033    0.001427081  
   7060000   232.70574      493.19699      725.90273      292.8449       0.022690955    0.001427081  
   7070000   222.47819      520.98694      743.46512      309.3457       0.030994584    0.001427081  
   7080000   218.88091      524.37654      743.25745      311.35834     -0.064966742    0.001427081  
   7090000   235.19651      516.66138      751.85789      306.77732     -0.0087845245   0.001427081  
   7100000   238.72651      474.639        713.36551      281.82575     -0.024551223    0.001427081  
   7110000   229.70533      515.04531      744.75064      305.81775      0.028956013    0.001427081  
   7120000   225.917        487.52695      713.44395      289.47821      0.027343409    0.001427081  
   7130000   232.49372      508.91321      741.40693      302.1767       0.0023705618   0.001427081  
   7140000   222.54559      479.35891      701.9045       284.62828      0.020013051    0.001427081  
   7150000   217.89316      501.94592      719.83908      298.03974      0.02676691     0.001427081  
   7160000   218.61428      519.55033      738.16461      308.49269     -0.069786357    0.001427081  
   7170000   222.16214      477.02022      699.18236      283.23964     -0.024672878    0.001427081  
   7180000   249.52597      482.89447      732.42044      286.72759     -0.015930479    0.001427081  
   7190000   216.94521      512.37336      729.31857      304.23123      0.02026256     0.001427081  
   7200000   251.78177      523.66993      775.4517       310.93878     -0.0070662978   0.001427081  
   7210000   257.06686      492.37736      749.44422      292.35823     -0.050637375    0.001427081  
   7220000   235.20023      536.48635      771.68658      318.54876      0.038259799    0.001427081  
   7230000   215.4468       520.00473      735.45153      308.7625      -0.024474608    0.001427081  
   7240000   213.35884      480.82366      694.1825       285.49801      0.0027244283   0.001427081  
   7250000   217.71226      512.89271      730.60497      304.5396       0.037215113    0.001427081  
   7260000   213.37747      506.20831      719.58578      300.57061     -0.018256137    0.001427081  
   7270000   216.19875      541.46282      757.66156      321.50364      0.014791837    0.001427081  
[...]
 103190000   219.89245      527.76727      747.65972      313.37165     -0.034549182    0.001427081  
 103200000   215.72889      524.72691      740.4558       311.56638      0.077472812    0.001427081  
 103210000   217.46743      474.68056      692.14799      281.85043      0.024428407    0.001427081  
 103220000   211.39149      488.31143      699.70292      289.94401      0.022211328    0.001427081  
 103230000   210.40587      489.41513      699.821        290.59935     -0.08275178     0.001427081  
 103240000   227.06886      500.68954      727.7584       297.29374      0.030067789    0.001427081  
 103250000   213.87104      518.67449      732.54552      307.97264      0.054958696    0.001427081  
 103260000   216.59149      522.98857      739.58005      310.53421      0.023887743    0.001427081  
 103270000   181.51688      551.04199      732.55887      327.19145     -0.023225691    0.001427081  
 103280000   214.6624       497.04223      711.70463      295.12809      0.071238203    0.001427081  
 103290000   222.32603      509.64002      731.96605      302.60825      0.086985928    0.001427081  
 103300000   200.98665      519.52672      720.51337      308.47867      0.044292939    0.001427081  
 103310000   231.61297      533.00126      764.61423      316.47943      0.019798701    0.001427081  
 103320000   226.46593      515.45329      741.91922      306.06        -0.034969175    0.001427081  
 103330000   214.47837      528.61358      743.09194      313.87416     -0.044225817    0.001427081  
 103340000   247.78403      492.16091      739.94494      292.22971      0.0087020303   0.001427081  
 103350000   230.46167      499.55565      730.01731      296.62047      0.15011772     0.001427081  
 103360000   241.87243      493.20772      735.08015      292.85127     -0.0070224251   0.001427081  
 103370000   249.11293      533.76523      782.87816      316.93305      0.096368482    0.001427081  
 103380000   230.91823      498.1239       729.04213      295.77035     -0.020795415    0.001427081  
 103390000   213.79779      514.60176      728.39955      305.55438      0.065332855    0.001427081  
 103400000   223.1529       517.03898      740.19189      307.00153     -0.055461629    0.001427081  
 103410000   207.79302      520.82284      728.61586      309.24826      0.046556884    0.001427081  
 103420000   218.71836      511.5134       730.23176      303.72061     -0.074699761    0.001427081  
 103430000   222.63269      528.61947      751.25216      313.87766      0.015088328    0.001427081  
 103440000   238.18695      468.62242      706.80937      278.25329     -0.048531134    0.001427081  
 103450000   217.17942      471.54551      688.72493      279.98893     -0.086854352    0.001427081  
 103460000   233.3907       516.29069      749.68139      306.55722      0.014180308    0.001427081  
 103470000   206.30719      499.21934      705.52653      296.42078     -0.056328335    0.001427081  
 103480000   196.37176      496.3546       692.72636      294.71979      0.0080531432   0.001427081  
 103490000   247.876        520.69097      768.56696      309.16996      0.0379075      0.001427081  
 103500000   232.58376      513.15267      745.73642      304.69396     -0.054269522    0.001427081  
 103510000   225.53958      516.66942      742.20901      306.7821       0.03618385     0.001427081  
 103520000   234.45454      522.73121      757.18574      310.38139     -0.020016692    0.001427081  
 103530000   237.37476      501.15887      738.53363      297.57242      0.052034882    0.001427081  
 103540000   215.87732      487.65516      703.53249      289.55434     -0.032820801    0.001427081  
 103550000   224.64878      485.15928      709.80806      288.07236     -0.015383196    0.001427081  
 103560000   209.65739      500.15353      709.81091      296.97548      0.023125835    0.001427081  
 103570000   225.21097      524.88474      750.0957       311.66009      0.030274616    0.001427081  
 103580000   242.33966      505.93026      748.26993      300.40552      0.065514577    0.001427081  
 103590000   229.8613       495.88004      725.74135      294.43802      0.020756766    0.001427081  
 103600000   242.65854      515.03759      757.69613      305.81316      0.048827891    0.001427081  
 103610000   233.98622      498.80555      732.79177      296.17509     -0.11082726     0.001427081  
 103620000   249.55247      514.89649      764.44897      305.72939      0.039694814    0.001427081  
 103630000   231.93908      515.21868      747.15775      305.92069      0.02943463     0.001427081  
 103640000   255.32553      498.58266      753.90819      296.04274     -0.015591912    0.001427081  
 103650000   231.17384      483.96533      715.13917      287.36343      0.0068183463   0.001427081  
 103660000   233.15583      514.96906      748.12489      305.77248     -0.0019245265   0.001427081  
 103670000   242.88447      495.63233      738.51679      294.29093     -0.027212652    0.001427081  
 103680000   210.45919      514.09071      724.5499       305.25094      0.034533767    0.001427081  
 103690000   214.66955      524.7678       739.43735      311.59066      0.060245491    0.001427081  
 103700000   197.16587      503.13135      700.29721      298.74361      0.052865605    0.001427081  
 103710000   223.23336      513.77747      737.01083      305.06495      0.043450679    0.001427081  
 103720000   222.35393      518.88095      741.23488      308.09523      0.034493478    0.001427081  
 103730000   225.60927      508.46326      734.07253      301.90954      0.018683169    0.001427081  
 103740000   213.85376      521.07612      734.92988      309.39866      0.0095702137   0.001427081  
 103750000   220.92244      515.11502      736.03746      305.85914      0.012624391    0.001427081  
 103760000   247.18235      487.62213      734.80448      289.53473      0.020389142    0.001427081  
 103770000   221.3288       503.73017      725.05897      299.09917     -0.093778385    0.001427081  
 103780000   248.82557      530.52756      779.35313      315.01062      0.097536751    0.001427081  
 103790000   241.787        520.70042      762.48743      309.17558      0.0022566052   0.001427081  
 103800000   236.35238      503.34045      739.69283      298.86777      0.051018289    0.001427081  
 103810000   248.35067      525.43851      773.78917      311.9889       0.014783026    0.001427081  
 103820000   238.57802      511.47395      750.05197      303.69719     -0.0087762271   0.001427081  
 103830000   244.08714      551.68499      795.77214      327.57324      0.13269988     0.001427081  
 103840000   235.13114      513.94904      749.08018      305.16682     -0.060166859    0.001427081  
 103850000   243.85145      505.08579      748.93723      299.9041       0.030470358    0.001427081  
 103860000   214.22619      454.1511       668.37729      269.66068     -0.0054225858   0.001427081  
 103870000   226.4743       470.85647      697.33077      279.5798      -0.017758597    0.001427081  
 103880000   236.09011      533.68689      769.777        316.88654      0.035595657    0.001427081  
 103890000   208.3179       496.81687      705.13477      294.99427     -0.033881894    0.001427081  
 103900000   226.61279      508.23285      734.84564      301.77272     -0.0018589313   0.001427081  
 103910000   242.15252      494.81606      736.96858      293.80625      0.040179616    0.001427081  
 103920000   238.13286      504.39475      742.52761      299.49378      0.013115774    0.001427081  
 103930000   211.9908       539.32524      751.31603      320.23441      0.04245458     0.001427081  
 103940000   236.45919      519.38051      755.83971      308.39186     -0.033976793    0.001427081  
 103950000   224.11326      490.16361      714.27687      291.04378      0.046678168    0.001427081  
 103960000   237.2357       508.28649      745.52219      301.80457     -0.055681517    0.001427081  
 103970000   251.25502      507.36694      758.62196      301.25857      0.057897762    0.001427081  
 103980000   223.48536      521.24873      744.73409      309.50114     -0.066366223    0.001427081  
 103990000   204.96105      496.45318      701.41423      294.77832      0.039724648    0.001427081  
 104000000   224.28638      510.30392      734.5903       303.00246      0.043148815    0.001427081  
 104010000   213.27958      519.24702      732.5266       308.31259     -0.042728922    0.001427081  
 104020000   198.85937      492.65362      691.51299      292.52226     -0.018005332    0.001427081  
 104030000   255.60894      508.20921      763.81815      301.75869     -0.035884973    0.001427081  
 104040000   231.55558      512.96358      744.51916      304.58169     -0.060603195    0.001427081  
 104050000   224.81208      513.44422      738.25631      304.86707     -0.0067388326   0.001427081  
 104060000   213.56316      523.81005      737.37321      311.02198      0.033313139    0.001427081  
 104070000   240.07672      500.42845      740.50517      297.13872      0.098925948    0.001427081  
 104080000   234.46906      508.69088      743.15994      302.04469     -0.0064324247   0.001427081  
 104090000   236.77339      499.65856      736.43195      296.68158      0.020853439    0.001427081  
 104100000   234.14513      519.33945      753.48457      308.36747      0.049320805    0.001427081  
 104110000   216.27677      518.38527      734.66204      307.80091      0.050035265    0.001427081  
 104120000   227.40609      471.03315      698.43924      279.68471     -0.089929185    0.001427081  
 104130000   223.53224      535.05443      758.58668      317.69854      0.04433276     0.001427081  
 104140000   224.45297      495.4481       719.90107      294.18154     -0.020816577    0.001427081  
 104150000   245.78191      473.98386      719.76577      281.43675      0.0037178737   0.001427081  
 104160000   218.8579       501.38489      720.24279      297.70662      0.012458127    0.001427081  
 104170000   244.26917      504.26675      748.53592      299.41778      0.10595645     0.001427081  
 104180000   249.21694      536.63132      785.84825      318.63484      0.017700232    0.001427081  
 104190000   215.52125      495.25255      710.7738       294.06543      0.037073807    0.001427081  
 104200000   257.73913      527.66966      785.40879      313.31369      0.037897588    0.001427081  
 104210000   259.37078      523.48         782.85078      310.826       -0.023347609    0.001427081  
 104220000   250.20064      490.56494      740.76558      291.28207      0.089308315    0.001427081  
 104230000   227.09425      493.26513      720.35938      292.88536     -0.097152533    0.001427081  
 104240000   250.33658      502.47934      752.81592      298.35647      0.049896558    0.001427081  
 104250000   231.45623      486.62059      718.07682      288.94004     -0.055170334    0.001427081  
 104260000   213.79924      514.80506      728.6043       305.6751       0.029262571    0.001427081  
 104270000   235.46548      507.49766      742.96314      301.33619     -0.0067787194   0.001427081  
 104280000   220.40581      502.4237       722.82951      298.32343     -0.0068451575   0.001427081  
 104290000   222.00865      543.12656      765.13521      322.49151      0.063191848    0.001427081  
 104300000   213.26544      521.51708      734.78252      309.66048      0.0099292292   0.001427081  
 104310000   250.11715      483.98679      734.10394      287.37617     -0.085705028    0.001427081  
 104320000   227.44458      506.47324      733.91782      300.72792      0.11256433     0.001427081  
 104330000   229.15859      529.93063      759.08922      314.65619      0.025887059    0.001427081  
 104340000   221.0409       519.77927      740.82018      308.62863      0.012327921    0.001427081  
 104350000   215.47306      471.82751      687.30058      280.15638      0.046979649    0.001427081  
 104360000   241.3093       481.34284      722.65215      285.80628     -0.0035275569   0.001427081  
 104370000   224.22943      511.36875      735.59818      303.63472     -0.017472803    0.001427081  
 104380000   220.40957      555.6651       776.07467      329.93651      0.048488733    0.001427081  
 104390000   226.90444      475.29091      702.19536      282.21283     -0.085410896    0.001427081  
 104400000   222.03927      498.354        720.39326      295.90697     -0.0016192941   0.001427081  
 104410000   239.45334      499.67109      739.12444      296.68902      0.033581581    0.001427081  
 104420000   233.01475      487.04976      720.06451      289.19487      0.050991635    0.001427081  
 104430000   219.79451      474.54095      694.33546      281.76753     -0.034015898    0.001427081  
 104440000   224.31705      507.59276      731.90981      301.39266     -0.027134248    0.001427081  
 104450000   221.24558      512.15765      733.40323      304.10315     -0.00069422181  0.001427081  
 104460000   196.75861      522.0403       718.79891      309.97116      0.083954007    0.001427081  
 104470000   239.78761      497.46968      737.25729      295.38189      0.094864479    0.001427081  
 104480000   218.13376      513.96383      732.09759      305.1756      -0.075149633    0.001427081  
 104490000   243.4802       500.32314      743.80334      297.07619      0.037607633    0.001427081  
 104500000   205.38794      492.66259      698.05052      292.52759     -0.0013223078   0.001427081  
 104510000   235.27082      496.1696       731.44042      294.60994      0.022140685    0.001427081  
 104520000   238.99835      511.53728      750.53563      303.73479     -0.014681324    0.001427081  
 104530000   217.53369      522.49758      740.03127      310.24267      0.032185867    0.001427081  
 104540000   235.20362      516.73095      751.93457      306.81863      0.0035351834   0.001427081  
 104550000   242.1177       541.87696      783.99466      321.74954      0.093075566    0.001427081  
 104560000   218.86751      502.54261      721.41012      298.39404      0.0002142537   0.001427081  
 104570000   220.12896      522.89202      743.02098      310.47688     -0.072657532    0.001427081  
 104580000   224.61914      496.85188      721.47102      295.01506     -0.047270267    0.001427081  
 104590000   226.96001      485.47318      712.43319      288.25875      0.041398577    0.001427081  
 104600000   231.92564      533.47863      765.40427      316.76288     -0.10740512     0.001427081  
 104610000   226.30269      520.78022      747.08291      309.22296      0.00039064406  0.001427081  
 104620000   227.70868      504.00239      731.71107      299.26081      0.0019061851   0.001427081  
 104630000   226.43017      522.63807      749.06823      310.32609     -0.060315479    0.001427081  
 104640000   225.74809      502.88463      728.63272      298.59712      0.079658682    0.001427081  
 104650000   227.94575      486.24242      714.18817      288.71549     -0.0079171152   0.001427081  
 104660000   234.82839      535.92477      770.75316      318.21532     -0.019664529    0.001427081  
 104670000   211.94397      523.60898      735.55295      310.90259      0.072341918    0.001427081  
 104680000   226.10963      516.72964      742.83927      306.81785      0.014123712    0.001427081  
 104690000   204.25391      499.51829      703.7722       296.59829     -0.018292702    0.001427081  
 104700000   236.89217      489.22857      726.12075      290.48858     -0.036258855    0.001427081  
 104710000   219.50201      490.52706      710.02907      291.25958      0.054531699    0.001427081  
 104720000   231.41789      506.10053      737.51841      300.50662      0.023726341    0.001427081  
 104730000   247.23071      535.43836      782.66907      317.9265      -0.083439256    0.001427081  
 104740000   258.25121      506.01871      764.26992      300.45804     -0.044758432    0.001427081  
 104750000   216.43378      506.7043       723.13807      300.86512     -0.050364538    0.001427081  
 104760000   225.30567      512.35753      737.66319      304.22183      0.04363616     0.001427081  
 104770000   239.81644      516.54895      756.36538      306.71056     -0.076235856    0.001427081  
 104780000   238.2773       505.15072      743.42802      299.94265     -0.013467054    0.001427081  
 104790000   233.60068      525.84259      759.44327      312.22884     -0.028741151    0.001427081  
 104800000   211.05472      506.95722      718.01194      301.01529      0.044679222    0.001427081  
 104810000   217.33186      528.79587      746.12773      313.9824      -0.032096547    0.001427081  
 104820000   237.52078      522.47585      759.99663      310.22977      0.034272369    0.001427081  
 104830000   233.24143      533.12843      766.36987      316.55494      0.073451547    0.001427081  
 104840000   215.65529      511.1881       726.84339      303.52746      0.039952092    0.001427081  
 104850000   237.94774      503.57318      741.52092      299.00596      0.055416       0.001427081  
 104860000   223.04589      491.25488      714.30077      291.69174     -0.034405553    0.001427081  
 104870000   239.54777      502.9265       742.47426      298.62198      0.049935209    0.001427081  
 104880000   233.50088      491.8225       725.32337      292.02877      0.044070319    0.001427081  
 104890000   234.14786      512.61644      746.76429      304.37556      0.065897167    0.001427081  
 104900000   247.55723      506.55819      754.11543      300.77837      0.013094966    0.001427081  
 104910000   239.51819      502.36854      741.88673      298.29068     -0.0021556611   0.001427081  
 104920000   218.54183      502.00843      720.55026      298.07686     -0.0042422266   0.001427081  
 104930000   233.40571      529.96584      763.37155      314.67709     -0.011219071    0.001427081  
 104940000   267.68478      500.22676      767.91155      297.01896     -0.040077284    0.001427081  
 104950000   207.90012      506.59646      714.49658      300.80109      0.011194595    0.001427081  
 104960000   238.70811      516.96294      755.67106      306.95638     -0.0027113734   0.001427081  
 104970000   209.5323       509.04601      718.57831      302.25555      0.023651003    0.001427081  
 104980000   226.69792      466.62355      693.32147      277.06643     -0.061776357    0.001427081  
 104990000   239.63356      464.53839      704.17194      275.82832      0.00028864098  0.001427081  
 105000000   249.04952      488.83685      737.88637      290.25599      0.016359107    0.001427081  
Loop time of 4660.95 on 8 procs for 100000000 steps with 566 atoms

Performance: 18537.011 ns/day, 0.001 hours/ns, 21454.874 timesteps/s, 12.143 Matom-step/s
99.5% CPU use with 8 MPI tasks x 1 OpenMP threads

MPI task timing breakdown:
Section |  min time  |  avg time  |  max time  |%varavg| %total
---------------------------------------------------------------
Pair    | 677.94     | 1014.1     | 1608.1     |1141.5 | 21.76
Bond    | 176.41     | 238.24     | 307.77     | 242.5 |  5.11
Neigh   | 9.6694     | 9.9148     | 10.187     |   7.2 |  0.21
Comm    | 2519.5     | 3209.1     | 3568.5     | 720.9 | 68.85
Output  | 0.96766    | 1.2477     | 2.9454     |  57.5 |  0.03
Modify  | 111.4      | 144.99     | 176.55     | 153.9 |  3.11
Other   |            | 43.34      |            |       |  0.93

Nlocal:          70.75 ave         142 max          20 min
Histogram: 1 1 1 2 1 0 0 1 0 1
Nghost:          61.75 ave         128 max          29 min
Histogram: 4 0 0 1 1 0 0 1 0 1
Neighs:          172.5 ave         441 max          34 min
Histogram: 1 5 0 0 0 0 0 0 0 2

Total # of neighbors = 1380
Ave neighs/atom = 2.4381625
Ave special neighs/atom = 4.9187279
Neighbor list builds = 195893
Dangerous builds = 0
System init for write_data ...
Generated 0 of 6 mixed pair_coeff terms from geometric mixing rule
Total wall time: 1:21:08
