LAMMPS (29 Aug 2024)
  using 1 OpenMP thread(s) per MPI task
Reading data file ...
  orthogonal box = (-220 -220 -220) to (220 220 220)
  2 by 2 by 2 MPI processor grid
  reading atoms ...
  266 atoms
  scanning bonds ...
  1 = max bonds/atom
  scanning angles ...
  1 = max angles/atom
  orthogonal box = (-220 -220 -220) to (220 220 220)
  2 by 2 by 2 MPI processor grid
  reading bonds ...
  245 bonds
  reading angles ...
  224 angles
Finding 1-2 1-3 1-4 neighbors ...
  special bond factors lj:    0        0        1       
  special bond factors coul:  0        0        0       
     2 = max # of 1-2 neighbors
     2 = max # of 1-3 neighbors
     4 = max # of 1-4 neighbors
     6 = max # of special neighbors
  special bonds CPU = 0.000 seconds
  read_data CPU = 0.008 seconds

CITE-CITE-CITE-CITE-CITE-CITE-CITE-CITE-CITE-CITE-CITE-CITE-CITE

Your simulation uses code contributions which should be cited:
- Type Label Framework: https://doi.org/10.1021/acs.jpcb.3c08419
The log file lists these citations in BibTeX format.

CITE-CITE-CITE-CITE-CITE-CITE-CITE-CITE-CITE-CITE-CITE-CITE-CITE

Switching to 'neigh_modify every 1 delay 0 check yes' setting during minimization
Generated 0 of 6 mixed pair_coeff terms from geometric mixing rule
Neighbor list info ...
  update: every = 1 steps, delay = 0 steps, check = yes
  max neighbors/atom: 2000, page size: 100000
  master list distance cutoff = 33
  ghost atom cutoff = 33
  binsize = 16.5, bins = 27 27 27
  2 neighbor lists, perpetual/occasional/extra = 2 0 0
  (1) pair lj/cut, perpetual, trim from (2)
      attributes: half, newton on, cut 25
      pair build: trim
      stencil: none
      bin: none
  (2) pair base/rna, perpetual
      attributes: half, newton on
      pair build: half/bin/newton
      stencil: half/bin/3d
      bin: standard
Setting up cg style minimization ...
  Unit style    : real
  Current step  : 0
Per MPI rank memory allocation (min/avg/max) = 8.424 | 8.438 | 8.539 Mbytes
   Step          Temp          E_pair         E_mol          TotEng         Press     
         0   0              2323.8455      271.25486      2595.1004      8.4423146    
       119   0             -113.61682      216.44651      102.82969     -0.00033860585
Loop time of 0.0138844 on 8 procs for 119 steps with 266 atoms

87.9% CPU use with 8 MPI tasks x 1 OpenMP threads

Minimization stats:
  Stopping criterion = energy tolerance
  Energy initial, next-to-last, final = 
      2595.10036458677   102.839203357064   102.829687182151
  Force two-norm initial, final = 5888.4578 0.67989572
  Force max component initial, final = 2667.2637 0.17067472
  Final line search alpha, max atom move = 0.19519102 0.033314174
  Iterations, force evaluations = 119 183

MPI task timing breakdown:
Section |  min time  |  avg time  |  max time  |%varavg| %total
---------------------------------------------------------------
Pair    | 0.0026993  | 0.0047835  | 0.0088557  |   2.9 | 34.45
Bond    | 0.00020564 | 0.00043855 | 0.00066493 |   0.0 |  3.16
Neigh   | 0          | 0          | 0          |   0.0 |  0.00
Comm    | 0.0028651  | 0.0071221  | 0.0091943  |   2.4 | 51.30
Output  | 0          | 0          | 0          |   0.0 |  0.00
Modify  | 0          | 0          | 0          |   0.0 |  0.00
Other   |            | 0.00154    |            |       | 11.09

Nlocal:          33.25 ave          51 max          14 min
Histogram: 1 0 2 0 0 2 0 1 1 1
Nghost:         78.875 ave          94 max          59 min
Histogram: 1 0 0 1 1 2 0 0 1 2
Neighs:        152.125 ave         325 max          40 min
Histogram: 2 2 0 0 1 1 0 1 0 1

Total # of neighbors = 1217
Ave neighs/atom = 4.575188
Ave special neighs/atom = 5.0526316
Neighbor list builds = 0
Dangerous builds = 0
Generated 0 of 6 mixed pair_coeff terms from geometric mixing rule
Setting up Verlet run ...
  Unit style    : real
  Current step  : 0
  Time step     : 10
Per MPI rank memory allocation (min/avg/max) = 7.314 | 7.348 | 7.582 Mbytes
   Step         PotEng         KinEng         TotEng          Temp          Press         Density    
         0   102.82969      236.9744       339.80409      300            0.12682893     0.0016969568 
     10000   61.092691      238.49056      299.58325      301.9194       0.0075602279   0.0016969568 
     20000   59.593807      235.5142       295.108        298.15144     -0.098662875    0.0016969568 
     30000   58.008926      245.20061      303.20954      310.41405      0.12751264     0.0016969568 
     40000   69.429889      274.09147      343.52136      346.98871     -0.050567724    0.0016969568 
     50000   62.95145       244.53833      307.48978      309.57563      0.029274984    0.0016969568 
     60000   58.891954      245.09175      303.98371      310.27624      0.0076160439   0.0016969568 
     70000   96.2194        237.18099      333.4004       300.26154      0.10447492     0.0016969568 
     80000   74.336012      269.11938      343.4554       340.69425      0.038552616    0.0016969568 
     90000   88.218828      234.19646      322.41528      296.48324      0.10776266     0.0016969568 
    100000   91.491877      251.69357      343.18545      318.63388     -0.045514524    0.0016969568 
    110000   90.074299      248.03186      338.10616      313.9983       0.038706241    0.0016969568 
    120000   83.023576      225.17269      308.19627      285.05952     -0.073346574    0.0016969568 
    130000   85.795942      247.18799      332.98393      312.92999     -0.061447555    0.0016969568 
    140000   74.93448       249.07319      324.00767      315.31659      0.036339909    0.0016969568 
    150000   66.539009      257.18823      323.72724      325.58989     -0.088577403    0.0016969568 
    160000   67.657254      244.89328      312.55053      310.02498      0.14040223     0.0016969568 
    170000   54.616879      236.73187      291.34875      299.69297      0.15306146     0.0016969568 
    180000   56.099988      218.62691      274.7269       276.77282     -0.033685155    0.0016969568 
    190000   67.648321      248.20895      315.85727      314.22249      0.0091943707   0.0016969568 
    200000   89.852672      230.39239      320.24506      291.66744     -0.054400716    0.0016969568 
    210000   70.093917      254.0188       324.11272      321.57752      0.026720602    0.0016969568 
    220000   84.992653      216.58574      301.57839      274.18878      0.18688115     0.0016969568 
    230000   68.112683      269.72386      337.83654      341.45949      0.047991164    0.0016969568 
    240000   102.05396      237.8677       339.92165      301.13088      0.12839189     0.0016969568 
    250000   70.061901      244.33612      314.39802      309.31964     -0.10002275     0.0016969568 
    260000   75.861834      237.03305      312.89489      300.07425      0.069105496    0.0016969568 
    270000   75.360586      231.37463      306.73521      292.91092      0.016437413    0.0016969568 
    280000   73.06691       220.62729      293.6942       279.30522      0.056498634    0.0016969568 
    290000   65.876092      231.78769      297.66378      293.43384      0.080193       0.0016969568 
    300000   66.822113      267.86067      334.68279      339.10077      0.076113234    0.0016969568 
    310000   63.011935      242.30733      305.31927      306.75128      0.042702528    0.0016969568 
    320000   60.832464      226.43625      287.26871      286.65913      0.14004448     0.0016969568 
    330000   71.195642      235.65595      306.85159      298.3309      -0.0046670057   0.0016969568 
    340000   86.108517      243.98974      330.09826      308.88114     -0.1255885      0.0016969568 
    350000   77.690496      231.6393       309.3298       293.24599      0.098188977    0.0016969568 
    360000   88.101786      236.96665      325.06844      299.99019     -0.12273009     0.0016969568 
    370000   74.127058      230.7101       304.83716      292.06966      0.054035053    0.0016969568 
    380000   61.351574      215.58102      276.93259      272.91685      0.039816119    0.0016969568 
    390000   70.970254      214.01312      284.98338      270.93195     -0.040067874    0.0016969568 
    400000   66.939037      241.35528      308.29432      305.54602     -0.01366717     0.0016969568 
    410000   73.106369      254.72229      327.82866      322.46812     -0.18167979     0.0016969568 
    420000   73.942734      228.99188      302.93462      289.89446     -0.089314434    0.0016969568 
    430000   71.680806      236.53395      308.21476      299.44241     -0.1040563      0.0016969568 
    440000   73.933155      229.4357       303.36885      290.45631     -0.08508746     0.0016969568 
    450000   63.969001      255.01951      318.98851      322.84438      0.017029544    0.0016969568 
    460000   88.368388      219.11587      307.48426      277.39182     -0.092735129    0.0016969568 
    470000   87.094577      243.65492      330.7495       308.45727     -0.058835354    0.0016969568 
    480000   72.691893      245.82945      318.52135      311.21014      0.02493068     0.0016969568 
    490000   93.301951      242.19675      335.4987       306.61129      0.0029863845   0.0016969568 
    500000   84.233277      249.99737      334.23064      316.48655      0.069086915    0.0016969568 
    510000   75.714635      226.1949       301.90953      286.35359      0.050615524    0.0016969568 
    520000   64.307349      241.994        306.30135      306.35461      0.11767767     0.0016969568 
    530000   70.935587      224.97567      295.91126      284.81009      0.12588725     0.0016969568 
    540000   84.754846      249.44932      334.20417      315.79275      0.041824578    0.0016969568 
    550000   91.658711      236.96582      328.62453      299.98914      0.053340191    0.0016969568 
    560000   72.705309      240.90969      313.615        304.98192      0.040827556    0.0016969568 
    570000   77.742998      258.433        336.17599      327.16572      0.18603081     0.0016969568 
    580000   89.904733      254.99938      344.90411      322.8189       0.017422218    0.0016969568 
    590000   92.207384      232.54084      324.74822      294.38729     -0.0073263885   0.0016969568 
    600000   60.446217      250.10957      310.55579      316.62859      0.17161069     0.0016969568 
    610000   68.922343      232.08854      301.01088      293.8147       0.10197403     0.0016969568 
    620000   70.715466      230.33471      301.05017      291.59442     -0.11706221     0.0016969568 
    630000   67.616376      240.20526      307.82163      304.09013      0.098489069    0.0016969568 
    640000   55.71723       245.26383      300.98106      310.49408      0.017221483    0.0016969568 
    650000   61.377263      251.74197      313.11923      318.69515      0.075068639    0.0016969568 
    660000   55.223479      236.54246      291.76594      299.45318      0.0053380231   0.0016969568 
    670000   90.249017      261.54924      351.79826      331.11076      0.13199939     0.0016969568 
    680000   72.967966      230.0023       302.97027      291.17361      0.034324513    0.0016969568 
    690000   59.275882      226.59301      285.86889      286.85758     -0.057548868    0.0016969568 
    700000   81.570075      250.30043      331.87051      316.87022      0.11173566     0.0016969568 
    710000   66.794744      252.72524      319.51999      319.93993     -0.010609873    0.0016969568 
    720000   67.5135        232.28812      299.80162      294.06736      0.051224347    0.0016969568 
    730000   83.051815      230.2801       313.33191      291.52528      0.11266091     0.0016969568 
    740000   62.282519      241.55926      303.84178      305.80425     -0.085182138    0.0016969568 
    750000   57.929385      245.97044      303.89982      311.38862      0.053126144    0.0016969568 
    760000   65.293593      228.7267       294.02029      289.55874      0.10364098     0.0016969568 
    770000   85.498485      232.65195      318.15043      294.52795     -0.0078807949   0.0016969568 
    780000   80.892563      240.18801      321.08058      304.06831      0.12208054     0.0016969568 
    790000   74.800952      223.14189      297.94285      282.48861      0.088408578    0.0016969568 
    800000   94.481857      232.06976      326.55162      293.79093     -0.025524893    0.0016969568 
    810000   82.74395       247.10003      329.84398      312.81863     -0.017778408    0.0016969568 
    820000   69.294923      223.64082      292.93574      283.12023      0.10140403     0.0016969568 
    830000   53.393358      231.34615      284.73951      292.87486      0.060523272    0.0016969568 
    840000   70.997462      238.68807      309.68553      302.16944      0.067022144    0.0016969568 
    850000   63.327179      239.81124      303.13842      303.59133     -0.025747176    0.0016969568 
    860000   72.642131      241.63415      314.27628      305.89906     -0.062839396    0.0016969568 
    870000   54.412365      253.16162      307.57398      320.49236      0.0644794      0.0016969568 
    880000   77.82716       243.83401      321.66117      308.68399     -0.11213841     0.0016969568 
    890000   71.276962      237.31903      308.59599      300.43629      0.0086077293   0.0016969568 
    900000   66.874069      228.65657      295.53064      289.46997      0.05340268     0.0016969568 
    910000   85.55499       211.1021       296.65709      267.24672      0.10712526     0.0016969568 
    920000   92.210135      236.09817      328.30831      298.89073     -0.12247301     0.0016969568 
    930000   67.075522      232.68616      299.76168      294.57127     -0.028450183    0.0016969568 
    940000   54.062816      234.58936      288.65218      296.98064     -0.15304053     0.0016969568 
    950000   50.465973      239.82257      290.28855      303.60567      0.20742051     0.0016969568 
    960000   89.24651       269.14048      358.38699      340.72096      0.025149217    0.0016969568 
    970000   61.163873      243.40492      304.56879      308.14078      0.037571995    0.0016969568 
    980000   65.176362      251.03151      316.20787      317.79573     -0.066882415    0.0016969568 
    990000   78.487189      232.10176      310.58895      293.83143      0.19467577     0.0016969568 
   1000000   73.02558       220.66128      293.68686      279.34825     -0.1172183      0.0016969568 
   1010000   75.503342      238.93999      314.44333      302.48836     -0.034167643    0.0016969568 
   1020000   65.782359      217.65887      283.44123      275.54732     -0.16266468     0.0016969568 
   1030000   67.950482      219.03134      286.98182      277.28482      0.18986284     0.0016969568 
   1040000   67.929151      230.48405      298.4132       291.78348      0.076113317    0.0016969568 
   1050000   55.793169      261.21993      317.0131       330.69386     -0.062242362    0.0016969568 
   1060000   77.056689      222.19509      299.25178      281.29        -0.16178174     0.0016969568 
   1070000   66.540646      233.88418      300.42482      296.08791      0.024448333    0.0016969568 
   1080000   39.290322      233.67739      272.96771      295.82612     -0.0024907319   0.0016969568 
   1090000   65.421572      225.15883      290.5804       285.04197      0.04988491     0.0016969568 
   1100000   56.64332       247.67169      304.31501      313.54234      0.04244017     0.0016969568 
   1110000   63.731016      228.76565      292.49666      289.60805      0.048990863    0.0016969568 
   1120000   61.174053      248.87928      310.05333      315.0711       0.07670388     0.0016969568 
   1130000   84.754787      245.06304      329.81783      310.23989      0.0012966834   0.0016969568 
   1140000   53.934105      251.46515      305.39925      318.3447       0.021619924    0.0016969568 
   1150000   58.716179      260.2113       318.92748      329.41698     -0.010134691    0.0016969568 
   1160000   60.787699      236.68135      297.46905      299.62901      0.021466151    0.0016969568 
   1170000   84.027455      218.90099      302.92844      277.11979      0.076745457    0.0016969568 
   1180000   83.228392      247.78687      331.01527      313.68816     -0.13223902     0.0016969568 
   1190000   64.338467      242.27959      306.61805      306.71615      0.10300682     0.0016969568 
   1200000   58.099202      235.47787      293.57707      298.10545     -0.03742445     0.0016969568 
   1210000   60.958343      238.77258      299.73092      302.27642      0.046483508    0.0016969568 
   1220000   66.177213      217.75121      283.92842      275.66422      0.12901792     0.0016969568 
   1230000   51.971213      224.21489      276.1861       283.84697     -0.10063532     0.0016969568 
   1240000   59.395365      260.17369      319.56906      329.36936      0.077868492    0.0016969568 
   1250000   70.659485      208.59515      279.25463      264.07302     -0.21093923     0.0016969568 
   1260000   67.152979      258.04305      325.19603      326.67205     -0.04087429     0.0016969568 
   1270000   80.120739      232.67878      312.79952      294.56193      0.21647561     0.0016969568 
   1280000   55.22477       252.19937      307.42414      319.27419      0.12629202     0.0016969568 
   1290000   68.578934      236.61864      305.19757      299.54962     -0.10496449     0.0016969568 
   1300000   65.809361      211.35939      277.16875      267.57244     -0.12597536     0.0016969568 
   1310000   63.717177      258.47371      322.19088      327.21725     -0.082782114    0.0016969568 
   1320000   87.019129      237.95588      324.975        301.24251      0.0088399136   0.0016969568 
   1330000   77.752322      264.24924      342.00156      334.52884      0.0074484227   0.0016969568 
   1340000   89.33839       246.82264      336.16103      312.46748      0.12280705     0.0016969568 
   1350000   67.172266      226.65788      293.83015      286.93971     -0.069556176    0.0016969568 
   1360000   65.210703      253.1028       318.31351      320.41791      0.10192577     0.0016969568 
   1370000   74.79996       236.35926      311.15922      299.22125      0.0859669      0.0016969568 
   1380000   63.991985      236.23504      300.22703      299.064        0.14399253     0.0016969568 
   1390000   84.761269      261.0254       345.78667      330.4476       0.016305672    0.0016969568 
   1400000   86.227992      228.11415      314.34214      288.78328      0.061025503    0.0016969568 
   1410000   93.199849      236.60708      329.80693      299.53499      0.014369682    0.0016969568 
   1420000   84.555795      227.23739      311.79319      287.67334     -0.004610193    0.0016969568 
   1430000   68.526019      245.23305      313.75907      310.45512      0.13690488     0.0016969568 
   1440000   64.901572      241.50044      306.40201      305.72978      0.069733347    0.0016969568 
   1450000   64.183298      232.03465      296.21795      293.74648     -0.067745001    0.0016969568 
   1460000   51.700458      241.94862      293.64907      306.29716      0.20774312     0.0016969568 
   1470000   56.247296      249.43426      305.68156      315.77369     -0.029412144    0.0016969568 
   1480000   75.031285      241.60842      316.63971      305.86649     -0.16280355     0.0016969568 
   1490000   78.378334      238.93717      317.3155       302.48479     -0.15498078     0.0016969568 
   1500000   74.369265      261.66509      336.03435      331.25741     -0.020848297    0.0016969568 
   1510000   74.141016      258.80282      332.94384      327.6339       0.027309336    0.0016969568 
   1520000   69.071746      243.427        312.49875      308.16873      0.16919144     0.0016969568 
   1530000   92.522094      246.00794      338.53004      311.4361       0.013383002    0.0016969568 
   1540000   64.628072      216.4226       281.05068      273.98226     -0.031782988    0.0016969568 
   1550000   77.176518      260.7845       337.96102      330.14263      0.011028564    0.0016969568 
   1560000   60.212533      214.16891      274.38144      271.12917      0.046236637    0.0016969568 
   1570000   45.835932      244.78038      290.61631      309.88205     -0.077516115    0.0016969568 
   1580000   79.997765      229.49761      309.49537      290.53469      0.11395313     0.0016969568 
   1590000   55.768807      222.47958      278.24839      281.65015      0.067556907    0.0016969568 
   1600000   74.244616      217.61784      291.86246      275.49539     -0.10073715     0.0016969568 
   1610000   59.540746      225.72675      285.2675       285.76093     -0.12054512     0.0016969568 
   1620000   61.436511      241.63763      303.07414      305.90346     -0.054513685    0.0016969568 
   1630000   52.345631      239.38182      291.72745      303.04769      0.055949356    0.0016969568 
   1640000   54.356058      234.67154      289.0276       297.08468      0.02090419     0.0016969568 
   1650000   55.406417      233.50899      288.91541      295.61294      0.093009397    0.0016969568 
   1660000   68.450411      220.74698      289.19739      279.45675      0.0052133296   0.0016969568 
   1670000   61.863296      251.45884      313.32214      318.33672      0.12938362     0.0016969568 
   1680000   71.177617      243.83177      315.00939      308.68115      0.038879565    0.0016969568 
   1690000   89.151862      251.78705      340.93891      318.75221     -0.0017587904   0.0016969568 
   1700000   65.503406      229.34428      294.84768      290.34058      0.050456797    0.0016969568 
   1710000   60.554829      259.95564      320.51047      329.09333      0.033897625    0.0016969568 
   1720000   68.987758      217.53526      286.52302      275.39084      0.20456038     0.0016969568 
   1730000   63.900177      237.07277      300.97295      300.12454      0.097351151    0.0016969568 
   1740000   66.97092       247.23877      314.20969      312.99427      0.14235722     0.0016969568 
   1750000   86.618751      226.91319      313.53194      287.26292      0.025261722    0.0016969568 
   1760000   61.505658      224.89166      286.39732      284.70374     -0.066136256    0.0016969568 
   1770000   74.035897      246.44537      320.48126      311.98986     -0.11427087     0.0016969568 
   1780000   47.25817       225.62926      272.88743      285.63752      0.050183855    0.0016969568 
   1790000   71.060784      262.14843      333.20921      331.8693      -0.10604658     0.0016969568 
   1800000   81.100421      241.64502      322.74544      305.91282     -0.16540043     0.0016969568 
   1810000   68.602377      224.68271      293.28509      284.43922      0.034880115    0.0016969568 
   1820000   75.38996       241.18779      316.57775      305.33399      0.063107648    0.0016969568 
   1830000   80.47811       237.05489      317.533        300.10189      0.04896405     0.0016969568 
   1840000   74.72212       236.28477      311.00689      299.12696     -0.18834168     0.0016969568 
   1850000   85.940374      234.50219      320.44256      296.87028     -0.10951402     0.0016969568 
   1860000   71.53854       233.1781       304.71664      295.19403     -0.080447268    0.0016969568 
   1870000   74.535335      249.71454      324.24988      316.1285       0.044551646    0.0016969568 
   1880000   77.156278      225.31635      302.47263      285.24138      0.10209673     0.0016969568 
   1890000   83.837885      243.8583       327.69618      308.71473      0.083051656    0.0016969568 
   1900000   86.941652      236.36495      323.3066       299.22846      0.072725718    0.0016969568 
   1910000   72.334415      235.57056      307.90497      298.2228       0.038213794    0.0016969568 
   1920000   63.814692      243.59758      307.41227      308.38467      0.078656715    0.0016969568 
   1930000   76.657397      238.02814      314.68553      301.33399      0.1561673      0.0016969568 
   1940000   82.43972       243.98714      326.42686      308.87784      0.073359191    0.0016969568 
   1950000   58.719858      224.57714      283.297        284.30557      0.16598528     0.0016969568 
   1960000   60.152101      237.76168      297.91379      300.99667      0.11109629     0.0016969568 
   1970000   74.248629      256.49589      330.74452      324.71342     -0.058534343    0.0016969568 
   1980000   78.297214      233.19284      311.49006      295.2127      -0.06334196     0.0016969568 
   1990000   63.29955       242.5504       305.84995      307.05899      0.070716339    0.0016969568 
   2000000   68.661633      253.16339      321.82502      320.4946      -0.083003296    0.0016969568 
   2010000   47.65018       236.57178      284.22196      299.49031      0.1713974      0.0016969568 
   2020000   66.494006      257.73178      324.22579      326.27801     -0.13825167     0.0016969568 
   2030000   60.124482      253.92807      314.05255      321.46266     -0.066411205    0.0016969568 
   2040000   74.158708      244.86963      319.02834      309.99504      0.081514705    0.0016969568 
   2050000   63.184695      224.42848      287.61317      284.11737     -0.0088961827   0.0016969568 
   2060000   67.446927      245.49216      312.93909      310.78314      0.09317872     0.0016969568 
   2070000   62.962359      233.34612      296.30848      295.40675     -0.13222281     0.0016969568 
   2080000   75.911385      232.88564      308.79702      294.8238       0.078089233    0.0016969568 
   2090000   78.682936      257.15916      335.8421       325.5531       0.081999473    0.0016969568 
   2100000   80.102137      226.35505      306.45718      286.55633      0.0083790122   0.0016969568 
   2110000   71.483579      244.90495      316.38853      310.03975      0.027691485    0.0016969568 
   2120000   84.978758      246.69371      331.67247      312.30426     -0.090280695    0.0016969568 
   2130000   64.414841      237.85356      302.2684       301.11298     -0.03446316     0.0016969568 
   2140000   80.864844      238.14651      319.01135      301.48384      0.019023113    0.0016969568 
   2150000   71.179631      228.16024      299.33987      288.84163      0.048348473    0.0016969568 
   2160000   62.196086      235.99524      298.19133      298.76043     -0.063227804    0.0016969568 
   2170000   53.863312      231.5916       285.45491      293.18559      0.19489169     0.0016969568 
   2180000   64.129667      241.31735      305.44702      305.498        0.12650761     0.0016969568 
   2190000   66.166833      268.50068      334.66751      339.91099     -0.01058633     0.0016969568 
   2200000   60.497073      242.83826      303.33533      307.42341     -0.018266208    0.0016969568 
   2210000   66.045949      224.14082      290.18676      283.7532       0.21847317     0.0016969568 
   2220000   78.052639      264.41675      342.46939      334.74091      0.012436748    0.0016969568 
   2230000   91.590893      230.08596      321.67685      291.27951      0.15608491     0.0016969568 
   2240000   66.254412      241.15272      307.40714      305.28959      0.014333842    0.0016969568 
   2250000   65.22642       243.44866      308.67508      308.19616      0.092412942    0.0016969568 
   2260000   92.231575      240.44406      332.67564      304.39245      0.099505327    0.0016969568 
   2270000   61.39398       215.66696      277.06094      273.02564      0.05215756     0.0016969568 
   2280000   64.989062      214.73664      279.7257       271.8479       0.031692223    0.0016969568 
   2290000   74.238541      243.01533      317.25387      307.64757     -0.024453381    0.0016969568 
   2300000   82.951224      248.15218      331.1034       314.15061     -0.10241928     0.0016969568 
   2310000   63.375878      240.64847      304.02435      304.65123      0.1152482      0.0016969568 
   2320000   56.892603      244.89829      301.7909       310.03133      0.073935713    0.0016969568 
   2330000   79.059038      237.81417      316.87321      301.06312     -0.22485083     0.0016969568 
   2340000   81.121865      227.17678      308.29865      287.59662     -0.0010950526   0.0016969568 
   2350000   75.688666      246.73642      322.42509      312.35832     -0.0097345328   0.0016969568 
   2360000   56.934384      238.48499      295.41937      301.91235     -0.012074547    0.0016969568 
   2370000   63.262807      228.53316      291.79597      289.31373     -0.036513163    0.0016969568 
   2380000   65.142584      216.34196      281.48454      273.88016      0.051204519    0.0016969568 
   2390000   67.11664       248.90482      316.02146      315.10344     -0.073333524    0.0016969568 
   2400000   72.831352      242.26867      315.10002      306.70234     -0.19650728     0.0016969568 
   2410000   60.86891       217.98565      278.85456      275.96101     -0.19512785     0.0016969568 
   2420000   53.378924      252.09282      305.47175      319.13931      0.037098217    0.0016969568 
   2430000   59.892544      223.5238       283.41635      282.97209      0.1780747      0.0016969568 
   2440000   59.798019      211.71494      271.51296      268.02254      0.027696486    0.0016969568 
   2450000   47.591087      258.94291      306.534        327.81125     -0.032169214    0.0016969568 
   2460000   55.455191      230.29791      285.7531       291.54784     -0.12340177     0.0016969568 
   2470000   63.979819      249.0655       313.04531      315.30684      0.0064250849   0.0016969568 
   2480000   56.486656      234.36662      290.85327      296.69865     -0.05521424     0.0016969568 
   2490000   78.565851      227.04111      305.60696      287.42486      0.089591716    0.0016969568 
   2500000   74.56411       249.02371      323.58782      315.25394      0.061416552    0.0016969568 
   2510000   49.371378      242.36238      291.73376      306.82097      0.045790366    0.0016969568 
   2520000   55.779762      229.85079      285.63055      290.9818       0.037822286    0.0016969568 
   2530000   69.591874      228.47284      298.06471      289.23736      0.064192193    0.0016969568 
   2540000   69.216018      229.84043      299.05644      290.96868     -0.0064303937   0.0016969568 
   2550000   79.720219      244.74476      324.46497      309.83696      0.093024119    0.0016969568 
   2560000   74.256236      259.70371      333.95994      328.77439     -0.020831198    0.0016969568 
   2570000   83.004889      244.25253      327.25742      309.21382      0.11765456     0.0016969568 
   2580000   53.778566      226.4605       280.23906      286.68983     -0.15233011     0.0016969568 
   2590000   64.807622      228.95989      293.76752      289.85396     -0.031279357    0.0016969568 
   2600000   68.984905      238.77622      307.76113      302.28103      0.087426309    0.0016969568 
   2610000   66.329852      258.56414      324.89399      327.33174      0.017016325    0.0016969568 
   2620000   62.041132      218.65861      280.69975      276.81296     -0.0044524882   0.0016969568 
   2630000   58.47966       253.92837      312.40803      321.46304      0.074436382    0.0016969568 
   2640000   60.609049      237.23682      297.84587      300.33221     -0.03205219     0.0016969568 
   2650000   68.55172       244.70235      313.25407      309.78327     -0.057651433    0.0016969568 
   2660000   66.575417      226.34239      292.91781      286.54031     -0.077387708    0.0016969568 
   2670000   75.792227      247.45915      323.25138      313.27327      0.038595094    0.0016969568 
   2680000   53.623965      224.69715      278.32112      284.4575      -0.0077615824   0.0016969568 
   2690000   63.108156      253.08614      316.19429      320.39681      0.050153871    0.0016969568 
   2700000   72.913439      238.64772      311.56116      302.11835      0.14767605     0.0016969568 
   2710000   63.488712      242.04996      305.53867      306.42545      0.1075013      0.0016969568 
   2720000   72.232546      233.94612      306.17866      296.16632     -0.083038153    0.0016969568 
   2730000   93.421527      223.53011      316.95164      282.98008      0.14628967     0.0016969568 
   2740000   73.638911      233.5702       307.20911      295.69042     -0.040603769    0.0016969568 
   2750000   69.305706      235.45722      304.76292      298.07931     -0.013995215    0.0016969568 
   2760000   62.164346      230.71333      292.87768      292.07374     -0.18028901     0.0016969568 
   2770000   85.378563      224.73496      310.11352      284.50536     -0.062322303    0.0016969568 
   2780000   68.419756      245.65519      314.07495      310.98953      0.14881486     0.0016969568 
   2790000   86.732307      224.95796      311.69027      284.78768      0.075413645    0.0016969568 
   2800000   88.568295      229.11124      317.67954      290.04556      0.079121652    0.0016969568 
   2810000   79.180043      246.98202      326.16207      312.66925     -0.056841891    0.0016969568 
   2820000   73.325089      257.92824      331.25333      326.52671      0.024064185    0.0016969568 
   2830000   69.026106      233.60599      302.63209      295.73573      0.24055704     0.0016969568 
   2840000   52.070536      234.8453       286.91584      297.30465     -0.014804386    0.0016969568 
   2850000   61.454281      226.10919      287.56347      286.24508     -0.01782168     0.0016969568 
   2860000   70.779626      254.33761      325.11724      321.98112      0.00024009043  0.0016969568 
   2870000   65.320566      259.80809      325.12866      328.90653      0.030392078    0.0016969568 
   2880000   56.984672      238.15786      295.14254      301.49822      0.069492725    0.0016969568 
   2890000   82.568727      232.77743      315.34615      294.6868       0.058121197    0.0016969568 
   2900000   77.509705      248.91848      326.42819      315.12072     -0.048708459    0.0016969568 
   2910000   74.165052      255.42509      329.59014      323.35783      0.012493915    0.0016969568 
   2920000   83.586459      204.44825      288.03471      258.82322      0.013656051    0.0016969568 
   2930000   67.963361      248.33551      316.29888      314.38271      0.044225488    0.0016969568 
   2940000   70.601039      241.30718      311.90821      305.48512     -0.11864771     0.0016969568 
   2950000   70.603867      227.87655      298.48041      288.48249      0.0085527249   0.0016969568 
   2960000   72.611915      270.81735      343.42926      342.8438       0.037276994    0.0016969568 
   2970000   67.906687      252.97237      320.87906      320.25278     -0.015689068    0.0016969568 
   2980000   78.082965      247.01213      325.0951       312.70737      0.016407629    0.0016969568 
   2990000   48.04848       230.28761      278.33609      291.53479      0.0030163388   0.0016969568 
   3000000   60.223135      244.48126      304.7044       309.50339     -0.13470735     0.0016969568 
   3010000   77.226986      236.71177      313.93876      299.66753      0.067073035    0.0016969568 
   3020000   77.160833      241.08681      318.24765      305.20615      0.0054885858   0.0016969568 
   3030000   76.394916      235.36988      311.76479      297.96874      0.16722874     0.0016969568 
   3040000   72.720653      240.26823      312.98888      304.16985      0.087072892    0.0016969568 
   3050000   82.509827      244.78505      327.29488      309.88797     -0.15015736     0.0016969568 
   3060000   57.89585       230.60124      288.49709      291.93184      0.0028428687   0.0016969568 
   3070000   78.885568      233.43804      312.32361      295.52312     -0.13626398     0.0016969568 
   3080000   73.138567      210.36676      283.50533      266.3158      -0.082309974    0.0016969568 
   3090000   74.948742      227.20193      302.15067      287.62844      0.09182765     0.0016969568 
   3100000   88.718378      248.77455      337.49293      314.93852     -0.01078094     0.0016969568 
   3110000   87.980252      238.51115      326.4914       301.94546     -0.017286032    0.0016969568 
   3120000   70.670062      245.47391      316.14398      310.76004     -0.14482697     0.0016969568 
   3130000   68.191907      236.92852      305.12042      299.94191      0.0035465021   0.0016969568 
   3140000   115.00332      250.10332      365.10665      316.62069     -0.12169674     0.0016969568 
   3150000   98.541861      242.88232      341.42418      307.47919     -0.061037571    0.0016969568 
   3160000   67.28181       233.67245      300.95426      295.81986     -0.14928876     0.0016969568 
   3170000   64.696633      233.93836      298.635        296.1565      -0.16973794     0.0016969568 
   3180000   91.752606      233.34186      325.09447      295.40136      0.034804638    0.0016969568 
   3190000   65.610525      226.11928      291.7298       286.25786      0.12687206     0.0016969568 
   3200000   82.274337      235.48637      317.7607       298.11621      0.047501039    0.0016969568 
   3210000   63.183457      238.10786      301.29132      301.43492     -0.082262961    0.0016969568 
   3220000   75.4258        247.00891      322.43471      312.70329      0.027414283    0.0016969568 
   3230000   93.778116      223.76078      317.53889      283.27209      0.16305489     0.0016969568 
   3240000   68.371948      229.3911       297.76305      290.39985      0.037379449    0.0016969568 
   3250000   50.465614      237.70181      288.16743      300.92088      0.16516717     0.0016969568 
   3260000   71.501601      237.24304      308.74464      300.34008      0.061545256    0.0016969568 
   3270000   55.464923      223.18664      278.65157      282.54526     -0.081479069    0.0016969568 
   3280000   93.494636      257.00483      350.49947      325.35772      0.19900485     0.0016969568 
   3290000   83.164871      234.86022      318.02509      297.32353      0.042251227    0.0016969568 
   3300000   63.196214      248.14593      311.34214      314.1427       0.06039843     0.0016969568 
   3310000   86.123846      224.68331      310.80715      284.43998      0.037272394    0.0016969568 
   3320000   54.076661      239.08962      293.16628      302.67779      0.18122758     0.0016969568 
   3330000   66.7045        230.54633      297.25083      291.86233     -0.047389302    0.0016969568 
   3340000   62.765795      211.42901      274.1948       267.66057     -0.014112225    0.0016969568 
   3350000   71.792293      230.61862      302.41092      291.95384     -0.1396678      0.0016969568 
   3360000   60.460514      234.05908      294.5196       296.30933     -0.028294832    0.0016969568 
   3370000   58.432461      256.23999      314.67246      324.38946      0.040471209    0.0016969568 
   3380000   63.624742      235.30118      298.92592      297.88177      0.091424132    0.0016969568 
   3390000   72.147518      228.86803      301.01555      289.73766      0.13443074     0.0016969568 
   3400000   50.641119      230.78521      281.42633      292.16474      0.068589023    0.0016969568 
   3410000   60.282314      249.99653      310.27884      316.48549      0.19147697     0.0016969568 
   3420000   82.077127      219.05433      301.13145      277.31391     -0.19178572     0.0016969568 
   3430000   72.929398      224.46854      297.39794      284.16809     -0.041248136    0.0016969568 
   3440000   50.784259      257.12552      307.90978      325.51051      0.025274704    0.0016969568 
   3450000   70.790988      232.92033      303.71132      294.86772      0.0015630468   0.0016969568 
   3460000   78.000701      242.5814       320.5821       307.09823      0.017055655    0.0016969568 
   3470000   60.554254      219.64235      280.19661      278.05833     -0.027485885    0.0016969568 
   3480000   68.800154      237.39253      306.19268      300.52934     -0.012968614    0.0016969568 
   3490000   72.136351      232.37265      304.509        294.17437      0.0097818059   0.0016969568 
   3500000   47.434951      270.23335      317.6683       342.10449     -0.023159404    0.0016969568 
   3510000   68.824975      229.63813      298.46311      290.71258     -0.052021966    0.0016969568 
   3520000   40.194462      243.53701      283.73147      308.308       -0.030505626    0.0016969568 
   3530000   70.739341      238.86577      309.60511      302.3944       0.18905511     0.0016969568 
   3540000   89.767423      231.52804      321.29547      293.10513      0.078207262    0.0016969568 
   3550000   64.951927      209.36397      274.3159       265.04631      0.032387746    0.0016969568 
   3560000   65.443706      238.40103      303.84473      301.80606      0.027719689    0.0016969568 
   3570000   77.164069      243.50287      320.66694      308.26478      0.18195715     0.0016969568 
   3580000   62.918502      243.68203      306.60053      308.49159     -0.10346459     0.0016969568 
   3590000   79.801764      237.15017      316.95193      300.22252      0.13500904     0.0016969568 
   3600000   76.386014      238.0708       314.45682      301.388        0.049536474    0.0016969568 
   3610000   85.231315      248.81119      334.0425       314.9849      -0.084000833    0.0016969568 
   3620000   66.793099      216.10191      282.89501      273.57627     -0.0062302276   0.0016969568 
   3630000   84.519309      237.52815      322.04746      300.70102      0.12281006     0.0016969568 
   3640000   89.571044      246.79934      336.37038      312.43797      0.16396025     0.0016969568 
   3650000   60.418063      233.0698       293.48786      295.05693      0.015604214    0.0016969568 
   3660000   86.795591      223.68146      310.47705      283.17168     -0.15181659     0.0016969568 
   3670000   58.105241      241.5916       299.69684      305.84519      0.023460815    0.0016969568 
   3680000   63.977708      241.14808      305.12579      305.28371      0.086425322    0.0016969568 
   3690000   47.500584      228.22442      275.725        288.92288      0.096605206    0.0016969568 
   3700000   53.374353      225.58213      278.95648      285.57785      0.0028616862   0.0016969568 
   3710000   75.728125      223.73452      299.46265      283.23886      0.060654092    0.0016969568 
   3720000   73.918614      221.32924      295.24786      280.19386      0.065127941    0.0016969568 
   3730000   62.109105      238.31894      300.42804      301.70213     -0.1590475      0.0016969568 
   3740000   58.460659      222.86298      281.32364      282.13552     -0.041702673    0.0016969568 
   3750000   68.890937      255.29121      324.18215      323.18834      0.07850438     0.0016969568 
   3760000   63.451236      212.66944      276.12067      269.2309      -0.18006585     0.0016969568 
   3770000   63.390103      253.44961      316.83971      320.85695      0.1905898      0.0016969568 
   3780000   82.995295      247.29213      330.28742      313.06182      0.11948524     0.0016969568 
   3790000   71.831031      222.07953      293.91056      281.1437      -0.14306259     0.0016969568 
   3800000   79.410407      223.38368      302.79409      282.7947       0.038982526    0.0016969568 
   3810000   72.576577      222.21445      294.79103      281.3145       0.039062906    0.0016969568 
   3820000   99.12346       266.79773      365.92119      337.75513     -0.11421223     0.0016969568 
   3830000   86.303087      224.38672      310.6898       284.0645       0.079243561    0.0016969568 
   3840000   78.724007      228.51406      307.23806      289.28955     -0.06476982     0.0016969568 
   3850000   58.94478       247.56439      306.50917      313.4065       0.075286904    0.0016969568 
   3860000   78.400227      239.10357      317.5038       302.69545     -0.089485319    0.0016969568 
   3870000   76.584883      233.97118      310.55606      296.19805      0.10005236     0.0016969568 
   3880000   77.063811      236.02366      313.08747      298.7964      -0.057897001    0.0016969568 
   3890000   55.864886      232.79936      288.66424      294.71456      0.065740086    0.0016969568 
   3900000   78.338873      253.686        332.02487      321.15621      0.093597549    0.0016969568 
   3910000   77.086079      211.47201      288.55809      267.715        0.064030349    0.0016969568 
   3920000   72.497264      228.99404      301.4913       289.89719     -0.0014735278   0.0016969568 
   3930000   68.98015       255.94597      324.92612      324.01724     -0.048853316    0.0016969568 
   3940000   58.123953      236.68725      294.8112       299.63648     -0.13270817     0.0016969568 
   3950000   64.971569      225.26555      290.23712      285.17707      0.018948753    0.0016969568 
   3960000   84.759996      243.74921      328.5092       308.57663     -0.066642942    0.0016969568 
   3970000   81.148622      240.11598      321.2646       303.97711     -0.096064127    0.0016969568 
   3980000   76.518817      250.50628      327.0251       317.13081      0.15379186     0.0016969568 
   3990000   73.321643      239.43671      312.75835      303.11718      0.063682957    0.0016969568 
   4000000   65.212273      226.77909      291.99136      287.09315     -0.046720943    0.0016969568 
   4010000   75.606062      238.23936      313.84542      301.60139      0.011421283    0.0016969568 
   4020000   79.019351      235.60458      314.62393      298.26586     -0.087059227    0.0016969568 
   4030000   80.296465      245.83062      326.12708      311.21162     -0.15655172     0.0016969568 
   4040000   68.357504      248.23303      316.59053      314.25297      0.05424175     0.0016969568 
   4050000   67.581121      244.71309      312.29421      309.79686     -0.078941693    0.0016969568 
   4060000   100.4418       255.83478      356.27658      323.87648     -0.056625483    0.0016969568 
   4070000   87.992292      248.59047      336.58276      314.70547     -0.021056012    0.0016969568 
   4080000   73.206597      244.01162      317.21822      308.90884      0.018873098    0.0016969568 
   4090000   76.242136      224.43448      300.67662      284.12497      0.025990371    0.0016969568 
   4100000   64.796247      227.24525      292.0415       287.68329      0.15079127     0.0016969568 
   4110000   82.574163      241.60574      324.17991      305.86309      0.045202575    0.0016969568 
   4120000   90.541877      225.16856      315.71044      285.05429     -0.067040291    0.0016969568 
   4130000   89.695203      231.91491      321.61012      293.5949       0.043360878    0.0016969568 
   4140000   104.4503       217.65856      322.10886      275.54693     -0.027673063    0.0016969568 
   4150000   57.858237      244.85849      302.71673      309.98094      0.077182425    0.0016969568 
   4160000   79.060088      242.19983      321.25992      306.61519      0.15777835     0.0016969568 
   4170000   80.777417      213.81187      294.58929      270.67718     -0.12812851     0.0016969568 
   4180000   68.09461       236.76219      304.8568       299.73135      0.032963063    0.0016969568 
   4190000   75.608063      240.07899      315.68706      303.93029      0.019573769    0.0016969568 
   4200000   85.860201      243.99757      329.85777      308.89105     -0.0068219577   0.0016969568 
   4210000   67.916321      237.13336      305.04968      300.20124     -0.012555504    0.0016969568 
   4220000   92.350495      245.02232      337.37281      310.18834     -0.0069561435   0.0016969568 
   4230000   80.482513      234.96031      315.44282      297.45025      0.01021883     0.0016969568 
   4240000   78.053444      223.24701      301.30046      282.62169     -0.010185711    0.0016969568 
   4250000   66.279835      234.52454      300.80437      296.89857     -0.041358652    0.0016969568 
   4260000   47.797483      254.49083      302.28832      322.1751      -0.23347445     0.0016969568 
   4270000   54.704849      252.08163      306.78648      319.12514     -0.042824294    0.0016969568 
   4280000   79.69139       220.70701      300.3984       279.40615      0.00028603675  0.0016969568 
   4290000   65.652286      235.18483      300.83711      297.73447      0.079845757    0.0016969568 
   4300000   99.019764      238.04346      337.06323      301.35339      0.19250392     0.0016969568 
   4310000   69.532222      236.80726      306.33948      299.78841      0.087679181    0.0016969568 
   4320000   75.765353      241.11308      316.87843      305.2394      -0.071557656    0.0016969568 
   4330000   73.762887      240.02383      313.78671      303.86045     -0.079501853    0.0016969568 
   4340000   80.77408       239.07772      319.8518       302.66272      0.0068133605   0.0016969568 
   4350000   60.778833      247.48662      308.26545      313.30805     -0.043522218    0.0016969568 
   4360000   72.796485      229.09688      301.89337      290.02738     -0.060839796    0.0016969568 
   4370000   66.647288      243.23449      309.88178      307.92502      0.025645873    0.0016969568 
   4380000   80.954279      243.87361      324.82788      308.73412     -0.078902062    0.0016969568 
   4390000   88.548264      224.86368      313.41195      284.66832     -0.1060975      0.0016969568 
   4400000   80.086281      236.79341      316.87969      299.77088      0.18415333     0.0016969568 
   4410000   69.85467       242.11109      311.96576      306.50284      0.11684744     0.0016969568 
   4420000   64.985676      211.51758      276.50326      267.7727       0.1257203      0.0016969568 
   4430000   73.196513      227.73973      300.93625      288.30929      0.11705657     0.0016969568 
   4440000   76.588396      231.56307      308.15147      293.14948      0.020218204    0.0016969568 
   4450000   82.355103      224.78168      307.13678      284.56451      0.11773369     0.0016969568 
   4460000   68.836493      245.09963      313.93612      310.28621      0.050286361    0.0016969568 
   4470000   79.24679       232.03563      311.28242      293.74772      0.0010039185   0.0016969568 
   4480000   70.268291      225.19851      295.46681      285.09221      0.034860589    0.0016969568 
   4490000   83.405557      241.64451      325.05006      305.91217     -0.043843856    0.0016969568 
   4500000   96.300585      236.68059      332.98117      299.62804      0.057357882    0.0016969568 
   4510000   71.229838      242.62654      313.85638      307.15538      0.18376157     0.0016969568 
   4520000   80.824358      250.56786      331.39222      317.20878      0.11131162     0.0016969568 
   4530000   69.795884      247.93842      317.7343       313.88         0.0018931266   0.0016969568 
   4540000   65.323754      244.62336      309.94711      309.68328     -0.011799922    0.0016969568 
   4550000   46.736526      239.00431      285.74083      302.56978      0.050685762    0.0016969568 
   4560000   70.947144      241.24883      312.19597      305.41126      0.23818483     0.0016969568 
   4570000   69.562303      241.8159       311.3782       306.12914     -0.0040895639   0.0016969568 
   4580000   68.975941      212.64645      281.62239      269.2018      -0.051646444    0.0016969568 
   4590000   73.917661      219.74806      293.66573      278.19216      0.056876247    0.0016969568 
   4600000   78.849462      237.79153      316.64099      301.03445     -0.018614476    0.0016969568 
   4610000   74.611992      245.02117      319.63317      310.18689     -0.13334423     0.0016969568 
   4620000   67.147141      216.22391      283.37105      273.73072      0.018648174    0.0016969568 
   4630000   95.319807      238.5106       333.8304       301.94477      0.053696791    0.0016969568 
   4640000   73.929633      256.71672      330.64635      324.99298      0.070711078    0.0016969568 
   4650000   63.970012      219.69693      283.66694      278.12742      0.039980334    0.0016969568 
   4660000   76.027767      229.12935      305.15711      290.06848     -0.059517727    0.0016969568 
   4670000   68.480709      243.79534      312.27605      308.63504      0.11815668     0.0016969568 
   4680000   73.454105      224.77192      298.22603      284.55216     -0.078263353    0.0016969568 
   4690000   73.555193      242.57733      316.13252      307.09308      0.020275316    0.0016969568 
   4700000   72.64484       216.9623       289.60714      274.6655      -0.058543539    0.0016969568 
   4710000   60.670231      238.28223      298.95246      301.65566      0.18106813     0.0016969568 
   4720000   89.13186       235.3647       324.49656      297.96218      0.11051956     0.0016969568 
   4730000   72.524335      228.41974      300.94407      289.17014     -0.092707904    0.0016969568 
   4740000   72.994073      230.95813      303.9522       292.38365      0.0076737233   0.0016969568 
   4750000   71.688239      221.90414      293.59238      280.92166     -0.15250237     0.0016969568 
   4760000   70.992772      240.32545      311.31822      304.2423       0.15338942     0.0016969568 
   4770000   60.592927      248.05779      308.65071      314.03112     -0.0052033273   0.0016969568 
   4780000   47.889757      227.0165       274.90626      287.3937      -0.013355899    0.0016969568 
   4790000   73.913275      245.1109       319.02417      310.30048      0.18307088     0.0016969568 
   4800000   79.51652       214.75461      294.27113      271.87064     -0.025791914    0.0016969568 
   4810000   65.664377      257.86365      323.52803      326.44495      0.088209467    0.0016969568 
   4820000   83.63374       232.39995      316.03369      294.20893      0.019220727    0.0016969568 
   4830000   67.996933      220.26908      288.26602      278.85175     -0.22100328     0.0016969568 
   4840000   60.537808      217.37491      277.91271      275.18783     -0.0094165386   0.0016969568 
   4850000   71.643046      233.54312      305.18616      295.65613     -0.19467185     0.0016969568 
   4860000   66.750242      227.18932      293.93956      287.61249     -0.11307687     0.0016969568 
   4870000   83.769626      225.76799      309.53761      285.81313      0.03036134     0.0016969568 
   4880000   58.509578      247.75599      306.26557      313.64906      0.1158649      0.0016969568 
   4890000   78.853566      241.85003      320.7036       306.17235     -0.23570129     0.0016969568 
   4900000   61.715792      238.67163      300.38742      302.14863     -0.066372154    0.0016969568 
   4910000   54.67859       225.5164       280.19499      285.49464      0.0088436735   0.0016969568 
   4920000   77.133324      206.68846      283.82178      261.65922      0.13803829     0.0016969568 
   4930000   77.243581      231.40249      308.64607      292.94619     -0.024993078    0.0016969568 
   4940000   64.472695      237.42454      301.89724      300.56986      0.055057889    0.0016969568 
   4950000   80.19217       240.55916      320.75133      304.53816      0.049441348    0.0016969568 
   4960000   58.233793      215.29236      273.52615      272.55142     -0.02235249     0.0016969568 
   4970000   59.339213      228.24432      287.58353      288.94807      0.014041348    0.0016969568 
   4980000   66.481609      236.86414      303.34575      299.86042     -0.013889183    0.0016969568 
   4990000   63.555781      218.32117      281.87695      276.38576     -0.025710267    0.0016969568 
   5000000   81.552915      215.37008      296.92299      272.6498      -0.094318063    0.0016969568 
Loop time of 284.834 on 8 procs for 5000000 steps with 266 atoms

Performance: 15166.712 ns/day, 0.002 hours/ns, 17554.064 timesteps/s, 4.669 Matom-step/s
99.6% CPU use with 8 MPI tasks x 1 OpenMP threads

MPI task timing breakdown:
Section |  min time  |  avg time  |  max time  |%varavg| %total
---------------------------------------------------------------
Pair    | 38.1       | 70.309     | 127.62     | 418.6 | 24.68
Bond    | 6.9029     | 10.358     | 19.009     | 113.1 |  3.64
Neigh   | 0.36916    | 0.37849    | 0.38779    |   1.0 |  0.13
Comm    | 127.3      | 196.32     | 232.79     | 272.1 | 68.92
Output  | 0.041878   | 0.052662   | 0.11929    |  11.0 |  0.02
Modify  | 3.8697     | 5.2427     | 8.4932     |  59.3 |  1.84
Other   |            | 2.176      |            |       |  0.76

Nlocal:          33.25 ave          78 max           0 min
Histogram: 1 0 0 3 3 0 0 0 0 1
Nghost:         50.125 ave          88 max          26 min
Histogram: 2 1 0 2 1 0 0 0 1 1
Neighs:        121.875 ave         630 max           0 min
Histogram: 5 2 0 0 0 0 0 0 0 1

Total # of neighbors = 975
Ave neighs/atom = 3.6654135
Ave special neighs/atom = 5.0526316
Neighbor list builds = 8368
Dangerous builds = 0
Generated 0 of 6 mixed pair_coeff terms from geometric mixing rule
Setting up Verlet run ...
  Unit style    : real
  Current step  : 5000000
  Time step     : 10
Per MPI rank memory allocation (min/avg/max) = 8.573 | 8.74 | 8.841 Mbytes
   Step         PotEng         KinEng         TotEng          Temp          Press         Density    
   5000000   81.552915      215.37008      296.92299      272.6498      -0.094318063    0.0016969568 
   5010000   65.774191      240.24475      306.01894      304.14013     -0.054202337    0.0016969568 
   5020000   42.795234      235.70083      278.49606      298.38771      0.010789307    0.0016969568 
   5030000   57.201399      231.97644      289.17784      293.67278     -0.19951428     0.0016969568 
   5040000   45.302312      236.70141      282.00372      299.6544       0.018461782    0.0016969568 
   5050000   51.508675      237.92484      289.43352      301.20322     -0.055586799    0.0016969568 
   5060000   51.319469      239.25142      290.57088      302.88261     -0.15000177     0.0016969568 
   5070000   68.185778      252.23361      320.41939      319.31754      0.21836935     0.0016969568 
   5080000   86.215959      248.38065      334.59661      314.43986     -0.0055493817   0.0016969568 
   5090000   56.759892      228.58857      285.34846      289.38388     -0.10190841     0.0016969568 
   5100000   63.530033      244.74672      308.27675      309.83944      0.07429319     0.0016969568 
   5110000   44.185771      246.03106      290.21683      311.46536      0.040033558    0.0016969568 
   5120000   63.470389      240.86951      304.3399       304.93105      0.13611677     0.0016969568 
   5130000   59.898837      231.63683      291.53567      293.24286     -0.0075443956   0.0016969568 
   5140000   53.169261      231.72858      284.89784      293.35901     -0.060929681    0.0016969568 
   5150000   81.564009      248.28356      329.84757      314.31695     -0.024838111    0.0016969568 
   5160000   51.635751      248.89134      300.52709      315.08637      0.11395505     0.0016969568 
   5170000   50.515703      228.24465      278.76035      288.94849      0.10167975     0.0016969568 
   5180000   50.816489      227.82502      278.64151      288.41725     -0.041372721    0.0016969568 
   5190000   44.784922      227.33634      272.12126      287.79861     -0.078430235    0.0016969568 
   5200000   63.301237      227.34428      290.64551      287.80866     -0.073629577    0.0016969568 
   5210000   71.355477      223.48278      294.83826      282.92016      0.11169179     0.0016969568 
   5220000   54.129117      233.62307      287.75218      295.75735      0.13481757     0.0016969568 
   5230000   51.284329      241.04221      292.32653      305.14968      0.107089       0.0016969568 
   5240000   62.172399      257.79922      319.97162      326.36338     -0.070511546    0.0016969568 
   5250000   48.587036      247.2062       295.79324      312.95305      0.068452949    0.0016969568 
   5260000   60.822173      251.5031       312.32527      318.39274      0.11104968     0.0016969568 
   5270000   56.821168      231.37896      288.20012      292.9164      -0.0024207541   0.0016969568 
   5280000   63.680947      266.44294      330.12389      337.30599      0.019023311    0.0016969568 
   5290000   80.451029      227.40484      307.85587      287.88533      0.18118145     0.0016969568 
   5300000   76.278421      250.70862      326.98704      317.38697     -0.067588564    0.0016969568 
   5310000   77.637112      247.33015      324.96726      313.10996      0.16657942     0.0016969568 
   5320000   49.046315      236.21853      285.26485      299.04311      0.071222843    0.0016969568 
   5330000   61.202069      217.49252      278.69459      275.33673     -0.015166345    0.0016969568 
   5340000   60.836915      257.84977      318.68669      326.42738      0.099470356    0.0016969568 
   5350000   62.858575      234.65781      297.51639      297.06729      0.042144661    0.0016969568 
   5360000   47.372974      251.77205      299.14502      318.73322      0.16872878     0.0016969568 
   5370000   59.408309      229.04972      288.45803      289.96768     -0.050919742    0.0016969568 
   5380000   47.163871      231.01971      278.18358      292.46161      0.068724561    0.0016969568 
   5390000   58.878522      229.2664       288.14492      290.24199     -0.041603999    0.0016969568 
   5400000   64.543722      232.32724      296.87096      294.11688      0.049396348    0.0016969568 
   5410000   59.804042      250.35256      310.1566       316.93621     -0.080289436    0.0016969568 
   5420000   69.210344      237.08316      306.29351      300.13769      0.037263445    0.0016969568 
   5430000   45.397925      227.9225       273.32042      288.54066     -0.022681989    0.0016969568 
   5440000   80.144924      220.83402      300.97894      279.56693     -0.033020961    0.0016969568 
   5450000   75.258669      246.19764      321.45631      311.67625      0.027809828    0.0016969568 
   5460000   71.195671      228.55719      299.75286      289.34415     -0.052906181    0.0016969568 
   5470000   63.213093      226.41914      289.63223      286.63747     -0.036844934    0.0016969568 
   5480000   73.750987      234.92838      308.67936      297.40982      0.040446722    0.0016969568 
   5490000   55.277618      232.51676      287.79438      294.35681     -0.051465428    0.0016969568 
   5500000   59.820758      235.96019      295.78095      298.71605      0.056327483    0.0016969568 
   5510000   74.217087      237.81304      312.03012      301.06168     -0.069257433    0.0016969568 
   5520000   76.290502      232.81358      309.10408      294.73257      0.07496417     0.0016969568 
   5530000   68.809666      231.38559      300.19525      292.92479     -0.11055426     0.0016969568 
   5540000   74.12715       227.48361      301.61076      287.98505      0.02877874     0.0016969568 
   5550000   85.847554      237.30029      323.14784      300.41257     -0.12607598     0.0016969568 
   5560000   74.459737      241.00834      315.46808      305.10681      0.082039168    0.0016969568 
   5570000   74.908003      218.74696      293.65497      276.92481      0.010280212    0.0016969568 
   5580000   92.376882      248.71577      341.09265      314.8641       0.0098895532   0.0016969568 
   5590000   85.996949      246.4739       332.47085      312.02599     -0.13180726     0.0016969568 
   5600000   64.517911      239.41766      303.93557      303.09307      0.012031313    0.0016969568 
   5610000   80.900356      236.19991      317.10027      299.01953     -0.026589896    0.0016969568 
   5620000   61.799647      211.36094      273.16059      267.5744       0.042746433    0.0016969568 
   5630000   59.038591      233.1807       292.2193       295.19734     -0.013649192    0.0016969568 
   5640000   73.523068      240.68977      314.21284      304.70351     -0.037750525    0.0016969568 
   5650000   70.740867      225.29317      296.03404      285.21203      0.098162016    0.0016969568 
   5660000   79.649703      259.399        339.04871      328.38864      0.019395589    0.0016969568 
   5670000   66.674066      232.81298      299.48704      294.73181      0.019557145    0.0016969568 
   5680000   85.400277      253.33827      338.73854      320.71599     -0.013695557    0.0016969568 
   5690000   71.118267      229.50298      300.62124      290.54148      0.11707844     0.0016969568 
   5700000   60.933665      233.27504      294.20871      295.31677      0.10043489     0.0016969568 
   5710000   60.996128      224.3108       285.30693      283.9684       0.07325904     0.0016969568 
   5720000   89.262554      238.82651      328.08907      302.3447      -0.030864048    0.0016969568 
   5730000   51.875981      243.79464      295.67062      308.63415      0.16806542     0.0016969568 
   5740000   71.508584      228.7765       300.28509      289.6218      -0.039061637    0.0016969568 
   5750000   46.059104      243.46131      289.52041      308.21217      0.006283313    0.0016969568 
   5760000   68.107822      235.40692      303.51474      298.01563     -0.016217585    0.0016969568 
   5770000   60.496492      232.22108      292.71757      293.98249      0.012037065    0.0016969568 
   5780000   61.347919      251.86772      313.21564      318.85434      0.0038282092   0.0016969568 
   5790000   68.751891      224.43426      293.18615      284.12469      0.066495577    0.0016969568 
   5800000   81.822859      228.30414      310.127        289.02381     -0.036139957    0.0016969568 
   5810000   89.458289      234.94111      324.3994       297.42594     -0.12418815     0.0016969568 
   5820000   52.052024      229.67813      281.73016      290.76322     -0.050573398    0.0016969568 
   5830000   73.505324      244.66011      318.16543      309.7298      -0.10564957     0.0016969568 
   5840000   60.027659      239.23839      299.26605      302.86612     -0.12540678     0.0016969568 
   5850000   90.881663      229.80007      320.68174      290.9176       0.067090061    0.0016969568 
   5860000   80.491535      238.75663      319.24816      302.25623      0.12071163     0.0016969568 
   5870000   75.794313      244.12236      319.91667      309.04903     -0.055916775    0.0016969568 
   5880000   76.354089      250.75733      327.11142      317.44864     -0.076712068    0.0016969568 
   5890000   66.623944      243.38258      310.00653      308.1125       0.039009949    0.0016969568 
   5900000   62.376161      241.09646      303.47262      305.21836      0.037253682    0.0016969568 
   5910000   95.92102       226.55231      322.47333      286.80606      0.028584329    0.0016969568 
   5920000   83.979681      228.62186      312.60154      289.42602     -0.0026331834   0.0016969568 
   5930000   85.963373      240.64495      326.60833      304.64677     -0.073250279    0.0016969568 
   5940000   59.230978      257.40917      316.64015      325.86959     -0.022114896    0.0016969568 
   5950000   66.000122      227.66141      293.66153      288.21014      0.046370242    0.0016969568 
   5960000   61.975419      231.10172      293.07714      292.56543     -0.083702513    0.0016969568 
   5970000   76.464736      226.87553      303.34027      287.21524      0.05444093     0.0016969568 
   5980000   67.397668      241.94119      309.33886      306.28776      0.099413137    0.0016969568 
   5990000   85.068435      248.11808      333.18651      314.10745     -0.037803582    0.0016969568 
   6000000   86.910782      232.33301      319.24379      294.12419     -0.14493864     0.0016969568 
   6010000   70.599201      250.9756       321.5748       317.72495     -0.0060124651   0.0016969568 
   6020000   87.121528      224.36127      311.4828       284.03229      0.063596688    0.0016969568 
   6030000   87.156925      241.64621      328.80313      305.91432      0.0061172499   0.0016969568 
   6040000   90.622322      253.8213       344.44362      321.3275       0.026353082    0.0016969568 
   6050000   78.79321       232.68966      311.48286      294.57569     -0.049902521    0.0016969568 
   6060000   84.559706      236.2387       320.79841      299.06864     -0.1831175      0.0016969568 
   6070000   78.000922      251.5517       329.55262      318.45427     -0.14360177     0.0016969568 
   6080000   86.177576      243.6293       329.80688      308.42484     -0.001319681    0.0016969568 
   6090000   60.436111      253.11343      313.54955      320.43137     -0.004592442    0.0016969568 
   6100000   85.97462       246.0576       332.03222      311.49897      0.016429236    0.0016969568 
   6110000   86.769646      240.19599      326.96564      304.07841      0.067244087    0.0016969568 
   6120000   81.104991      222.98557      304.09056      282.2907       0.065875642    0.0016969568 
   6130000   73.652504      224.52787      298.18038      284.2432       0.066802422    0.0016969568 
   6140000   67.055007      236.7861       303.84111      299.76162     -0.012812696    0.0016969568 
   6150000   79.782522      240.16271      319.94523      304.03627     -0.046347548    0.0016969568 
   6160000   83.135055      227.5962       310.73126      288.12758      0.022038912    0.0016969568 
   6170000   73.1465        234.79985      307.94635      297.2471      -0.10040642     0.0016969568 
   6180000   88.465793      240.16776      328.63355      304.04267     -0.14254807     0.0016969568 
   6190000   63.544914      260.01181      323.55672      329.16442     -0.096422124    0.0016969568 
   6200000   90.282745      241.78261      332.06535      306.087        0.1341415      0.0016969568 
   6210000   69.926424      247.77725      317.70368      313.67598      0.21246387     0.0016969568 
   6220000   77.301274      235.41192      312.7132       298.02197      0.11849963     0.0016969568 
   6230000   60.549606      232.09819      292.64779      293.82691     -0.0080578784   0.0016969568 
   6240000   92.156305      246.09771      338.25401      311.54974      0.10185855     0.0016969568 
   6250000   79.148884      249.32622      328.4751       315.6369      -0.040629552    0.0016969568 
   6260000   79.39364       253.45479      332.84843      320.86351      0.090863504    0.0016969568 
   6270000   82.314275      234.22027      316.53455      296.51339     -0.010153271    0.0016969568 
   6280000   79.304033      241.05249      320.35653      305.1627      -0.061135039    0.0016969568 
   6290000   66.432482      245.01469      311.44717      310.17869      0.043773065    0.0016969568 
   6300000   66.439477      222.95656      289.39603      282.25398     -0.039005497    0.0016969568 
   6310000   82.513109      236.94031      319.45342      299.95685     -0.12848176     0.0016969568 
   6320000   101.44335      230.26585      331.7092       291.50725     -0.10491807     0.0016969568 
   6330000   81.774813      250.8405       332.61531      317.55392      0.05224368     0.0016969568 
   6340000   89.847313      245.19659      335.0439       310.40895     -0.030907924    0.0016969568 
   6350000   92.249656      256.14265      348.3923       324.26623      0.099243085    0.0016969568 
   6360000   85.484978      238.69649      324.18147      302.1801      -0.12489689     0.0016969568 
   6370000   69.122544      226.35694      295.47949      286.55873     -0.06483259     0.0016969568 
   6380000   77.385958      232.78778      310.17374      294.69991     -0.010294543    0.0016969568 
   6390000   58.172748      228.67463      286.84738      289.49283      0.11676913     0.0016969568 
   6400000   65.910355      245.57505      311.4854       310.88807      0.17428073     0.0016969568 
   6410000   83.656748      240.08733      323.74407      303.94084      0.11831236     0.0016969568 
   6420000   71.485333      246.31007      317.7954       311.81858      0.012473977    0.0016969568 
   6430000   71.076673      257.38942      328.46609      325.84459      0.12835575     0.0016969568 
   6440000   71.474782      236.80513      308.27992      299.78572      0.13104432     0.0016969568 
   6450000   75.837598      253.90072      329.73831      321.42803      0.036586282    0.0016969568 
   6460000   113.85973      239.98233      353.84206      303.80791     -0.066382693    0.0016969568 
   6470000   72.057293      247.04988      319.10717      312.75515     -0.0093405271   0.0016969568 
   6480000   101.21908      233.31359      334.53268      295.36557     -0.0073537073   0.0016969568 
   6490000   69.832638      235.38837      305.221        297.99215      0.19490831     0.0016969568 
   6500000   78.47257       256.22242      334.69499      324.36721      0.050336614    0.0016969568 
   6510000   120.24629      237.73362      357.97991      300.96114     -0.11431831     0.0016969568 
   6520000   107.35616      256.7573       364.11346      325.04435     -0.042222177    0.0016969568 
   6530000   77.903165      247.09054      324.99371      312.80663     -0.076272495    0.0016969568 
   6540000   74.69142       254.66608      329.3575       322.39696      0.012255342    0.0016969568 
   6550000   76.654152      227.50466      304.15881      288.01169     -0.15923318     0.0016969568 
   6560000   84.372496      227.00779      311.38028      287.38267     -0.032214177    0.0016969568 
   6570000   95.993803      242.69789      338.6917       307.24571     -0.037700952    0.0016969568 
   6580000   84.701056      217.89578      302.59683      275.84724      0.031922333    0.0016969568 
   6590000   77.826324      233.31531      311.14163      295.36774     -0.04434269     0.0016969568 
   6600000   82.227824      237.05662      319.28445      300.10409      0.047650507    0.0016969568 
   6610000   73.748375      242.76144      316.50981      307.32616     -0.10999423     0.0016969568 
   6620000   76.532398      241.40489      317.93728      305.60882     -0.013233411    0.0016969568 
   6630000   82.187722      224.31252      306.50024      283.97057      0.053032531    0.0016969568 
   6640000   73.306549      248.51001      321.81656      314.60362      0.00021715963  0.0016969568 
   6650000   58.669462      257.2889       315.95836      325.71733      0.11810364     0.0016969568 
   6660000   65.392649      234.42605      299.81869      296.77389      0.026331695    0.0016969568 
   6670000   66.724339      236.9387       303.66304      299.95481     -0.0044137958   0.0016969568 
   6680000   75.378944      226.67432      302.05326      286.96051     -0.072870235    0.0016969568 
   6690000   80.545288      224.76687      305.31216      284.54576     -0.17961501     0.0016969568 
   6700000   67.007907      225.17243      292.18034      285.05919     -0.025216683    0.0016969568 
   6710000   61.307477      236.72429      298.03177      299.68338     -0.092590278    0.0016969568 
   6720000   84.889566      232.50246      317.39202      294.3387       0.018148651    0.0016969568 
   6730000   72.457081      225.87083      298.32791      285.94333      0.067382184    0.0016969568 
   6740000   73.538123      247.16715      320.70527      312.90361     -0.029401659    0.0016969568 
   6750000   80.944139      236.17216      317.1163       298.9844       0.038213237    0.0016969568 
   6760000   99.121316      218.95626      318.07758      277.18977      0.090816514    0.0016969568 
   6770000   77.022754      226.98093      304.00369      287.34868     -0.031572451    0.0016969568 
   6780000   68.907158      250.36514      319.27229      316.95213      0.10987906     0.0016969568 
   6790000   82.450055      249.06669      331.51675      315.30835      0.038174679    0.0016969568 
   6800000   90.871168      229.96593      320.8371       291.12756      0.039197779    0.0016969568 
   6810000   73.942764      272.77034      346.7131       345.31621     -0.04891945     0.0016969568 
   6820000   75.395896      240.64741      316.04331      304.64988      0.18923794     0.0016969568 
   6830000   70.817198      230.56351      301.38071      291.88408     -0.22540605     0.0016969568 
   6840000   85.762675      236.24987      322.01254      299.08277     -0.17430883     0.0016969568 
   6850000   75.569203      232.73188      308.30109      294.62915      0.033460988    0.0016969568 
   6860000   100.08045      254.90942      354.98988      322.70502      0.1184819      0.0016969568 
   6870000   91.414186      223.29149      314.70567      282.67799      0.034615521    0.0016969568 
   6880000   99.538698      239.07805      338.61675      302.66314     -0.013347816    0.0016969568 
   6890000   88.339003      230.86357      319.20257      292.26394     -0.025412407    0.0016969568 
   6900000   70.796224      227.56505      298.36128      288.08815     -0.095153748    0.0016969568 
   6910000   77.561871      266.76951      344.33138      337.7194      -0.021065303    0.0016969568 
   6920000   69.222815      226.60364      295.82645      286.87104      0.10131963     0.0016969568 
   6930000   59.405532      247.63017      307.0357       313.48977      0.096033641    0.0016969568 
   6940000   91.809848      244.12511      335.93496      309.05252      0.11828615     0.0016969568 
   6950000   79.404773      237.40366      316.80843      300.54342      0.03857326     0.0016969568 
   6960000   82.692102      240.21866      322.91077      304.10711     -0.0063336992   0.0016969568 
   6970000   67.691142      222.40958      290.10073      281.56153      0.063560691    0.0016969568 
   6980000   66.029392      254.15795      320.18734      321.75368      0.026392778    0.0016969568 
   6990000   78.272305      237.31345      315.58576      300.42923     -0.10153382     0.0016969568 
   7000000   85.103873      238.58435      323.68822      302.03813     -0.086662545    0.0016969568 
   7010000   91.316626      237.99613      329.31275      301.29347      0.1767077      0.0016969568 
   7020000   80.698912      234.23408      314.93299      296.53087      0.13622325     0.0016969568 
   7030000   68.5108        234.21733      302.72813      296.50966      0.0010924387   0.0016969568 
   7040000   75.781696      229.93563      305.71733      291.08921     -0.11220686     0.0016969568 
   7050000   93.877619      226.8945       320.77212      287.23925      0.067705647    0.0016969568 
   7060000   69.012565      233.26121      302.27378      295.29926     -0.057983523    0.0016969568 
   7070000   74.159018      240.57187      314.73089      304.55425      0.047831403    0.0016969568 
   7080000   71.197251      259.78963      330.98688      328.88316      0.094607564    0.0016969568 
   7090000   79.999655      226.08975      306.08941      286.22048     -0.089960955    0.0016969568 
   7100000   86.433186      243.17319      329.60638      307.84742     -0.27280376     0.0016969568 
   7110000   62.809348      242.17092      304.98027      306.57859     -0.002805772    0.0016969568 
   7120000   77.599049      196.85589      274.45494      249.21159      0.030093999    0.0016969568 
   7130000   89.270893      226.25311      315.524        286.42728      0.045322395    0.0016969568 
   7140000   77.118309      234.58944      311.70775      296.98073      0.066897431    0.0016969568 
   7150000   87.147457      218.67792      305.82538      276.8374       0.14445208     0.0016969568 
   7160000   68.922929      225.2603       294.18323      285.17043     -0.027766912    0.0016969568 
   7170000   63.335578      236.10921      299.44478      298.9047      -0.11338887     0.0016969568 
   7180000   97.688393      223.13108      320.81947      282.47492     -0.080547284    0.0016969568 
   7190000   57.495151      245.6628       303.15795      310.99916     -0.015124473    0.0016969568 
   7200000   80.99402       237.0418       318.03582      300.08532     -0.0042758714   0.0016969568 
   7210000   69.675         248.01393      317.68893      313.9756       0.020412721    0.0016969568 
   7220000   71.585743      218.3743       289.96005      276.45303     -0.020309721    0.0016969568 
   7230000   74.55066       230.73592      305.28658      292.10234     -0.042504951    0.0016969568 
   7240000   83.28753       213.8386       297.12613      270.71102     -0.11311136     0.0016969568 
   7250000   66.572148      231.08409      297.65624      292.54311     -0.056323622    0.0016969568 
   7260000   68.701704      224.40089      293.1026       284.08245      0.028374668    0.0016969568 
   7270000   72.793287      203.92515      276.71843      258.16098      0.081206998    0.0016969568 
[...]
 103190000   68.747391      233.26033      302.00772      295.29814      0.014102866    0.0016969568 
 103200000   73.638881      242.64132      316.2802       307.1741       0.031995847    0.0016969568 
 103210000   82.208042      244.46817      326.67621      309.48681     -0.10493718     0.0016969568 
 103220000   58.754296      210.26285      269.01715      266.18426      0.02577099     0.0016969568 
 103230000   84.005025      246.59116      330.59618      312.17443      0.12803086     0.0016969568 
 103240000   80.675348      219.31217      299.98751      277.64033      0.030773748    0.0016969568 
 103250000   75.187325      251.8058       326.99313      318.77596      0.032005585    0.0016969568 
 103260000   62.075905      245.19836      307.27427      310.41121      0.03851608     0.0016969568 
 103270000   59.2389        242.97693      302.21583      307.59896      0.016870753    0.0016969568 
 103280000   64.756139      228.43916      293.1953       289.19473     -0.17585287     0.0016969568 
 103290000   78.300723      229.39318      307.6939       290.40248      0.079739379    0.0016969568 
 103300000   66.702845      235.64567      302.34852      298.31788      0.069740382    0.0016969568 
 103310000   74.388436      235.34219      309.73062      297.93369      0.12838597     0.0016969568 
 103320000   84.517409      255.83585      340.35326      323.87783      0.10030578     0.0016969568 
 103330000   66.146666      207.24629      273.39296      262.36542     -0.23387982     0.0016969568 
 103340000   71.234775      249.20776      320.44253      315.48694     -0.11200351     0.0016969568 
 103350000   78.187497      228.2869       306.4744       289.00198     -0.050873663    0.0016969568 
 103360000   74.794989      220.55031      295.3453       279.20777     -0.05612743     0.0016969568 
 103370000   82.939931      234.14042      317.08035      296.4123       0.1461342      0.0016969568 
 103380000   82.730788      235.87256      318.60335      298.60512      0.022601214    0.0016969568 
 103390000   67.32154       248.41458      315.73612      314.48281      0.022476453    0.0016969568 
 103400000   85.417745      233.32308      318.74083      295.37758      0.047783989    0.0016969568 
 103410000   78.267427      215.85744      294.12487      273.26678      0.017798934    0.0016969568 
 103420000   82.662069      235.90434      318.56641      298.64535     -0.18183008     0.0016969568 
 103430000   82.883087      214.18875      297.07184      271.1543       0.039098295    0.0016969568 
 103440000   82.230827      238.40938      320.64021      301.81663     -0.19159971     0.0016969568 
 103450000   82.200643      242.87529      325.07593      307.47029     -0.11466702     0.0016969568 
 103460000   84.924204      249.77185      334.69606      316.20106     -0.0070405914   0.0016969568 
 103470000   79.796921      215.37579      295.17271      272.65703      0.075623834    0.0016969568 
 103480000   69.184908      243.53751      312.72242      308.30864     -0.00049610303  0.0016969568 
 103490000   89.217497      237.03689      326.25439      300.07912     -0.10762277     0.0016969568 
 103500000   83.177268      271.52942      354.70669      343.74526      0.1295364      0.0016969568 
 103510000   73.526907      230.17852      303.70543      291.39669      0.061034061    0.0016969568 
 103520000   83.618397      225.3978       309.0162       285.34449      0.098747516    0.0016969568 
 103530000   83.829579      235.47015      319.29973      298.09568     -0.039400631    0.0016969568 
 103540000   95.686844      234.18156      329.8684       296.46438      0.079300361    0.0016969568 
 103550000   67.602041      233.91279      301.51483      296.12412     -0.10212394     0.0016969568 
 103560000   85.156282      227.7555       312.91178      288.32925     -0.003283703    0.0016969568 
 103570000   90.405545      246.15999      336.56554      311.62859      0.036568557    0.0016969568 
 103580000   85.754637      236.96175      322.71638      299.98398     -0.08412924     0.0016969568 
 103590000   91.207887      226.66815      317.87603      286.9527       0.034063086    0.0016969568 
 103600000   99.527691      241.07034      340.59803      305.1853       0.097680721    0.0016969568 
 103610000   81.602994      241.75237      323.35536      306.04871     -0.047183107    0.0016969568 
 103620000   83.322527      242.74258      326.06511      307.30229     -0.062958929    0.0016969568 
 103630000   87.742654      219.00707      306.74973      277.25409     -0.1310824      0.0016969568 
 103640000   85.777464      233.99008      319.76754      296.22197      0.025086672    0.0016969568 
 103650000   92.894181      247.8949       340.78908      313.82492     -0.049418085    0.0016969568 
 103660000   89.215735      236.49195      325.70768      299.38924      0.059090447    0.0016969568 
 103670000   84.442184      224.72158      309.16377      284.48843      0.075689831    0.0016969568 
 103680000   81.072096      252.01545      333.08755      319.04136     -0.033731356    0.0016969568 
 103690000   69.005656      239.10802      308.11368      302.70108      0.041606963    0.0016969568 
 103700000   81.089926      221.13164      302.22156      279.9437      -0.0037806142   0.0016969568 
 103710000   94.521117      235.52998      330.0511       298.17142     -0.0091511086   0.0016969568 
 103720000   56.218259      235.14534      291.3636       297.68448      0.063553637    0.0016969568 
 103730000   78.283811      239.42629      317.7101       303.104        0.12911582     0.0016969568 
 103740000   75.042723      225.67179      300.71451      285.69135      0.056340828    0.0016969568 
 103750000   60.776522      247.00421      307.78073      312.69733     -0.011984442    0.0016969568 
 103760000   74.570706      238.81576      313.38647      302.33109      0.11678765     0.0016969568 
 103770000   95.182109      242.59315      337.77526      307.11311      0.013505302    0.0016969568 
 103780000   74.519102      240.54841      315.06752      304.52456      0.15748799     0.0016969568 
 103790000   54.189031      246.15639      300.34542      311.62403     -0.026052579    0.0016969568 
 103800000   77.004127      259.44688      336.45101      328.44925      0.15767909     0.0016969568 
 103810000   59.160776      247.68077      306.84155      313.55384     -0.031875365    0.0016969568 
 103820000   86.391475      256.61924      343.01072      324.86958      0.0064367705   0.0016969568 
 103830000   77.777675      233.96698      311.74466      296.19273     -0.11929862     0.0016969568 
 103840000   103.81992      248.88098      352.7009       315.07325      0.14881303     0.0016969568 
 103850000   83.086165      235.46211      318.54827      298.0855      -0.019682683    0.0016969568 
 103860000   87.865885      232.48293      320.34881      294.31398      0.14784324     0.0016969568 
 103870000   77.638015      246.15025      323.78827      311.61626     -0.00622599     0.0016969568 
 103880000   77.213307      226.12635      303.33966      286.26681      0.028839261    0.0016969568 
 103890000   83.140849      236.94242      320.08327      299.95952      0.021316876    0.0016969568 
 103900000   102.25581      242.52809      344.7839       307.03074     -0.19585029     0.0016969568 
 103910000   68.486014      244.77652      313.26253      309.87717      0.057132237    0.0016969568 
 103920000   82.190874      229.14734      311.33822      290.09127      0.077565352    0.0016969568 
 103930000   74.978119      233.48921      308.46733      295.58789     -0.071373435    0.0016969568 
 103940000   78.504248      246.84158      325.34583      312.49145      0.0069800372   0.0016969568 
 103950000   79.267988      236.87265      316.14064      299.87119      0.066951392    0.0016969568 
 103960000   83.242573      241.56874      324.81132      305.81625     -0.080747298    0.0016969568 
 103970000   89.175831      230.12244      319.29827      291.3257       0.066066428    0.0016969568 
 103980000   83.929554      227.96506      311.89461      288.59454     -0.0051702793   0.0016969568 
 103990000   67.04814       230.67451      297.72265      292.0246      -0.034097942    0.0016969568 
 104000000   86.430302      229.95249      316.38279      291.11054     -0.04438251     0.0016969568 
 104010000   82.943243      230.94061      313.88385      292.36146      0.0077059345   0.0016969568 
 104020000   92.039492      224.89139      316.93088      284.7034      -0.14914837     0.0016969568 
 104030000   81.782405      234.34514      316.12755      296.67147     -0.019010681    0.0016969568 
 104040000   82.785291      240.57336      323.35865      304.55614      0.012371445    0.0016969568 
 104050000   104.89985      247.53769      352.43754      313.3727       0.090375333    0.0016969568 
 104060000   89.332108      231.86339      321.1955       293.52967     -0.058715714    0.0016969568 
 104070000   88.305089      230.26582      318.57091      291.50721     -0.1440831      0.0016969568 
 104080000   85.99247       230.07837      316.07084      291.2699       0.014887689    0.0016969568 
 104090000   87.837598      261.42087      349.25847      330.94824      0.013411124    0.0016969568 
 104100000   80.714346      225.1694       305.88375      285.05535     -0.022974907    0.0016969568 
 104110000   76.783093      256.56014      333.34323      324.79476      0.033262226    0.0016969568 
 104120000   91.957169      248.08911      340.04628      314.07078     -0.10140285     0.0016969568 
 104130000   84.886599      232.38696      317.27356      294.19249      0.068468671    0.0016969568 
 104140000   92.768655      227.79892      320.56757      288.38421      0.079757498    0.0016969568 
 104150000   89.830551      243.16754      332.99809      307.84027     -0.030079226    0.0016969568 
 104160000   77.719584      256.80943      334.52902      325.11035      0.034144535    0.0016969568 
 104170000   88.444498      248.26351      336.70801      314.29156     -0.042408437    0.0016969568 
 104180000   74.968127      240.04288      315.01101      303.88457      0.071222437    0.0016969568 
 104190000   79.236014      240.63517      319.87119      304.63439     -0.01238752     0.0016969568 
 104200000   64.946493      227.69177      292.63826      288.24856     -0.17032714     0.0016969568 
 104210000   93.93298       237.87159      331.80457      301.1358       0.0090333569   0.0016969568 
 104220000   89.448314      246.29245      335.74076      311.79627      0.069138989    0.0016969568 
 104230000   84.528338      247.80955      332.33789      313.71687      0.053187378    0.0016969568 
 104240000   89.37546       229.91793      319.29339      291.06679      0.087990764    0.0016969568 
 104250000   105.02127      232.70972      337.73099      294.60109     -0.10207315     0.0016969568 
 104260000   87.001614      238.23509      325.2367       301.59598      0.064880402    0.0016969568 
 104270000   70.899396      253.84226      324.74165      321.35402      0.048849267    0.0016969568 
 104280000   82.712521      235.75707      318.46959      298.45891     -0.092144752    0.0016969568 
 104290000   69.353335      227.5277       296.88103      288.04086     -0.0046547935   0.0016969568 
 104300000   85.736962      236.57043      322.30739      299.48859      0.22250851     0.0016969568 
 104310000   76.691384      247.79921      324.49059      313.70377      0.00924774     0.0016969568 
 104320000   54.909958      243.75068      298.66063      308.57849      0.0040262865   0.0016969568 
 104330000   86.576113      234.97558      321.55169      297.46958      0.10445341     0.0016969568 
 104340000   77.053325      253.53953      330.59285      320.97078      0.035266059    0.0016969568 
 104350000   87.57006       234.14113      321.71119      296.4132       0.0073926251   0.0016969568 
 104360000   83.978733      250.22833      334.20707      316.77894      0.046255347    0.0016969568 
 104370000   62.702075      243.47589      306.17797      308.23063     -0.054031995    0.0016969568 
 104380000   72.701206      222.97097      295.67218      282.27223      0.027403047    0.0016969568 
 104390000   72.285167      223.03296      295.31813      282.3507       0.013787726    0.0016969568 
 104400000   98.175664      251.89753      350.07319      318.89208     -0.10421248     0.0016969568 
 104410000   77.368127      220.95865      298.32678      279.72471      0.063796684    0.0016969568 
 104420000   64.36079       223.2603       287.62109      282.6385       0.056002088    0.0016969568 
 104430000   71.377668      244.95891      316.33658      310.10807     -0.067070955    0.0016969568 
 104440000   75.548931      208.79836      284.34729      264.33028     -0.0082761073   0.0016969568 
 104450000   88.510653      237.61115      326.1218       300.8061      -0.11411025     0.0016969568 
 104460000   74.178921      265.3565       339.53542      335.9306       0.14370523     0.0016969568 
 104470000   77.289438      235.67212      312.96156      298.35137      0.17787392     0.0016969568 
 104480000   86.127943      259.81893      345.94687      328.92025     -0.076850627    0.0016969568 
 104490000   78.70824       243.00433      321.71257      307.63365      0.15483542     0.0016969568 
 104500000   71.506806      232.00756      303.51436      293.71218      0.13377115     0.0016969568 
 104510000   82.493694      231.70254      314.19624      293.32605     -0.089870339    0.0016969568 
 104520000   78.378072      234.5442       312.92228      296.92347      0.055749766    0.0016969568 
 104530000   70.4678        215.18687      285.65467      272.41787     -0.020040235    0.0016969568 
 104540000   73.461051      232.01274      305.47379      293.71874      0.11979971     0.0016969568 
 104550000   78.976703      231.11996      310.09666      292.58852     -0.003460821    0.0016969568 
 104560000   88.001588      250.22758      338.22916      316.77798      0.04062841     0.0016969568 
 104570000   85.328561      231.30536      316.63392      292.82323      0.0083042044   0.0016969568 
 104580000   62.784193      240.04104      302.82523      303.88224     -0.013117168    0.0016969568 
 104590000   85.212478      237.88588      323.09835      301.15389      0.14489415     0.0016969568 
 104600000   81.395387      226.17162      307.567        286.32411      0.0050938463   0.0016969568 
 104610000   79.095636      236.71645      315.81208      299.67344      0.011085316    0.0016969568 
 104620000   65.942446      237.50904      303.45148      300.67683      0.023396744    0.0016969568 
 104630000   79.434092      254.81087      334.24496      322.58025      0.054299651    0.0016969568 
 104640000   68.631892      246.27886      314.91075      311.77907      0.21376887     0.0016969568 
 104650000   81.044379      231.52042      312.5648       293.09548     -0.038309018    0.0016969568 
 104660000   60.795726      231.52831      292.32403      293.10547     -0.015014615    0.0016969568 
 104670000   79.083682      238.2638       317.34748      301.63233     -0.21654835     0.0016969568 
 104680000   75.343892      243.39121      318.73511      308.12343      0.013725803    0.0016969568 
 104690000   79.691195      245.15632      324.84751      310.35797      0.034041348    0.0016969568 
 104700000   74.08298       232.00682      306.0898       293.71124      0.061696403    0.0016969568 
 104710000   85.377268      232.40914      317.78641      294.22057     -0.022237092    0.0016969568 
 104720000   76.940021      244.36431      321.30433      309.35533     -0.021077428    0.0016969568 
 104730000   78.921795      223.64809      302.56988      283.12943     -0.0065829573   0.0016969568 
 104740000   91.96053       238.65952      330.62005      302.1333      -0.079184867    0.0016969568 
 104750000   72.185166      239.45326      311.63843      303.13814      0.035191814    0.0016969568 
 104760000   71.434339      233.20906      304.6434       295.23323      0.051969243    0.0016969568 
 104770000   92.804315      242.76964      335.57395      307.33654      0.065627677    0.0016969568 
 104780000   79.606708      239.24694      318.85365      302.87695     -0.14205661     0.0016969568 
 104790000   88.899012      226.96948      315.86849      287.33417     -0.090137404    0.0016969568 
 104800000   100.20494      254.60284      354.80779      322.3169      -0.049288201    0.0016969568 
 104810000   78.194065      243.34304      321.5371       308.06244      0.051076126    0.0016969568 
 104820000   81.161479      254.57288      335.73436      322.27897      0.13275452     0.0016969568 
 104830000   78.020616      237.45088      315.4715       300.60321     -0.027500515    0.0016969568 
 104840000   77.77269       245.86354      323.63623      311.25329      0.0033301166   0.0016969568 
 104850000   78.73964       253.85762      332.59726      321.37348      0.0832997      0.0016969568 
 104860000   81.510204      232.68294      314.19314      294.56718     -0.041723874    0.0016969568 
 104870000   98.230304      242.19809      340.4284       306.61298      0.027548329    0.0016969568 
 104880000   81.968235      234.64311      316.61135      297.04869      0.023906349    0.0016969568 
 104890000   70.582719      241.64584      312.22856      305.91385      0.0062690104   0.0016969568 
 104900000   81.262186      234.97248      316.23467      297.46565      0.14343922     0.0016969568 
 104910000   85.879559      242.00314      327.8827       306.36618      0.050223263    0.0016969568 
 104920000   81.341947      218.9767       300.31865      277.21564      0.064144599    0.0016969568 
 104930000   72.100283      254.00363      326.10392      321.55832     -0.098006547    0.0016969568 
 104940000   90.104508      217.87583      307.98034      275.82199      0.065718489    0.0016969568 
 104950000   73.344989      211.77048      285.11547      268.09285     -0.089730917    0.0016969568 
 104960000   62.971209      235.36312      298.33433      297.96019     -0.15157596     0.0016969568 
 104970000   72.554376      241.4645       314.01888      305.68429      0.065512223    0.0016969568 
 104980000   79.247353      225.2478       304.49515      285.15459      0.085871788    0.0016969568 
 104990000   80.692053      233.69533      314.38738      295.84883      0.022317611    0.0016969568 
 105000000   86.885636      230.43772      317.32335      291.72483      0.14164731     0.0016969568 
Loop time of 7097.87 on 8 procs for 100000000 steps with 266 atoms

Performance: 12172.666 ns/day, 0.002 hours/ns, 14088.734 timesteps/s, 3.748 Matom-step/s
99.6% CPU use with 8 MPI tasks x 1 OpenMP threads

MPI task timing breakdown:
Section |  min time  |  avg time  |  max time  |%varavg| %total
---------------------------------------------------------------
Pair    | 659.34     | 1338.4     | 2456.1     |1712.5 | 18.86
Bond    | 151.62     | 212.45     | 291.27     | 316.7 |  2.99
Neigh   | 9.482      | 9.8051     | 10.027     |   6.7 |  0.14
Comm    | 4192.2     | 5387.3     | 6158.5     | 934.9 | 75.90
Output  | 0.90467    | 1.1174     | 2.4683     |  48.3 |  0.02
Modify  | 77.625     | 102.85     | 134.16     | 171.7 |  1.45
Other   |            | 45.97      |            |       |  0.65

Nlocal:          33.25 ave          84 max          13 min
Histogram: 2 3 1 0 1 0 0 0 0 1
Nghost:         38.125 ave          68 max          17 min
Histogram: 1 0 3 1 1 0 0 1 0 1
Neighs:         106.25 ave         546 max          15 min
Histogram: 6 1 0 0 0 0 0 0 0 1

Total # of neighbors = 850
Ave neighs/atom = 3.1954887
Ave special neighs/atom = 5.0526316
Neighbor list builds = 167061
Dangerous builds = 0
System init for write_data ...
Generated 0 of 6 mixed pair_coeff terms from geometric mixing rule
Total wall time: 2:03:02
