LAMMPS data file via write_data, version 29 Aug 2024, timestep = 100000000, units = real

1032 atoms
4 atom types
931 bonds
1 bond types
830 angles
1 angle types

-80 80 xlo xhi
-80 80 ylo yhi
-80 80 zlo zhi

Masses

1 329.2
2 305.2
3 345.2
4 306.2

Bond Coeffs # harmonic

1 7.5 5.9

Angle Coeffs # harmonic

1 5 150

Atoms # full

605 59 3 0 -35.03869226608497 -78.58492483009202 -61.64557673716997 -1 0 1
604 59 3 0 -33.254893307814214 -73.00336681046512 -62.04014018230857 -1 0 1
603 59 3 0 -32.157865257789354 -67.34120077248942 -60.57667236880286 -1 0 1
962 94 4 0 -21.458609661255583 -68.68291174132582 -60.89894271308879 2 3 -1
825 81 3 0 54.90692341226107 -71.2742195141961 -74.41689326011797 1 -1 1
824 81 3 0 59.98030323923653 -68.85646628612112 -72.73158906726216 1 -1 1
826 81 2 0 50.21234624040442 -73.95892946512507 -76.13401119496649 1 -1 1
739 72 4 0 47.130622000796976 -61.23871286004678 -79.64731572281433 -1 2 2
827 81 4 0 48.09849427814662 -78.33294531841057 -79.03158102303706 1 -1 1
823 81 3 0 64.7290926543264 -72.74985652402655 -73.18449789609409 1 -1 1
740 72 4 0 45.16646365820354 -59.16124976751196 -74.48685816500759 -1 2 2
742 72 4 0 52.682015744130034 -56.40918258542393 -66.93723816699261 -1 2 2
741 72 4 0 47.37448132661237 -58.01377520905338 -69.32481921922886 -1 2 2
657 64 4 0 -79.64905980707256 -25.934488016887165 -71.21038803533143 1 -1 0
658 64 3 0 -77.97268746504444 -22.259495387477116 -75.69938945809578 1 -1 0
336 32 2 0 -64.21859387911643 -20.33815879810664 -76.65134689335588 2 -2 0
339 32 4 0 -72.4536516981417 -20.12011322412572 -61.6390360295619 2 -2 0
1032 101 4 0 -46.989902229090035 -25.20669040269171 -60.880546056151644 1 1 2
683 67 3 0 -34.48881913254279 -24.072914667545074 -73.43599153533133 1 0 0
632 61 4 0 4.6042415116291995 -30.4524484210003 -64.89059588602473 0 0 0
631 61 4 0 6.455439340472989 -31.54497834357196 -70.06759062476908 0 0 0
630 61 4 0 5.402826375098504 -29.226406912559447 -75.29077100120531 0 0 0
467 45 4 0 18.00259525263965 -27.061727055007033 -77.87016494107435 1 1 3
466 45 2 0 15.61181691212352 -25.636835009795405 -72.60870252873362 1 1 3
465 45 3 0 13.050911447657437 -22.05076628008635 -69.24333858359452 1 1 3
656 64 2 0 79.4852044415755 -27.15589471293658 -65.4188735706148 0 -1 0
655 64 3 0 79.82487794107439 -31.511435812677284 -61.59227862471755 0 -1 0
338 32 3 0 -69.69169843132075 -18.371502020158246 -66.83812842382353 2 -2 0
337 32 4 0 -65.7259984355831 -18.85209564791892 -71.11872384586775 2 -2 0
157 14 4 0 -55.917817804938636 -11.040223256479312 -75.34123987012143 1 1 2
156 14 2 0 -53.14581664201591 -8.129480279594153 -71.28096953881524 1 1 2
155 14 3 0 -47.84397362523083 -6.568445043918444 -68.61778057027945 1 1 2
689 67 4 0 -53.041514068185265 -1.1706949451258815 -79.93575806784597 1 0 0
684 67 3 0 -37.49302100182435 -19.331553875340685 -74.35678613871113 1 0 0
685 67 3 0 -38.24900204469101 -13.644217433921522 -75.72818372560845 1 0 0
502 48 4 0 -33.86757323536712 -9.567246712300303 -67.87244370002766 -2 0 -1
501 48 4 0 -31.116987637901 -7.208601861406471 -72.78476384323324 -2 0 -1
500 48 4 0 -28.369046112613617 -8.91010570758656 -77.73435730836644 -2 0 -1
154 14 3 0 -43.77395956432793 -2.243569616347336 -69.27184023670651 1 1 2
1013 100 3 0 -9.838783778097666 -10.09651786176787 -61.70384239931767 -1 0 -1
453 44 3 0 -10.411147196120245 -2.440759160941761 -75.48935158513663 -1 -1 4
464 45 3 0 8.833978172919899 -18.497636024309617 -67.35301682904489 1 1 3
463 45 3 0 4.503811416696382 -16.59791936713434 -64.17708247429856 1 1 3
624 61 3 0 17.812866719967346 -10.03139822514675 -79.08628893218528 0 0 0
623 61 3 0 20.79568514682289 -8.486050764462615 -74.3057867133304 0 0 0
821 80 4 0 35.502962269913226 -3.595765692918515 -63.67967562603718 1 2 1
822 80 4 0 36.23672059344927 -8.863267638189395 -60.99661979737624 1 2 1
862 84 4 0 77.99027322837159 -0.3201611923339194 -78.58260910110832 1 1 3
861 84 4 0 79.12301607881973 -5.9202124999552375 -79.88032793248203 1 1 3
441 42 4 0 -29.034842275915437 -79.42397927336295 -50.68478209820665 1 0 2
961 94 4 0 -19.902693090367332 -65.75855176051502 -55.832571270406405 2 3 -1
959 94 4 0 -22.974061999870088 -63.57046977884663 -44.981065436075056 2 3 -1
960 94 4 0 -21.425903705385235 -65.46242659892543 -50.332144947180645 2 3 -1
995 98 3 0 -12.003581686016796 -61.13072245708073 -51.95613837493664 0 0 1
442 42 4 0 -25.792802844609163 -74.33175453637831 -52.50906799701243 1 0 2
994 98 3 0 -6.884016084885115 -62.807364679722596 -49.77053222891584 0 0 1
993 98 3 0 -4.429286889929583 -66.40070714437721 -46.017558123215274 0 0 1
119 10 4 0 42.05648327001247 -76.45271705608337 -57.26892678981377 1 -1 0
120 10 4 0 37.11522887828859 -73.468544429158 -56.20586644449624 1 -1 0
121 10 4 0 32.21635950525451 -73.20127357650246 -52.326735733300794 1 -1 0
122 10 4 0 29.912181208986297 -77.37107730810034 -48.42791685245131 1 -1 0
725 71 3 0 39.22440353181102 -77.22733865693897 -44.98014080450365 1 0 1
320 30 4 0 59.05369285004647 -78.15125437376845 -41.354566071657636 0 3 -1
883 87 3 0 60.1970991276058 -67.62672159518131 -54.55184208586696 2 0 2
884 87 3 0 58.81904836389339 -72.09633681399336 -51.52220948217638 2 0 2
885 87 3 0 54.47605436044156 -75.94086543546709 -51.24471036933545 2 0 2
321 30 4 0 61.985577373606496 -73.18441497535937 -42.16441046359693 0 3 -1
322 30 4 0 65.57367907421848 -69.00314141031026 -44.98326559995948 0 3 -1
999 98 4 0 -29.90029718599852 -49.961284017755055 -47.38782434588248 0 0 1
1000 98 4 0 -34.82874797775408 -47.92360548054278 -44.753874873734325 0 0 1
1001 98 4 0 -38.42596809032446 -50.66257677713766 -41.0769483554898 0 0 1
998 98 3 0 -26.631427666350735 -53.93719278118244 -50.00195374123797 0 0 1
996 98 2 0 -16.46936857826209 -57.46484588567901 -50.81179081097441 0 0 1
997 98 4 0 -21.298438895723393 -54.54094609875887 -52.42932443904123 0 0 1
975 96 3 0 -14.252864362339912 -44.07965990621705 -49.050718826695864 2 3 0
977 96 4 0 -12.15578333527893 -52.64396911030178 -42.14131648856047 2 3 0
976 96 2 0 -13.584346494868338 -48.691143010035404 -46.00068084631782 2 3 0
974 96 3 0 -18.581007005476508 -40.28543116947251 -50.18534224943053 2 3 0
654 64 3 0 -77.62173608072457 -34.927670407783936 -57.550892122973174 1 -1 0
653 64 3 0 -72.49433615559772 -36.07023120242045 -54.0392890355326 1 -1 0
341 32 4 0 -77.1240006484799 -22.506212674415796 -52.36047457911319 2 -2 0
342 32 4 0 -76.86962230415159 -27.2294362258347 -48.42357128093507 2 -2 0
340 32 4 0 -76.88919084152761 -20.38498568691009 -57.81004247882683 2 -2 0
1031 101 4 0 -52.71622028359169 -23.509153561273216 -59.90511763305135 1 1 2
54 4 3 0 -47.33466414342298 -23.824443697694395 -50.8635979997428 1 0 0
53 4 3 0 -42.596351622248875 -27.185328373769458 -51.00385791659251 1 0 0
973 96 3 0 -21.589286998805225 -36.36328119592878 -53.23171261485686 2 3 0
50 3 4 0 -6.622610052093216 -38.31137355137586 -43.733203741158604 0 2 2
51 3 4 0 -2.4001337652823564 -36.41473415868935 -47.20385943324004 0 2 2
52 3 4 0 0.885493135479733 -37.020591597354745 -52.05325067034802 0 2 2
1027 101 4 0 -68.44744052731552 -14.62140126165817 -46.73634334367493 1 1 2
1028 101 3 0 -65.31373969570942 -15.29966292907099 -51.72971159928813 1 1 2
1026 101 2 0 -69.64414774301986 -10.556059915435107 -43.15839136093428 1 1 2
1029 101 4 0 -62.399098395369485 -17.908447846696642 -56.101661255922025 1 1 2
59 4 4 0 -64.71141181460699 -4.671325190247176 -51.83623187977628 1 0 0
60 4 4 0 -69.23799146051508 -1.238559478756162 -51.90669039220587 1 0 0
62 4 4 0 -79.90440790619539 -1.5951405192135388 -52.07921810097197 1 0 0
55 4 3 0 -50.94596956488706 -19.75648974945713 -48.17395959820269 1 0 0
1030 101 4 0 -57.371754997965645 -19.598007594731868 -58.491746730291986 1 1 2
58 4 3 0 -59.16683740358446 -5.002996479300421 -49.74621165287492 1 0 0
56 4 2 0 -52.4589001569916 -14.146756683682286 -46.74275286982249 1 0 0
57 4 4 0 -54.926170040316485 -8.788031442730137 -47.68176682426967 1 0 0
167 15 4 0 -43.480099008503 -13.738057363971727 -41.63219429724138 2 -1 2
164 15 3 0 -43.48662644400277 -1.068926749899673 -53.05644646388152 2 -1 2
165 15 3 0 -41.573286275610215 -5.952489291567711 -50.19138960276131 2 -1 2
166 15 2 0 -42.65411711481598 -9.138654508541002 -45.04092046609265 2 -1 2
282 26 4 0 -26.878532366302174 -1.681792759181049 -43.23210069376251 1 0 0
792 77 4 0 -16.410305276186136 -2.0930889870965443 -53.04032831517661 1 0 1
791 77 4 0 -17.198570042671353 -7.31214429735897 -49.94474590997097 1 0 1
790 77 4 0 -14.562519756484486 -10.850562114842134 -46.01607086168538 1 0 1
789 77 4 0 -9.635150925509954 -14.033650954462445 -45.003800341743954 1 0 1
281 26 4 0 -25.768211584679957 -7.3941930074683855 -41.46872899897937 1 0 0
1018 100 3 0 6.221236171317652 -0.11883484560322673 -43.078552949784374 -1 0 -1
1014 100 3 0 -6.0889793537682415 -8.738083754024029 -57.78620610939438 -1 0 -1
1015 100 3 0 -4.904071290685901 -8.174483473999532 -51.95046412734858 -1 0 -1
788 77 3 0 -4.156926887087284 -17.122216267907383 -45.62569135884787 1 0 1
787 77 4 0 1.139870751860455 -16.840625072974333 -48.50422516082176 1 0 1
786 77 2 0 6.353708775739204 -15.04751385735954 -49.17290841307903 1 0 1
1017 100 4 0 2.665247181011614 -3.879502601613757 -45.5469387199524 -1 0 -1
1016 100 2 0 -2.395757302360781 -6.519153981253782 -46.75552294635779 -1 0 -1
402 38 4 0 18.187679412065254 -18.76316774658983 -49.01934847165532 1 1 1
401 38 4 0 16.759722966892333 -17.730198818745652 -43.15388886286377 1 1 1
785 77 3 0 9.494320969364754 -10.677447967986636 -52.14371295012064 1 0 1
784 77 3 0 9.349469448352094 -4.8240318608003765 -53.16667525005971 1 0 1
779 76 4 0 -77.49607163263914 -62.44916639874197 -22.823819085079272 0 0 -1
979 96 4 0 -13.471033654922275 -60.5799561293043 -33.77002550093151 2 3 0
981 96 4 0 -9.835246983026844 -61.390359470414374 -22.90689462780084 2 3 0
980 96 4 0 -10.281200598216143 -60.75789653038552 -28.82562379271906 2 3 0
43 3 3 0 -25.456709836670232 -61.983295707249766 -20.502907517062752 0 2 2
724 71 3 0 36.69422082375407 -76.17388526193199 -39.937864197861416 1 0 1
723 71 3 0 37.621702520458605 -70.91873420048401 -38.02938175128362 1 0 1
555 54 3 0 74.8256037694221 -73.47870730382581 -26.83677365526922 1 0 0
554 54 3 0 70.88562854889932 -69.1811505888648 -25.68420322147215 1 0 0
556 54 2 0 76.93913084252016 -77.48389725939153 -23.610135228808897 1 0 0
553 54 3 0 70.62765522268573 -69.50619371934224 -20.110872761814193 1 0 0
780 76 4 0 -74.99097539357045 -56.57359270962063 -23.202012108195273 0 0 -1
781 76 4 0 -75.41816611153837 -51.76756686253355 -25.98636343718546 0 0 -1
782 76 4 0 -74.17925958478259 -45.79823371159997 -26.449164634641516 0 0 -1
1002 98 4 0 -44.01423216728276 -51.51930635522895 -39.24983846716285 0 0 1
652 63 4 0 -34.80196676664806 -48.59573288252642 -29.338844342176625 0 1 1
651 63 4 0 -30.399279863786507 -46.50739044497407 -25.900323711180018 0 1 1
650 63 4 0 -27.71807228906345 -45.048416796889995 -20.8472694594587 0 1 1
978 96 3 0 -12.152203623459611 -57.88666399836721 -38.82546713338773 2 3 0
958 94 3 0 -23.781430171704564 -59.99260653852065 -39.93232744109882 2 3 -1
44 3 3 0 -22.667321673306468 -57.74155206632264 -23.55524185910189 0 2 2
957 94 4 0 -24.236774425372865 -54.77326850429001 -36.229647379013606 2 3 -1
955 94 3 0 -23.690785006360873 -43.85185222937437 -38.30182062284044 2 3 -1
956 94 2 0 -22.59296385902129 -49.27359608812881 -37.438038444272884 2 3 -1
45 3 3 0 -19.97016389729676 -52.35485850445739 -24.37937850969595 0 2 2
46 3 2 0 -16.43378298918404 -49.88310545664723 -28.533394090140344 0 2 2
47 3 4 0 -12.856661920430227 -45.358726132567995 -30.26333266701159 0 2 2
48 3 3 0 -8.634180384472206 -44.34825624875817 -33.93095344005018 0 2 2
49 3 4 0 -6.692983510400531 -40.35775128756092 -37.94729663005727 0 2 2
643 63 3 0 -0.416556591878579 -57.075675359607224 -32.152538640515324 0 1 1
644 63 3 0 -3.1620501719434664 -54.8261227889544 -27.02873374653576 0 1 1
645 63 3 0 -3.955661288063973 -50.932105249501284 -22.362412439012306 0 1 1
763 75 3 0 -72.98598008858889 -25.934591481920855 -34.899880328220455 1 -1 0
764 75 3 0 -68.24750867187736 -22.70766355947837 -36.99595833100569 1 -1 0
765 75 3 0 -62.95439056204739 -21.862934999146965 -39.14722848010704 1 -1 0
171 15 4 0 -52.72921762239399 -20.131429492589287 -20.5959176696418 2 -1 2
954 94 3 0 -22.03742222384637 -37.9912852039699 -38.49573723665772 2 3 -1
953 94 3 0 -23.366366717851633 -32.22194114831147 -37.49194449514109 2 3 -1
492 47 4 0 0.8844352929557069 -29.76658321087018 -22.692121291413827 1 0 1
491 47 4 0 6.548160201174956 -29.499365809239006 -20.882668605945785 1 0 1
1025 101 3 0 -69.39414037288877 -6.1626346924495135 -38.87907583937357 1 1 2
1024 101 3 0 -68.23789430448757 -6.370644548277638 -33.25110030374102 1 1 2
1023 101 3 0 -68.12595714643273 -8.257976295418223 -27.685480073568467 1 1 2
766 75 2 0 -60.65916818395211 -16.57226935200381 -38.7601560731445 1 -1 0
767 75 4 0 -57.894555993349876 -11.657306850479772 -36.8202169201913 1 -1 0
769 75 4 0 -48.47529893019445 -4.794837337855321 -37.95895240559829 1 -1 0
170 15 4 0 -50.5374936462479 -19.07606592527228 -26.129789250561043 2 -1 2
275 26 3 0 -51.9403095612561 -7.163599203992591 -25.302933475617554 1 0 0
768 75 3 0 -53.76606976001254 -7.379718691270383 -36.98952529710781 1 -1 0
169 15 4 0 -47.751419552349546 -18.43267127206699 -31.6931321196965 2 -1 2
168 15 3 0 -45.72043547781959 -17.45488830531308 -37.47643900092942 2 -1 2
276 26 2 0 -46.043377621217516 -8.412715342891108 -27.051730731429426 1 0 0
274 26 3 0 -56.20381691595444 -5.599081048934443 -21.74685836369614 1 0 0
279 26 4 0 -32.38503202484584 -13.461509416968857 -34.81136549073912 1 0 0
277 26 4 0 -40.82357711512644 -10.859463956639573 -27.429915121990902 1 0 0
278 26 3 0 -35.78143374707975 -12.430189982730472 -30.296561883161953 1 0 0
280 26 4 0 -27.914680731597446 -11.863344981891954 -38.14029951317429 1 0 0
395 38 3 0 -10.659455669347215 -1.6451556637398181 -33.12533919630301 1 1 1
399 38 4 0 7.016941202185443 -14.09273540628937 -38.752406314143215 1 1 1
398 38 3 0 2.395607993428622 -11.611033832242306 -35.90321664361268 1 1 1
94 8 3 0 3.5812808604342203 -7.971990999387681 -25.298759470944024 -2 0 -1
397 38 4 0 -1.47037069153157 -7.260042265745737 -36.947522606966686 1 1 1
396 38 2 0 -5.780771651129117 -4.346660603742119 -34.59051649980602 1 1 1
93 8 3 0 3.5511806276462554 -14.002016928927894 -26.47806011614467 -2 0 -1
95 8 3 0 4.712223790829056 -2.3290663688574584 -26.679848210310855 -2 0 -1
1019 100 4 0 10.287995150567095 -0.5800795110538413 -39.05551707734703 -1 0 -1
400 38 4 0 12.750702040865493 -15.955699197608583 -39.52422835938139 1 1 1
1021 100 4 0 13.562063034554802 -7.37698156622545 -30.679981436325402 -1 0 -1
1022 100 4 0 16.181069899196576 -12.574876640390729 -30.10839204872938 -1 0 -1
1020 100 4 0 12.282150799286153 -2.634400391749822 -34.11762008773381 -1 0 -1
506 49 2 0 -67.41688256207146 -78.98008355892213 -1.852864268153657 1 0 2
378 36 3 0 -72.85123769846346 -78.15237036494847 -14.55687254603859 0 1 0
380 36 4 0 -69.10399815802275 -69.07046644995225 -10.207813972264702 0 1 0
381 36 4 0 -67.23850159772458 -63.51671910352823 -8.605223712836809 0 1 0
379 36 4 0 -72.23470451681187 -74.27547784718966 -10.506687656979361 0 1 0
778 76 3 0 -78.08032914289787 -66.45159199511498 -18.66210602175983 0 0 -1
505 49 3 0 -61.36555397297695 -77.42680016531723 -3.009820129749196 1 0 2
344 33 3 0 -51.79726706234709 -79.36295134477177 -13.376611697192933 0 1 1
504 49 3 0 -56.46647838772067 -74.22850704821967 -1.7668356505265677 1 0 2
343 33 3 0 -47.522484843462 -75.90028518588743 -13.031757676951834 0 1 1
503 49 3 0 -50.87339013090081 -73.07274197626688 -1.4482037322338774 1 0 2
41 2 3 0 -22.287967498790078 -66.34842040869977 -8.68582323851962 0 1 1
42 2 2 0 -19.92017250510238 -71.70521557142614 -9.21408658462086 0 1 1
40 2 1 0 -23.626810395052125 -62.212248420148256 -4.81306565148527 0 1 1
13 2 4 0 -13.22919506656683 -69.79911438061563 -0.9021023440304861 0 1 1
14 2 3 0 -12.472036874089708 -64.0057732637316 -2.133238998840759 0 1 1
293 28 3 0 16.722617498118506 -62.86364703739402 -12.27790728626103 0 -3 2
777 76 4 0 78.74826682903633 -69.29247744116267 -14.386971349532583 -1 0 -1
776 76 2 0 76.43116212217411 -74.42980399428724 -13.084600595162572 -1 0 -1
775 76 3 0 71.1874171104124 -76.1796610791873 -11.084603753347942 -1 0 -1
774 76 3 0 66.01342499270241 -79.04537400851646 -10.121582293617822 -1 0 -1
382 36 4 0 -64.65269213927601 -59.752311860365616 -4.624122872545139 0 1 0
851 83 4 0 -77.54375169653791 -42.08383887480653 -0.8323272074850656 2 1 0
982 96 4 0 -11.697758020047935 -58.83485436392617 -18.03326651646368 2 3 0
17 2 4 0 -20.04348603518171 -47.9764781434513 -0.3667004438286986 0 1 1
649 63 4 0 -23.69723659824244 -45.71769912543511 -16.976158428564 0 1 1
648 63 3 0 -18.102086299460037 -44.09060836766771 -16.080755510353303 0 1 1
647 63 4 0 -12.505847202537717 -45.5565773742117 -15.921228019607975 0 1 1
15 2 1 0 -13.693969716664942 -58.33056716100511 -1.5220648710633575 0 1 1
16 2 2 0 -16.705295115603267 -53.24264717406806 -1.461767365588246 0 1 1
646 63 2 0 -8.054870595103576 -48.32890141068116 -19.057943789336367 0 1 1
105 9 3 0 1.9258678347516234 -42.3419044868926 -15.374144249405935 -1 1 1
297 28 4 0 7.998124175697594 -45.51922084498101 -0.9199099620085247 0 -3 2
106 9 2 0 7.915935387461372 -43.81593912733532 -15.891997911877182 -1 1 1
296 28 2 0 10.25087225755083 -49.94854521021922 -3.7205417545101014 0 -3 2
295 28 3 0 14.376471266650158 -52.45540438830637 -7.236275598752921 0 -3 2
294 28 3 0 14.716099306340748 -57.7962325587506 -10.039503278814436 0 -3 2
107 9 4 0 13.955678974207016 -43.97118827705412 -16.66891083935834 -1 1 1
486 47 2 0 18.377764416588708 -43.840786636821186 -0.7749130641382366 1 0 1
108 9 3 0 19.412884866352254 -42.79738315855359 -14.561970612716486 -1 1 1
109 9 4 0 22.002083647892437 -40.575421459666316 -9.512921568106375 -1 1 1
111 9 4 0 29.588977017223 -40.48538218038217 -0.5595092687303396 -1 1 1
852 83 4 0 78.7097759702081 -42.052443011262824 -5.417292276831394 1 1 0
676 66 2 0 -69.90916269588419 -23.61686435322034 -5.061149102112342 -2 0 2
675 66 3 0 -66.65928795292726 -28.060700976259596 -6.994591907275902 -2 0 2
674 66 3 0 -61.80728857616054 -30.818243638971172 -7.755428381595354 -2 0 2
172 15 4 0 -51.607395909160665 -23.25679364114632 -15.751172465469098 2 -1 2
673 66 3 0 -56.41301357196389 -32.88013574036023 -6.247151235994986 -2 0 2
104 9 3 0 -1.3532179110676785 -38.00456416109674 -13.588401394563753 -1 1 1
103 9 3 0 -6.871431168893663 -35.638769780326385 -13.55655070936324 -1 1 1
487 47 4 0 15.058942679732473 -39.398790596362055 -2.2638390365487657 1 0 1
110 9 4 0 26.482895266694054 -39.09294966597468 -5.783239927122948 -1 1 1
490 47 4 0 9.665368058780784 -30.920315532870926 -16.31511021268904 1 0 1
488 47 3 0 13.998082946620237 -35.43662702331198 -6.560884011203247 1 0 1
489 47 4 0 11.017488563711442 -33.06122797029304 -10.978749119701964 1 0 1
677 66 4 0 -71.3003556623112 -17.729933583389943 -4.542442501408769 -2 0 2
678 66 3 0 -71.47755664523726 -12.799587322330737 -1.798202971130037 -2 0 2
843 83 3 0 -52.17183306048494 -11.580099475402688 -8.422613575937465 2 1 0
844 83 3 0 -54.83576020264118 -13.984662510047926 -3.862811754287119 2 1 0
273 26 3 0 -59.27440866645273 -3.268624908387661 -17.330996662508593 1 0 0
845 83 3 0 -58.332589815071344 -17.763159938052915 -0.3790494452473424 2 1 0
76 6 2 0 -42.01802955084398 -0.48192379465422436 -18.333139490732037 -2 0 -2
74 6 3 0 -36.53047442227237 -10.186657697748057 -17.38884350564304 -2 0 -2
75 6 3 0 -37.853265336333756 -4.430215421640246 -17.00275223958265 -2 0 -2
73 6 3 0 -32.168409845368465 -13.802916112486518 -18.65827525349411 -2 0 -2
29 2 1 0 -20.879031049667297 -17.7805464803534 -0.9484192836626202 0 1 1
309 29 4 0 -55.91460025413115 -72.42071649060122 17.866892200564976 0 1 0
310 29 4 0 -52.820943342666695 -67.95710545027242 15.705222946394718 0 1 0
311 29 4 0 -47.673733562705436 -69.45679104458435 13.344819230296746 0 1 0
308 29 3 0 -55.107487235707765 -78.13659195265507 16.519143163739837 0 1 0
312 29 4 0 -42.49136085238291 -66.96424410210807 12.600457015938803 0 1 0
12 2 2 0 -16.223263909673182 -74.79852201871323 0.21054379146701815 0 1 1
11 2 3 0 -20.514072087610035 -76.34210704176282 3.787520297210842 0 1 1
252 23 4 0 23.13042053057586 -62.54664586997038 0.7941104004397955 -1 1 0
251 23 4 0 17.226584729867763 -61.668350616564844 0.5912886404695438 -1 1 0
203 19 3 0 26.209445234323848 -73.41833396071866 18.960888048701324 0 0 1
923 91 3 0 42.61405436734197 -76.71527349744234 6.19361520063548 -1 -1 -1
579 56 4 0 43.33221778448259 -61.42495867546801 16.327719324498577 -1 1 0
578 56 3 0 48.57815876227374 -63.0064070299144 13.236773850892984 -1 1 0
208 19 3 0 52.077950758727454 -71.47042541426093 17.04407522731312 0 0 1
577 56 4 0 53.56612671558508 -60.673808522341375 14.786458626364285 -1 1 0
209 19 4 0 57.70445906002805 -71.63740198278512 19.030539275561814 0 0 1
207 19 4 0 46.50134274795998 -71.80448547128084 18.86293247279251 0 0 1
210 19 4 0 62.54380200613664 -69.40641240670354 16.902797597007 0 0 1
211 19 4 0 66.61820807326646 -66.39409411314723 19.58368251128678 0 0 1
522 50 4 0 -36.36455206185124 -59.327389988080256 15.808749591017335 0 1 1
519 50 4 0 -35.21899421068491 -43.503910891492126 18.75509986393412 0 1 1
520 50 4 0 -33.48083010047975 -49.00121066723989 19.879997404014617 0 1 1
521 50 4 0 -33.87932581349767 -54.759310250562734 18.576626442408354 0 1 1
38 2 4 0 -25.190579006525816 -57.81126324670808 5.959005648614536 0 1 1
37 2 3 0 -23.0215966271791 -55.13083227277784 10.711236335415855 0 1 1
36 2 1 0 -19.48012187413311 -51.272909016357595 13.131205549661718 0 1 1
35 2 1 0 -16.80192914304773 -46.09355215856123 14.254172676678852 0 1 1
18 2 4 0 -23.839011858627106 -44.521646508901604 2.7476378539742496 0 1 1
34 2 1 0 -15.015668154757261 -40.945635074207594 12.557284625417221 0 1 1
39 2 2 0 -25.209041680463578 -59.79382303690298 0.3287464317176044 0 1 1
298 28 3 0 6.677292140242098 -42.912389518426444 4.374010566712277 0 -3 2
392 37 4 0 5.667767757531938 -46.59695810480558 18.722356493001037 1 1 0
391 37 4 0 1.1214442945692256 -50.80196742813409 18.88901250792845 1 1 0
249 23 4 0 11.194132817228875 -53.927497750649486 6.3441227447865 -1 1 0
248 23 3 0 13.982823116365692 -50.13720486595607 9.241587686504905 -1 1 0
250 23 4 0 12.822815097270887 -58.44327575647184 2.8998270820949044 -1 1 0
247 23 4 0 17.337016258376774 -45.62128981237268 9.190838613639224 -1 1 0
484 47 3 0 24.70566023972546 -51.026734623294864 4.530081131778088 1 0 1
485 47 3 0 20.22097564902847 -49.57901449410971 0.6929809395193651 1 0 1
483 47 3 0 26.42622292679816 -51.77224102887888 10.124426177609903 1 0 1
246 23 2 0 18.674373757547436 -40.13874629824536 10.45676743658095 -1 1 0
580 56 4 0 38.785736061867865 -58.10495082354321 16.11933877530297 -1 1 0
581 56 4 0 36.78455095755283 -53.459012817461414 18.982631646481906 -1 1 0
112 9 4 0 33.81049610511115 -44.05615878513846 2.1396505549115235 -1 1 1
576 56 2 0 57.49709028538897 -59.49316729174356 19.252280943431863 -1 1 0
713 70 3 0 47.92993702387391 -45.459146250772775 9.095049414872554 -3 0 -1
714 70 3 0 48.966964065320774 -47.07748571409483 14.664685496937508 -3 0 -1
850 83 4 0 -73.22989400339954 -38.47292436739571 1.8875593530285248 2 1 0
849 83 4 0 -69.16348918857024 -34.25539304494371 2.5051680755616754 2 1 0
848 83 3 0 -66.59757946121671 -29.394369853743125 4.1773525625652494 2 1 0
847 83 4 0 -65.72331391151278 -23.905340828027388 3.7111251368046494 2 1 0
518 50 3 0 -38.78412577967445 -38.765357780046756 19.201573077794325 0 1 1
22 2 3 0 -38.81729435455448 -31.263319981275846 10.148401009890698 0 1 1
23 2 2 0 -39.93727256179309 -26.36968698858019 13.371037685033674 0 1 1
24 2 2 0 -37.7381658857125 -20.92880439239636 15.097474302956314 0 1 1
21 2 1 0 -34.51999882593057 -34.79601798487741 8.659172558202215 0 1 1
5 1 4 0 -35.690194343996055 -23.85611232684307 0.678441360395869 0 1 1
4 1 2 0 -41.214389583933624 -21.454605730434576 0.7988257268186323 0 1 1
6 1 3 0 -30.933050814144284 -24.91387853511425 3.7529355212073456 0 1 1
20 2 2 0 -29.420891546986947 -37.297351982235895 9.397632184136532 0 1 1
7 1 4 0 -27.8216017010977 -24.268183831711255 8.612512743909118 0 1 1
19 2 4 0 -25.234162790055716 -39.89409661202718 6.115676151694926 0 1 1
33 2 1 0 -14.143521695078768 -37.82056306860181 7.351537160356807 0 1 1
8 1 4 0 -22.568901259324342 -23.14923269946917 10.679252279411362 0 1 1
32 2 1 0 -16.296906367158293 -32.86782204768157 5.612906043072351 0 1 1
31 2 1 0 -17.48632255839926 -28.85336778520913 1.1446966657669346 0 1 1
142 12 4 0 -14.583105260782299 -29.520328473475935 15.186615589275629 2 2 1
141 12 4 0 -17.75283643178469 -32.64623358273948 19.433603565413453 2 2 1
30 2 2 0 -18.06055116115376 -22.826556337453457 0.43618305141950586 0 1 1
299 28 4 0 8.1852620104597 -38.79690061040763 8.147961388570929 0 -3 2
300 28 4 0 10.012826988561976 -33.12758723993042 7.432074669446193 0 -3 2
301 28 4 0 11.674569163897841 -28.55238602908978 10.617048333299234 0 -3 2
302 28 4 0 12.234400526015154 -23.252409496970134 13.062854689096515 0 -3 2
245 23 3 0 21.66722013999945 -34.90422496878356 9.44802680692132 -1 1 0
244 23 3 0 23.05232079909094 -31.543178411918788 4.741955852068566 -1 1 0
243 23 3 0 25.899479355640867 -29.08942540314901 0.21236523612746125 -1 1 0
846 83 2 0 -63.21662201050723 -19.101544961261823 2.4715128470860814 2 1 0
680 66 4 0 -63.595601079741854 -8.498046803725295 5.249628848533584 -2 0 2
679 66 4 0 -68.4403136737711 -10.375864171159074 2.6920762017681463 -2 0 2
1 1 3 0 -54.39083218899892 -18.390911806004375 11.00344850206996 0 1 1
681 66 4 0 -59.148511860307615 -4.584191083342789 6.833993405168522 -2 0 2
2 1 3 0 -49.323068242458504 -17.5268239132691 8.119524074317145 0 1 1
682 66 4 0 -53.77813518930017 -2.3931743711561806 6.495936021782292 -2 0 2
3 1 3 0 -45.09195206572399 -17.763832668203033 3.826149509653243 0 1 1
25 2 2 0 -35.14047795962736 -16.241426351077347 13.485067459117658 0 1 1
26 2 2 0 -32.83796731292745 -12.91195763591855 9.134560594937433 0 1 1
27 2 1 0 -28.574418016878404 -12.001164115361723 5.149771522730745 0 1 1
9 1 4 0 -18.293281051499157 -19.27154102195238 10.595963472382746 0 1 1
28 2 1 0 -25.9134421071704 -14.850648037417566 0.6185787936893248 0 1 1
10 1 4 0 -16.84731053198913 -13.76113356379363 10.278696847986676 0 1 1
927 91 4 0 42.803780615866046 -79.55999878208317 26.721657364158194 -1 -1 -1
204 19 3 0 30.62200545075297 -71.2557669785825 21.63496245096499 0 0 1
206 19 2 0 41.86047307332574 -70.76028141671121 22.0189293067217 0 0 1
205 19 3 0 36.05436032765326 -69.24363603182928 22.68696852990655 0 0 1
930 91 4 0 39.70714425720887 -66.5561547803647 35.51647615726885 -1 -1 -1
929 91 4 0 41.95319632255499 -72.19637973491369 35.04424149517377 -1 -1 -1
928 91 3 0 42.416618483354064 -77.17851648372132 32.119132557118384 -1 -1 -1
931 91 4 0 34.816033763168825 -64.45716899449445 32.55904131401587 -1 -1 -1
932 91 4 0 30.283353083059744 -64.55500490772226 28.753937762866958 -1 -1 -1
719 70 4 0 51.41591995777146 -66.49374258512951 32.507992609090714 -3 0 -1
720 70 4 0 51.12748305708372 -71.42804509313541 35.890346450873864 -3 0 -1
718 70 3 0 49.76411368374653 -62.920220628039196 28.358971211464933 -3 0 -1
721 70 4 0 51.491298376374125 -76.64507912775888 39.25574335239972 -3 0 -1
212 19 4 0 70.67664043858353 -67.24381372558192 23.628286215827032 0 0 1
1010 99 4 0 -28.61280309109407 -58.25253775050895 35.376858572946304 1 1 0
135 12 3 0 -40.3803708423051 -50.16531128678314 34.56322449471401 2 2 1
136 12 2 0 -35.37155656276775 -47.09517182114605 33.02031810312185 2 2 1
134 12 3 0 -41.6952978219578 -53.489640553221385 39.01256280297852 2 2 1
137 12 4 0 -31.804632206561248 -44.74099495077679 29.259283409984274 2 2 1
138 12 3 0 -28.821673634082007 -40.78984066098103 26.571517310993933 2 2 1
387 37 4 0 -12.139728461982074 -59.69441699395097 33.95597159608007 1 1 0
1009 99 4 0 -23.868096332919453 -56.729829904027206 31.94418359573353 1 1 0
1008 99 3 0 -21.01170264479185 -54.01125284276967 27.426864920769212 1 1 0
1007 99 4 0 -16.78455586906275 -51.465401108842805 24.30176300257503 1 1 0
1006 99 2 0 -13.36497505979744 -46.679287617395936 23.75696793054358 1 1 0
837 82 4 0 -18.005261987913954 -48.00276607452936 34.6969536334815 1 -1 2
836 82 2 0 -12.45163929872494 -48.82166824383263 33.49593013141436 1 -1 2
1005 99 3 0 -11.625092706680544 -41.886733282003135 26.538823866244094 1 1 0
386 37 2 0 -15.323824050041091 -58.438776083072014 39.23657091865654 1 1 0
838 82 3 0 -22.62107756149849 -46.9800606892265 38.42554644449861 1 -1 2
388 37 3 0 -8.23777527516617 -57.39426061787875 30.414798061669334 1 1 0
389 37 4 0 -7.337944242930999 -54.90104403065844 24.9320006549358 1 1 0
390 37 4 0 -3.0820292626606403 -53.88307367336267 21.058413213821375 1 1 0
835 82 3 0 -6.789719656350109 -48.86292559343473 35.47187729490891 1 -1 2
1003 99 3 0 -0.5435942215232282 -40.577568927175975 28.158731219452903 1 1 0
834 82 3 0 -3.415056663333001 -51.18555874169457 39.950880992141144 1 -1 2
582 56 4 0 38.469352423780876 -48.167238566462345 21.50057556369993 -1 1 0
715 70 3 0 48.43342128377033 -49.02944563806498 20.061383324358776 -3 0 -1
717 70 4 0 47.531195087629555 -58.197950912983096 26.698726559631503 -3 0 -1
716 70 2 0 46.696761381085096 -53.574518632242274 22.98729042810428 -3 0 -1
575 56 3 0 58.96266927526195 -59.271176608619065 24.963080360377184 -1 1 0
573 56 3 0 67.63417758959137 -55.110966467330776 31.013913524987032 -1 1 0
574 56 3 0 62.35662438407975 -56.48680195366801 28.629822629461515 -1 1 0
517 50 4 0 -38.79851062450052 -33.00204659517723 21.44039554181354 0 1 1
516 50 2 0 -34.98213724179126 -29.297823903647135 23.43688922864471 0 1 1
515 50 3 0 -31.681433033852198 -24.65986129177205 24.388283208055302 0 1 1
514 50 3 0 -26.92001456952236 -21.48735145635467 23.156389211650634 0 1 1
140 12 4 0 -22.979717169770538 -34.54543290519757 20.822312389336815 2 2 1