LAMMPS data file via write_data, version 29 Aug 2024, timestep = 105000000, units = real

1032 atoms
4 atom types
931 bonds
1 bond types
830 angles
1 angle types

-80 80 xlo xhi
-80 80 ylo yhi
-80 80 zlo zhi

Masses

1 329.2
2 305.2
3 345.2
4 306.2

Bond Coeffs # harmonic

1 7.5 5.9

Angle Coeffs # harmonic

1 5 150

Atoms # full

162 14 4 0 -61.6843907361368 -74.51272844703679 -59.49583556591867 -1 -2 0
886 87 2 0 -25.41071147085617 -79.47604220290549 -75.20682398222343 3 3 2
887 87 4 0 -26.051440634817368 -76.26681972932334 -69.92584972911871 3 3 2
888 87 3 0 -22.947099070894353 -71.78789744773701 -69.23672157137733 3 3 2
889 87 4 0 -22.103555319829987 -66.12910217172163 -68.07448373851894 3 3 2
858 84 3 0 -13.2705810504784 -73.0821177669654 -75.92548536884405 -2 -3 -2
859 84 4 0 -15.227786149337062 -78.70622885419934 -75.48660280944964 -2 -3 -2
109 9 4 0 15.108576546364375 -78.46060010806845 -45.144728686093046 -1 1 2
890 87 4 0 -24.712972108066865 -61.25602180476132 -67.63424494632415 3 3 2
353 34 3 0 38.366087109070286 -76.8028571506147 -70.98494230884867 1 -3 1
354 34 3 0 43.92882955388043 -75.6216863255281 -69.01843156187783 1 -3 1
355 34 3 0 49.205714276079746 -75.54539861072944 -70.76164086884575 1 -3 1
356 34 2 0 54.51405879014174 -74.42877585796907 -70.27388305557159 1 -3 1
784 77 3 0 45.98773696827756 -61.598190085399956 -67.28395112614919 -3 1 -2
515 50 3 0 58.488282759690335 -65.91457736122786 -78.47063310633628 -2 1 -1
9 1 4 0 -68.56658049295274 -79.83167981934395 -12.3459894174316 -1 1 -3
783 77 3 0 42.99668650790707 -66.33180657964621 -65.21904414656254 -3 1 -2
357 34 4 0 58.1350686056284 -74.69113072778748 -65.56296902744303 1 -3 1
358 34 3 0 61.36917301404821 -77.29723900626831 -61.27114042285993 1 -3 1
514 50 3 0 64.0574535243383 -65.8772793266593 -79.96327292194856 -2 1 -1
542 52 4 0 -46.8752813934333 -54.30322074937437 -68.65579583569898 1 1 -3
541 52 4 0 -44.31110848750416 -51.77649775205063 -73.14235330705638 1 1 -3
540 52 4 0 -45.81038684604633 -46.319026346505815 -75.05066200389426 1 1 -3
892 87 4 0 -22.754239077611874 -52.85446013751157 -75.63807993897146 3 3 2
891 87 4 0 -24.646502602476094 -56.577260894907475 -71.48336997324688 3 3 2
618 60 3 0 24.770595373598663 -46.50647250183351 -69.96236902952818 -2 0 -3
617 60 4 0 19.9735127369366 -47.81225047853275 -73.0333521152146 -2 0 -3
43 3 3 0 6.864638364983372 -41.550934159862265 -71.78138124950068 1 2 -2
616 60 2 0 19.41916337873562 -51.47374132670406 -77.86696390724092 -2 0 -3
619 60 4 0 29.528027659316347 -43.26833186384927 -68.99087219969599 -2 0 -3
620 60 4 0 32.28480096316522 -43.17375159169973 -63.694321812142576 -2 0 -3
772 75 4 0 55.60376728389549 -49.52495764097983 -69.8729601724696 -1 -2 1
771 75 4 0 56.19934587110674 -51.09305089047671 -75.13321285468419 -1 -2 1
785 77 3 0 51.30783191747112 -59.34385924444622 -66.16630997191409 -3 1 -2
786 77 2 0 54.13436539867343 -56.32795798857549 -61.801177931280236 -3 1 -2
98 8 3 0 -66.94703046254436 -35.83746965147845 -60.40727927462149 0 0 -3
96 8 2 0 -77.2415954246821 -37.0383253596798 -61.564133638972486 0 0 -3
97 8 4 0 -72.69412898634415 -35.33463295628497 -58.47222983654934 0 0 -3
99 8 4 0 -61.74095529400277 -33.697958941535596 -61.49719476214607 0 0 -3
100 8 4 0 -57.54671143187657 -34.98627263400085 -65.70958021355335 0 0 -3
101 8 4 0 -52.1679693747553 -33.07323660817173 -68.00688670584391 0 0 -3
102 8 4 0 -51.85963084295189 -29.336992048584555 -72.20168379067789 0 0 -3
234 22 3 0 -14.469899446742046 -36.2778140607776 -71.46564118794655 -2 1 0
236 22 2 0 -15.733756002540964 -27.451893044804592 -64.5395542082667 -2 1 0
235 22 3 0 -15.771560529300508 -32.88130224827049 -66.97719371375773 -2 1 0
237 22 4 0 -17.569723258510585 -22.290923130566036 -65.90738630719306 -2 1 0
425 41 3 0 -10.238974667699079 -19.483618615310554 -73.90253782665467 1 3 0
233 22 3 0 -10.122572936929394 -38.610532872317236 -74.22663772443094 -2 1 0
426 41 2 0 -7.0755094585031735 -22.66736070747227 -70.54063856739535 1 3 0
427 41 4 0 -5.446733664331147 -25.058952087173008 -65.12859851961237 1 3 0
428 41 3 0 -2.6714592860476514 -30.267512608582226 -63.556629118304976 1 3 0
302 28 4 0 6.047082680718524 -21.0478826363465 -70.35650075754911 1 2 2
44 3 3 0 12.284261445768708 -40.50953200395816 -73.623416426294 1 2 -2
432 41 4 0 19.12658279617484 -27.454325282606572 -64.78261205469195 1 3 0
431 41 4 0 14.126131132333656 -27.987037627665167 -61.370779485493614 1 3 0
45 3 3 0 16.02616165221067 -38.31196622687534 -77.58612844265645 1 2 -2
95 8 3 0 78.00016087645307 -34.25476022719947 -62.76935831797557 -1 0 -3
94 8 3 0 76.57371802999347 -28.621068717935525 -64.20999524138124 -1 0 -3
93 8 3 0 71.97056499220051 -25.821915945795585 -66.21327980729704 -1 0 -3
406 39 2 0 -23.802565611917554 -0.9681350866442396 -72.34800343961639 1 2 -1
722 70 4 0 -37.797804946123584 -10.89717834642912 -69.65790396891114 0 1 0
721 70 4 0 -37.947449372231155 -12.234350631281668 -63.91591384228942 0 1 0
423 41 3 0 -22.065589126864303 -17.22508909377647 -76.59480097488168 1 3 0
238 22 3 0 -20.356808315512644 -17.485243506006906 -63.5923256868436 -2 1 0
405 39 3 0 -25.421158837976456 -5.60011331268413 -75.54830183146666 1 2 -1
424 41 3 0 -16.367780839802837 -17.94219753739696 -74.87345115385331 1 3 0
297 28 4 0 -12.112858542753418 -3.2833442163202298 -69.00977689791004 1 2 2
151 13 4 0 2.2182773018232935 -78.84105188456655 -53.42250077092629 0 1 1
239 22 4 0 -20.830641959388807 -11.958340424069418 -61.26930211992472 -2 1 0
857 84 4 0 -14.140534107759354 -67.90081983254673 -78.50714639150209 -2 -3 -2
298 28 3 0 -8.395165016941034 -6.838520042169123 -65.50363279380123 1 2 2
299 28 4 0 -4.2707057311684595 -10.608234106046073 -63.11053998026876 1 2 2
301 28 4 0 3.667389119039592 -18.36730873601007 -65.42468266013945 1 2 2
300 28 4 0 -0.2327012360707668 -14.913179186065662 -62.643999097753436 1 2 2
630 61 4 0 70.4201390569957 -4.4335011107310445 -19.65387310464089 2 -2 1
482 46 4 0 15.58915581234352 -2.4198613273461285 -70.74641076914428 1 2 -4
114 10 3 0 61.29680452346937 -12.464243593884209 -75.10556521136382 2 0 -2
113 10 3 0 59.20735944562619 -14.868596922388642 -70.05373019207069 2 0 -2
631 61 4 0 72.95844309308181 -2.5362295111005437 -14.5754010602605 2 -2 1
161 14 4 0 -66.92796672031739 -76.33641256677367 -57.666440658913366 -1 -2 0
1 1 3 0 -51.99753008033601 -69.7123252702369 -39.208846231422456 -1 1 -3
152 13 4 0 3.439548301347986 -75.38333975301913 -48.77468246851496 0 1 1
108 9 3 0 19.072724806821515 -77.28411627254562 -41.08159893286275 -1 1 2
653 64 3 0 27.466168115346303 -62.979780406940826 -38.079854125066014 -1 1 -4
634 62 3 0 55.958280693236674 -78.51789087411997 -43.68511912065388 -1 0 0
635 62 3 0 59.30797963295752 -74.83166634651191 -46.99236256096079 -1 0 0
437 42 4 0 56.61721951833376 -59.89393619941266 -45.446949210096065 -3 1 -1
436 42 2 0 59.98287181824433 -62.013460744077555 -41.442581620474286 -3 1 -1
438 42 3 0 51.825314567093955 -58.21942872767424 -48.34331603770002 -3 1 -1
636 62 2 0 59.39242051740197 -69.98579689175504 -49.94006580738745 -1 0 0
638 62 3 0 65.77840925565864 -60.72229035422434 -53.56981438104173 -1 0 0
637 62 4 0 63.319765773549506 -65.96002251351771 -52.20569893338228 -1 0 0
433 42 3 0 75.33565165634005 -63.91622320244444 -41.24232789418634 -3 1 -1
991 97 4 0 -57.03378276411079 -58.50730526332022 -40.78271713873681 0 1 0
992 97 4 0 -54.64480592021553 -53.74534279769903 -43.477111927237424 0 1 0
442 42 4 0 37.20927228145418 -56.66453262106483 -64.39219906522845 -3 1 -1
621 60 4 0 31.876096866248556 -44.26902373400307 -57.91601183420952 -2 0 -3
622 60 4 0 34.96625193856136 -43.190303129948475 -53.081514786901096 -2 0 -3
441 42 4 0 40.508074792190094 -53.82392335724452 -59.978561742214296 -3 1 -1
440 42 4 0 44.21697016990163 -54.76213379292482 -55.50511057648003 -3 1 -1
787 77 4 0 54.93618070585698 -50.98984438557123 -58.73422512659335 -3 1 -2
439 42 4 0 48.76020844806812 -56.32817865105845 -52.90669467389198 -3 1 -1
788 77 3 0 52.596438393001215 -47.23087905798338 -55.02068734685477 -3 1 -2
789 77 4 0 52.27739266515545 -41.94075317379365 -52.43088703972113 -3 1 -2
641 62 4 0 72.34369662795397 -48.19498405667934 -57.97940388458668 -1 0 0
642 62 4 0 77.86496126139646 -49.65757731790558 -59.447502512398934 -1 0 0
640 62 4 0 67.14774080454589 -49.86786467897434 -55.68599520622153 -1 0 0
639 62 4 0 65.75086597496838 -55.2982367407689 -53.76363253966225 -1 0 0
498 48 3 0 -42.455149028367195 -25.162734546549334 -44.59950447576201 3 2 0
499 48 4 0 -38.77541853659613 -29.541232519781122 -45.688656141395576 3 2 0
500 48 4 0 -34.459721697425074 -33.31900075126144 -46.18497607448409 3 2 0
501 48 4 0 -30.913832496172784 -36.23969443138305 -42.86505667933361 3 2 0
717 70 4 0 -30.237257158811236 -22.048842635325748 -46.42069942144473 0 1 0
718 70 3 0 -34.12061833869438 -20.691272121677727 -50.654791816361744 0 1 0
719 70 4 0 -36.588468269618545 -16.72096002880478 -54.14381194376601 0 1 0
716 70 2 0 -29.39216324526745 -23.65386864603431 -40.9808762383619 0 1 0
502 48 4 0 -25.18404447497319 -36.27465751218549 -40.95975448415482 3 2 0
429 41 4 0 2.8041188635841983 -30.866793846923752 -61.56157066275777 1 3 0
430 41 4 0 8.43686440602102 -29.2306048301995 -59.896119233899064 1 3 0
791 77 4 0 54.3628161586617 -30.870175931731282 -52.48168517974599 -3 1 -2
790 77 4 0 51.95981993620128 -36.069724458964984 -50.957103346808886 -3 1 -2
792 77 4 0 52.32113157088056 -26.809528654544113 -56.47774046591927 -3 1 -2
497 48 4 0 -43.40965366786258 -19.90652425234346 -42.01304057899347 3 2 0
383 37 3 0 -62.91608330546772 -10.732030440356288 -47.61612714436895 -2 0 -1
385 37 3 0 -54.338502877401325 -4.6023327975408606 -41.90773582382155 -2 0 -1
384 37 3 0 -58.24628444847915 -7.323786880882589 -45.40150085461521 -2 0 -1
720 70 4 0 -38.80507619851231 -14.44844390909574 -58.738916343888675 0 1 0
496 48 2 0 -43.54033889023631 -14.132272389652814 -43.03586855908318 3 2 0
494 48 3 0 -37.393695819306124 -4.637297864373078 -45.81330279592352 3 2 0
495 48 3 0 -41.39752380409582 -8.770580078913017 -43.727704314923436 3 2 0
240 22 4 0 -19.334931550099654 -7.137570732442909 -57.544372114814244 -2 1 0
241 22 4 0 -20.24952123293083 -5.095154423961038 -52.165292183586935 -2 1 0
242 22 4 0 -20.293415120266893 -0.6015882554012291 -47.93980940018015 -2 1 0
481 46 4 0 15.594908238026175 -0.4836096673721385 -65.29055261292797 1 2 -4
988 97 3 0 -61.31837244481441 -72.6813723837504 -34.51003584981802 0 1 0
593 58 3 0 -70.9322150568384 -62.89336590747015 -32.25846184297416 -2 -2 0
987 97 4 0 -62.4825917478192 -76.73992050692212 -30.454862454441383 0 1 0
6 1 3 0 -65.42284840236599 -68.21199743558405 -19.83362789982707 -1 1 -3
632 61 4 0 75.23714617501864 -1.091340452317894 -9.618422943503624 2 -2 1
990 97 4 0 -58.83204427264083 -61.199546708106766 -36.122212452249705 0 1 0
989 97 4 0 -60.72079112894003 -66.77368462313014 -34.65065746253104 0 1 0
2 1 3 0 -50.120186464654836 -70.54531649567359 -33.65803045372519 -1 1 -3
5 1 4 0 -59.874290785115946 -69.31468939462245 -19.966786736559634 -1 1 -3
3 1 3 0 -52.023171981193315 -70.21232023334849 -28.150084436597634 -1 1 -3
4 1 2 0 -55.05421732034441 -69.1662235801249 -23.20197497197293 -1 1 -3
130 11 4 0 -28.547657133425957 -78.47940465130274 -29.38433225331875 -2 -2 -1
193 18 3 0 -26.740902805096127 -60.567447850344266 -36.592327992889366 1 1 -1
131 11 4 0 -29.48051417445596 -73.12004245020773 -32.193822790480446 -2 -2 -1
132 11 4 0 -34.40327157763505 -69.50690754931128 -32.94602771890643 -2 -2 -1
214 20 3 0 2.435779262500055 -67.07045683195123 -21.382879823581593 0 1 -2
215 20 3 0 7.415939283603692 -63.765820881586514 -21.347648628183467 0 1 -2
732 71 4 0 3.8763458553507593 -64.55269038004218 -34.46670770654098 -1 -2 -2
213 20 3 0 -3.060098141329147 -65.73545193868455 -22.43009022774337 0 1 -2
106 9 2 0 23.940453567029426 -78.71267095423046 -30.87207752832063 -1 1 2
105 9 3 0 26.79087910568875 -79.70155689178705 -25.595312143218955 -1 1 2
656 64 2 0 17.971282567014267 -69.54211631349172 -28.20118672053396 -1 1 -4
657 64 4 0 18.500064562440595 -71.5863908836411 -22.902640914390624 -1 1 -4
655 64 3 0 18.401815551397846 -66.22994727841014 -33.19741987927636 -1 1 -4
654 64 3 0 22.596078533147 -66.09642962109574 -37.392492350459555 -1 1 -4
218 20 3 0 23.1618850082278 -59.139504074441376 -20.964389656344434 0 1 -2
216 20 2 0 12.130182256557424 -60.260935736508294 -21.918696966533187 0 1 -2
658 64 3 0 19.731263890683557 -71.42321524187487 -17.774204968805638 -1 1 -4
107 9 4 0 22.56857770006769 -78.67378295136629 -36.53822362973816 -1 1 2
219 20 4 0 26.157054011044366 -62.375078392203285 -24.572704777629227 0 1 -2
103 9 3 0 36.043216647358506 -74.42594137575574 -24.69704580217999 -1 1 2
104 9 3 0 31.27593883338615 -77.20412655525621 -22.68537476458568 -1 1 2
220 20 4 0 31.49752379594943 -62.37083418969464 -26.105450443484678 0 1 -2
221 20 4 0 36.392369248464675 -60.122082255743386 -23.844589641957043 0 1 -2
435 42 3 0 65.43445605981064 -63.25861471889833 -39.55316158882029 -3 1 -1
434 42 3 0 70.6280195409042 -61.04587399965521 -41.49422552755943 -3 1 -1
594 58 3 0 -67.62297890490719 -61.12635269577412 -28.240485323240136 -2 -2 0
595 58 3 0 -62.82317028340128 -58.525124583095256 -26.026482157110248 -2 -2 0
596 58 2 0 -58.052713701836765 -59.28613156305204 -22.753514381835238 -2 -2 0
282 26 4 0 -59.398613925089485 -47.326902610939904 -32.56125577481602 -1 1 1
281 26 4 0 -61.61735351816611 -46.17114994032893 -26.75853709489189 -1 1 1
280 26 4 0 -59.16909896779334 -49.3935939729351 -22.352838583813796 -1 1 1
198 18 3 0 -48.1568351679933 -43.92380869764088 -28.21915031801594 1 1 -1
597 58 4 0 -52.601101467952596 -57.34878730172776 -20.74546729067836 -2 -2 0
197 18 4 0 -44.471510004133656 -48.80231309696789 -30.08029097475128 1 1 -1
194 18 3 0 -30.665503757191686 -56.78730608320926 -34.59192704882938 1 1 -1
196 18 2 0 -40.203212567118655 -51.88043436406316 -32.66140365706737 1 1 -1
195 18 3 0 -35.96378231518306 -56.15523739755034 -31.888097082225677 1 1 -1
731 71 4 0 3.9225232626069007 -59.256468580205286 -31.86181621005936 -1 -2 -2
730 71 4 0 5.959903729628739 -55.63901226800884 -27.965106549490862 -1 -2 -2
729 71 4 0 7.996383653500982 -51.07722541258818 -25.726197059834035 -1 -2 -2
728 71 3 0 7.846672767147808 -47.5852858858307 -21.15288442319644 -1 -2 -2
217 20 4 0 17.48536041031268 -58.300409514414746 -21.035177171661925 0 1 -2
342 32 4 0 17.911724532221253 -38.85701868508211 -35.19484488566484 -3 2 -1
199 18 4 0 -50.89189643330087 -40.03070781114885 -24.397264616901165 1 1 -1
715 70 3 0 -29.03490917504244 -27.21501236209855 -36.44781542151502 0 1 0
714 70 3 0 -31.102756223991026 -28.766495997930445 -31.264820229975143 0 1 0
713 70 3 0 -29.72319650036282 -31.673245815191695 -27.09505306045907 0 1 0
334 32 3 0 -8.714396598896853 -20.745679935688205 -29.084053215648886 -3 2 -1
1002 98 4 0 -17.779082254187212 -30.141514060392783 -24.288923295676177 -4 3 -1
1001 98 4 0 -13.269846597176489 -30.4825308628168 -20.033357051121342 -4 3 -1
997 98 4 0 3.6965620242673887 -37.19574253155963 -29.302565718770136 -4 3 -1
998 98 3 0 -0.20979262715375893 -36.96280949591698 -24.76651047452704 -4 3 -1
999 98 4 0 -2.372270142592064 -33.69997905000726 -20.068336751168093 -4 3 -1
996 98 2 0 7.554085503351856 -35.68481099354903 -33.43697981231952 -4 3 -1
335 32 3 0 -3.46230603226133 -22.60720820405531 -27.661166641413338 -3 2 -1
336 32 2 0 0.7023999327728349 -22.88206735477538 -23.8095622213462 -3 2 -1
337 32 4 0 4.973392125538383 -25.019320255707786 -20.06325821084649 -3 2 -1
338 32 3 0 7.648245976298691 -30.195893307991383 -20.71425029359999 -3 2 -1
340 32 4 0 15.76445457056239 -32.69639327525681 -26.784601176411517 -3 2 -1
341 32 4 0 19.124147605279568 -36.51679523937295 -29.92948152527071 -3 2 -1
339 32 4 0 11.667400813639537 -33.65114131181527 -22.93186250068844 -3 2 -1
995 98 3 0 10.610351894324438 -31.79873497917206 -36.26090207585044 -4 3 -1
994 98 3 0 13.666428686259897 -26.906469389553642 -35.2436490603717 -4 3 -1
993 98 3 0 18.668872437287312 -24.886896262333046 -32.94479710094683 -4 3 -1
623 61 3 0 54.535048899160714 -30.744169899912556 -26.14490233412586 2 -2 1
624 61 3 0 57.626252003819424 -32.17598695555656 -21.230139164645767 2 -2 1
626 61 2 0 63.404424372931125 -22.97199361520803 -19.208141566821407 2 -2 1
627 61 4 0 66.61428645010332 -18.842150173190927 -22.24997817043965 2 -2 1
742 72 4 0 -63.072063011416326 -3.828988352350834 -35.41475845725265 1 -1 4
386 37 2 0 -49.38570546892285 -3.2642051284039204 -39.45289735233078 -2 0 -1
741 72 4 0 -58.75029606065725 -5.80797413309201 -31.948579176300317 1 -1 4
740 72 4 0 -55.6045622223 -10.596242592327544 -30.005871556394297 1 -1 4
739 72 4 0 -49.902640513145165 -12.44559203826458 -31.521382293821627 1 -1 4
724 71 3 0 2.455053465384538 -39.95103368933823 -0.8016501517709536 -1 -2 -2
737 72 4 0 -38.50631973547328 -14.477835879819212 -32.51607998256007 1 -1 4
736 72 2 0 -34.61978053617532 -11.519707774118606 -35.899048159041435 1 -1 4
738 72 3 0 -43.935492354806605 -13.099744426575965 -30.31912578864488 1 -1 4
733 72 3 0 -21.681094602188487 -1.6103159932964457 -36.34583313428406 1 -1 4
389 37 4 0 -38.0566076596188 -2.808472838794924 -29.083707703979595 -2 0 -1
390 37 4 0 -32.955769102493356 -2.7720852038818986 -25.945293112180188 -2 0 -1
625 61 3 0 60.2685484665783 -27.764889850083343 -18.26772404262437 2 -2 1
735 72 3 0 -28.583575319082332 -10.650770873358281 -36.17703104007351 1 -1 4
725 71 3 0 4.14959808160915 -39.14843011943136 -6.253892632244751 -1 -2 -2
734 72 3 0 -24.48213087318816 -6.429010636194629 -35.33162552315776 1 -1 4
333 32 3 0 -13.031914401489239 -19.887375518548982 -25.621017144278124 -3 2 -1
628 61 3 0 68.9163301332938 -14.222490375128718 -25.065185390709743 2 -2 1
629 61 4 0 68.47719517265274 -8.476964608811336 -23.421040612457134 2 -2 1
7 1 4 0 -69.51614016425114 -72.25603769274635 -19.995871658827273 -1 1 -3
8 1 4 0 -70.85049621451905 -76.87960086798864 -16.947709504382022 -1 1 -3
493 48 3 0 -35.53996499439901 -0.7448285418483988 -50.15193179568668 3 2 0
983 97 3 0 -52.176402079914006 -78.18259786178548 -12.099187794357947 0 1 0
448 43 3 0 -8.352823785210726 -63.153408979766056 -1.4925071319514038 1 0 1
661 64 4 0 8.130873720728868 -66.83170442986447 -9.418416748938023 -1 1 -4
662 64 4 0 3.704140238018499 -63.629422014260754 -10.69817116797383 -1 1 -4
449 43 4 0 -5.982961626329317 -57.84606753314729 -3.2428472696655235 1 0 1
660 64 4 0 14.276935651631355 -67.29192260764704 -9.374347449516678 -1 1 -4
659 64 4 0 18.02217958748228 -67.7596779734941 -13.627483006357442 -1 1 -4
598 58 3 0 -47.496110721678626 -57.940492679199636 -17.60367295557232 -2 -2 0
279 26 4 0 -55.826094999953504 -49.426770701882425 -17.500663259547903 -1 1 1
277 26 4 0 -47.512541169175826 -47.63252259574838 -11.235628682654069 -1 1 1
278 26 3 0 -53.06999023232297 -47.33124572868056 -12.610492571217554 -1 1 1
276 26 2 0 -45.28898545514404 -50.0500146254151 -6.19801343144653 -1 1 1
599 58 4 0 -42.30231130237048 -55.769306529415765 -16.1869153865289 -2 -2 0
275 26 3 0 -40.705736150781206 -51.53253677745647 -2.8696575584617796 -1 1 1
600 58 4 0 -37.74030359700058 -56.23694308313125 -12.259655828346096 -2 -2 0
601 58 4 0 -31.987856489809143 -56.035098426585165 -10.690601943164042 -2 -2 0
602 58 4 0 -27.252035475631736 -57.34746282336933 -7.479226897680703 -2 -2 0
450 43 4 0 -1.5430030526997267 -55.431703897299315 -6.47300595566899 1 0 1
451 43 4 0 3.476669096794103 -52.18181374289596 -6.260514109660434 1 0 1
727 71 4 0 7.443877621643436 -45.809933969186524 -15.342781975579278 -1 -2 -2
452 43 4 0 7.70981612715125 -48.52480204671387 -5.024889471924833 1 0 1
726 71 2 0 6.107834006305582 -41.48613199814234 -11.268775455811621 -1 -2 -2
222 20 4 0 39.570758483857716 -56.19364979657374 -20.724098657918898 0 1 -2
200 18 4 0 -50.301685063237656 -35.94825040785982 -20.382545662327978 1 1 -1
201 18 4 0 -50.08712040647739 -34.184922480518196 -14.62686425888213 1 1 -1
202 18 4 0 -52.673894426928776 -35.871244920064186 -9.435440503678313 1 1 -1
1000 98 4 0 -7.448363297907617 -30.92933900672603 -18.29435986956338 -4 3 -1
933 92 3 0 37.414854579690484 -0.8418655634734397 -0.49547227192457105 0 -1 -2
853 84 3 0 -34.51955656124986 -59.894542416853184 -79.5891440218876 -2 -3 -2
539 52 4 0 -49.135221297653516 -43.68131250271576 -78.90155363737375 1 1 -3
273 26 3 0 -39.923313505395825 -60.24641573970745 4.368513521188141 -1 1 1
62 4 4 0 -26.929913407103207 -65.00301442864777 15.362312544266945 2 1 1
61 4 4 0 -21.482196634354256 -65.36335687635346 13.754362599399697 2 1 1
60 4 4 0 -17.08132439479526 -63.0132908642332 10.914071817634506 2 1 1
445 43 3 0 -10.323629945464958 -71.04750687118347 13.482752789588968 1 0 1
447 43 4 0 -9.597882976887261 -67.93331436228583 2.3982904361369366 1 0 1
446 43 2 0 -9.90795077796183 -68.79766977929197 8.113143468995474 1 0 1
973 96 3 0 19.279799304942372 -73.70548489118217 11.76363342405547 0 0 -2
974 96 3 0 17.629600932875025 -76.08766810334598 16.931001775997757 0 0 -2
53 4 3 0 10.780201429038733 -65.11420394821408 3.700780224477571 2 1 1
1032 101 4 0 59.97663420043804 -60.82200055966286 14.124396402792055 -1 0 -3
1003 99 3 0 76.47545481226285 -64.37989483939205 15.503710297437808 -1 1 -3
1004 99 3 0 77.15197749941477 -59.989100917040005 19.323821220889194 -1 1 -3
180 16 4 0 -77.14561524460403 -41.43339669287314 16.085190141268512 1 2 -1
274 26 3 0 -38.73997787501857 -55.33216510743958 1.2681999431814492 -1 1 1
59 4 4 0 -15.527971590173088 -57.65901659099648 8.80618613567369 2 1 1
58 4 3 0 -11.579607859319434 -55.04159110180769 5.906582314780399 2 1 1
56 4 2 0 -0.5165781933778845 -53.86427571227682 5.348675322326488 2 1 1
57 4 4 0 -6.253775363874281 -52.04932198416344 5.81779464526322 2 1 1
55 4 3 0 3.2709302594542664 -58.21121866781112 6.012854927274159 2 1 1
723 71 3 0 5.01363058685732 -38.77504658977075 4.213700935682279 -1 -2 -2
516 50 2 0 53.77543044719227 -68.21834558048018 78.83182032709406 -2 1 -2
54 4 3 0 8.550895254264574 -59.705380910665944 4.196991081584176 2 1 1
70 5 4 0 39.77092620024439 -45.63016140580282 7.294910168283221 2 2 1
69 5 4 0 44.53762690015149 -46.84129116874173 3.8098744336782344 2 2 1
71 5 4 0 36.91864111852858 -41.33645822765029 10.22362758521917 2 2 1
68 5 3 0 49.51747844706772 -49.669794893882745 2.4494221191039913 2 2 1
67 5 4 0 54.76303971477087 -51.8972619692889 4.271845653690494 2 2 1
1029 101 4 0 59.08327156861441 -45.732481668972554 16.443301090593522 -1 0 -3
1030 101 4 0 62.43274022062109 -50.31192030630546 16.60524258185729 -1 0 -3
1031 101 4 0 62.90979425517697 -55.968897780006294 13.877075998482171 -1 0 -3
1028 101 3 0 53.59905884580675 -43.980036124885515 15.227430092980862 -1 0 -3
66 5 2 0 60.390396450835624 -51.69473154191997 6.087769342752599 2 2 1
64 5 3 0 71.22994475010013 -49.110012322633665 6.165192450607899 2 2 1
65 5 3 0 65.71963439322226 -49.70460190694994 5.049820771010229 2 2 1
63 5 3 0 75.5683076244789 -46.314870247722126 8.956205555021022 2 2 1
181 16 4 0 -71.2911101777894 -40.37442998925432 14.486114228650457 1 2 -1
182 16 4 0 -67.37554272705546 -36.396431683723684 15.411919941156645 1 2 -1
876 86 2 0 -79.57882751233073 -30.794365436367737 16.06117594194983 2 2 -3
183 17 3 0 -79.15254568185861 -17.636616904297107 2.686066706779617 0 1 -1
1024 101 3 0 37.307309176694595 -32.07423676417641 4.540898500152175 -1 0 -3
72 5 4 0 36.63268683399998 -39.43839890904752 16.045244872200083 2 2 1
1025 101 3 0 42.86364139161088 -33.990350730992795 5.563755619256876 -1 0 -3
1023 101 3 0 32.01523820330123 -31.026986929345632 2.0814271793015324 -1 0 -3
1027 101 4 0 49.36894452227354 -40.37771957808722 13.217821813135703 -1 0 -3
1026 101 2 0 46.59442196468935 -37.69612964367675 8.69320930999574 -1 0 -3
877 86 4 0 74.81896974420079 -30.169816708935713 13.921628601850564 1 2 -3
878 86 3 0 70.8212917562762 -25.857731722547875 13.107666241071797 1 2 -3
879 86 4 0 71.79042459577914 -20.306508811239965 12.790102290337742 1 2 -3
184 17 3 0 -75.83333176825141 -18.4157020990103 7.077250408889676 0 1 -1
185 17 3 0 -75.16217439913352 -17.613002054621806 12.950245930025726 0 1 -1
800 78 4 0 -75.63794520319576 -6.057174938081805 19.806960098893384 -2 -1 0
801 78 4 0 -75.28416752421019 -6.878960810938837 13.637979026122537 -2 -1 0
802 78 4 0 -75.90023458690172 -4.531199767568561 8.55477744378657 -2 -1 0
186 17 2 0 -78.54556839715299 -17.73224409978157 17.63650324116592 0 1 -1
377 36 4 0 -29.25793803758127 -9.073297957151883 16.567553092551655 0 2 -1
378 36 3 0 -29.908830308192538 -12.718791813926405 21.213479365347446 0 2 -1
376 36 2 0 -27.573881053226952 -7.546975258446141 11.556735597508249 0 2 -1
375 36 3 0 -23.695007122332953 -4.058987293731184 8.89927939465916 0 2 -1
1016 100 2 0 -16.99870286738475 -13.548075146160402 16.181307063658615 -2 -2 1
1017 100 4 0 -14.330343902470194 -11.190025649216143 10.88855414897039 -2 -2 1
374 36 3 0 -18.0073320133155 -1.6179979112175176 9.088526053596828 0 2 -1
1018 100 3 0 -9.017985974242656 -9.302299276680191 8.43696649509629 -2 -2 1
1019 100 4 0 -3.5625701346984755 -12.522952731709156 7.731468045563822 -2 -2 1
1020 100 4 0 2.497339819174593 -12.89337800956911 8.391841681533421 -2 -2 1
1021 100 4 0 7.145000963725014 -15.487937498284397 10.916971061595461 -2 -2 1
1022 100 4 0 12.236704033279143 -17.800037275493608 10.423661134658122 -2 -2 1
470 45 4 0 20.06254255193186 -1.874398921548731 18.11283993887432 1 1 -2
363 35 3 0 36.860746816538864 -2.3125004185504587 50.51792332155874 0 2 -4
317 30 4 0 38.57178426315747 -3.9153825404151292 16.353975154277638 -1 -1 2
612 59 4 0 -45.13611966612317 -2.7094660064824243 7.253656129859716 -2 0 2
316 30 2 0 36.119355025782 -7.63369032572824 20.384650481035496 -1 -1 2
116 10 2 0 55.333903386737106 -9.146207121513836 75.60481477027649 2 0 -3
882 86 4 0 70.16089452016688 -4.864941588906856 15.68809685125795 1 2 -3
880 86 4 0 71.26914683559426 -14.745596166948674 11.17169067088995 1 2 -3
881 86 4 0 72.74166430924403 -9.4642057351386 13.592062272990956 1 2 -3
902 88 4 0 -72.40463822022618 -67.62562063859006 25.727994425834098 1 2 -1
900 88 4 0 -69.15206766393239 -78.33456809280922 28.682303307237827 1 2 -1
901 88 4 0 -71.67773411791565 -73.55527493207362 25.971634598171672 1 2 -1
287 27 4 0 -53.112078217675126 -79.92014057567235 28.120528683120003 1 -2 0
288 27 3 0 -56.062124318787376 -76.21383482631263 31.812375158147805 1 -2 0
289 27 4 0 -57.007367442568466 -75.97862842342155 37.76415814569533 1 -2 0
960 94 4 0 16.052659399403765 -1.3333988534819294 43.832814678749244 1 -1 1
444 43 3 0 -10.965026882387985 -70.87390760606095 19.22164265090909 1 0 1
443 43 3 0 -14.242917212287916 -70.77185357307926 24.369303914869334 1 0 1
172 15 4 0 19.712977483534406 -60.838528340072656 23.487235623810214 -1 4 1
171 15 4 0 14.421199825716558 -61.968457165881354 25.885307842530686 -1 4 1
170 15 4 0 11.373951024471515 -67.1212956917243 25.64520295993931 -1 4 1
169 15 4 0 11.777365639525296 -73.0775948114495 25.835756208109036 -1 4 1
256 24 2 0 19.23873315139215 -69.55224459609954 36.7436831251212 2 -2 -1
168 15 3 0 14.793649571920776 -78.16045981930912 26.838661543874775 -1 4 1
255 24 3 0 22.77038253459342 -68.27830475188267 31.983214770860705 2 -2 -1
254 24 3 0 26.404125569113035 -70.882564125576 28.135572497150683 2 -2 -1
253 24 3 0 30.610757743074412 -74.16797038524803 26.061496528485257 2 -2 -1
1008 99 3 0 -73.24688980469962 -56.42809199660151 38.00704649761378 0 1 -3
1007 99 4 0 -75.1739889841886 -57.20191443087636 32.77511926133106 0 1 -3
344 33 3 0 -71.37261895077945 -45.857962005854915 37.666430555025656 2 0 0
1006 99 2 0 -78.5378100809904 -55.917327227568556 28.189709639046946 0 1 -3
345 33 3 0 -76.58569260828862 -43.269690854881645 35.670981812546295 2 0 0
343 33 3 0 -66.83328850604703 -49.337576387328355 35.823593864624165 2 0 0
972 95 4 0 -10.286039970801012 -43.54256114322058 38.70465536695225 -1 -1 2
971 95 4 0 -9.027364662057902 -48.68540464596012 40.93798276883446 -1 -1 2
179 16 4 0 77.92393149423737 -43.525315091457465 19.28974492918588 0 2 -1
1005 99 3 0 -79.46219878177243 -56.15286768964295 22.158164111432214 0 1 -3
175 16 3 0 72.25538410366852 -55.02968620162668 37.84157752205318 0 2 -1
178 16 3 0 75.89646127796104 -45.29466921718534 24.991898868018325 0 2 -1
177 16 4 0 72.61855480250152 -47.832593303296704 28.924885034851393 0 2 -1
176 16 2 0 73.2346477214211 -51.876549156803335 33.307053461952364 0 2 -1
346 33 2 0 77.8807403114893 -42.63611682335615 37.87358891796369 1 0 0
875 86 3 0 -77.28626519431276 -30.882191727037853 21.54378800141743 2 2 -3
874 86 3 0 -72.13923947396256 -31.144573960326795 24.304053372792467 2 2 -3
873 86 3 0 -68.97031432454487 -32.707801394583974 28.65327355846323 2 2 -3
190 17 4 0 -75.31813495640756 -27.318552625600624 36.670320703671 0 1 -1
189 17 4 0 -79.486401698574 -25.455021964503963 32.82090654515249 0 1 -1
188 17 3 0 79.55255010952351 -23.721296064611302 27.680305143432616 -1 1 -1
187 17 4 0 -79.83881299785911 -19.307558551030805 23.303495315619422 0 1 -1
92 7 4 0 -41.329309059676994 -31.264643093096097 29.827651299379077 -1 -4 -3
91 7 4 0 -36.67019618695495 -34.28122675697171 32.233687999988256 -1 -4 -3
90 7 4 0 -33.93436453423261 -33.82362177099974 37.5947706187539 -1 -4 -3
380 36 4 0 -25.598116694118833 -20.562558949304783 26.05951486398771 0 2 -1
89 7 4 0 -29.854389595130122 -33.54202036947436 42.00859240900023 -1 -4 -3
382 36 4 0 -18.19215168635223 -26.960654823243495 29.66637398293097 0 2 -1
381 36 4 0 -23.51166773100233 -25.333877731803447 27.869851120320902 0 2 -1
503 49 3 0 -5.048520389931166 -33.52577192857186 40.81013167556102 1 1 1
797 78 4 0 -75.40677548384272 -3.153089115739853 34.403204102843624 -2 -1 0
798 78 3 0 -78.65048955506414 -5.0520903774208366 29.838526100906964 -2 -1 0
796 78 2 0 -71.23666405932698 -4.580824987987851 38.190168700496805 -2 -1 0
379 36 4 0 -26.73558783952503 -14.801524180618404 26.107825022481574 0 2 -1
1015 100 3 0 -16.83921731981104 -12.367468390236613 21.9599010712213 -2 -2 1