LAMMPS data file via write_data, version 29 Aug 2024, timestep = 105000000, units = real

732 atoms
4 atom types
631 bonds
1 bond types
530 angles
1 angle types

-80 80 xlo xhi
-80 80 ylo yhi
-80 80 zlo zhi

Masses

1 329.2
2 305.2
3 345.2
4 306.2

Bond Coeffs # harmonic

1 7.5 5.9

Angle Coeffs # harmonic

1 5 150

Atoms # full

156 19 4 0 -37.499362379815516 -9.954855962377174 -13.042923344483093 1 2 -3
157 19 3 0 -38.82776830873505 -4.383902410858933 -10.752590853786534 1 2 -3
477 65 2 0 18.19064216894389 -78.35172422332441 -75.89757720361537 -3 -3 0
155 19 2 0 -40.91961800889883 -14.316268507876302 -15.171527192480692 1 2 -3
475 65 3 0 27.868152190504986 -77.1732964324579 -71.65484744390932 -3 -3 0
474 65 3 0 32.98627233946461 -77.30816844377217 -68.89011179677792 -3 -3 0
687 95 2 0 -48.757817497982884 -49.971493750005656 -58.71254281059141 0 3 2
688 95 4 0 -49.921615769488724 -43.94639345303373 -59.13787142324754 0 3 2
420 57 3 0 79.7790101331834 -38.077037650613065 -78.13197861270656 -1 -2 2
369 50 3 0 65.57137035590074 -44.897638065523886 -63.0125763580769 -5 -3 1
423 57 3 0 -77.62361650235465 -37.313979320743954 -61.39698914240578 0 -2 2
422 57 4 0 -79.98285950139044 -39.632336747094776 -66.28293715725832 0 -2 2
421 57 2 0 -79.32312941138586 -39.42176746778259 -72.49364171842012 0 -2 2
159 20 3 0 13.309603600151975 -39.21612875041006 -61.235267496609666 -1 -2 0
374 50 3 0 69.67885730251562 -24.673119897683616 -78.40750403383446 -5 -3 1
373 50 4 0 73.59489398267014 -27.847647730839522 -74.33917247752228 -5 -3 1
372 50 2 0 72.7040250359244 -30.484896011241617 -69.1875124789894 -5 -3 1
371 50 3 0 68.89777960839825 -34.57492097263962 -67.28396533405117 -5 -3 1
370 50 3 0 67.5459850718064 -39.811610589152416 -64.30513313566387 -5 -3 1
230 30 3 0 -26.030731626537243 -1.0068887157649224 -60.44112729399696 -3 1 1
95 10 4 0 -27.816500641148707 -8.420123379510619 -66.88327624488417 6 -3 -1
94 10 3 0 -22.762816080369348 -10.860958024259803 -65.14733316775104 6 -3 -1
93 10 4 0 -19.82519983690016 -13.586553048044454 -60.43410071776786 6 -3 -1
442 60 2 0 -3.41939007994645 -69.34331996686306 -42.52606036301926 2 -2 -5
441 60 3 0 0.6131541641432247 -72.20486257621991 -45.99330258642415 2 -2 -5
440 60 3 0 1.6825677374623773 -74.42833852278689 -51.15464660831946 2 -2 -5
439 60 3 0 2.0577294632952734 -78.79879033704253 -55.25652631504457 2 -2 -5
431 58 4 0 41.673278692656595 -69.16828007738583 -47.74297422736234 -4 -2 1
430 58 3 0 44.27372075696044 -74.25670607524502 -48.354527184517906 -4 -2 1
429 58 4 0 45.6490833017137 -78.30934678333911 -44.254000022945384 -4 -2 1
665 92 3 0 -76.25241470899181 -49.98731640732809 -41.770075137675846 2 -2 -1
666 92 2 0 -72.33692680552674 -45.70213745639363 -43.04409743713648 2 -2 -1
664 92 3 0 78.5262968061366 -52.41511187997958 -41.89535052504735 1 -2 -1
689 95 3 0 -52.634232647978294 -39.091182467240024 -57.3658499983055 0 3 2
685 95 3 0 -46.257240871235105 -60.37301659841103 -54.352141486735896 0 3 2
686 95 3 0 -48.212522206610366 -55.608402684238975 -57.5138001487203 0 3 2
684 95 3 0 -44.7018567133683 -62.03310393487495 -48.82632918635801 0 3 2
214 27 4 0 26.14209520457278 -56.43193319008944 -58.74000016430951 -3 0 -1
161 20 3 0 15.763131264831197 -40.98084557009313 -49.91877914924447 -1 -2 0
163 20 4 0 17.06007980947687 -48.13903404249144 -42.190546221253555 -1 -2 0
162 20 2 0 18.03415695603347 -45.97278125028044 -47.69418784914043 -1 -2 0
213 27 3 0 25.939298697526493 -53.55363492404421 -53.58480833453941 -3 0 -1
164 20 3 0 13.312179988441304 -52.52413721878006 -41.11588827742013 -1 -2 0
160 20 3 0 14.094194936403577 -39.22615225262378 -55.58256570713622 -1 -2 0
212 27 4 0 29.834689685075872 -54.163389892748896 -48.93267788544091 -3 0 -1
211 27 2 0 33.25946918795348 -58.06753773996482 -46.03306698542315 -3 0 -1
210 27 3 0 35.08515940691421 -59.66626799465471 -40.29810931492245 -3 0 -1
663 92 3 0 74.26151020857586 -56.16423706194176 -40.30440474933071 1 -2 -1
424 57 4 0 -76.07300751362995 -31.643429947166865 -59.18443073034029 0 -2 2
667 92 4 0 -73.50764334003158 -40.57827516892854 -45.86754488156894 2 -2 -1
668 92 3 0 -74.15852457790163 -34.62634948312356 -45.59856970755598 2 -2 -1
669 92 4 0 -70.36371219847742 -30.926796749727295 -43.11799135060249 2 -2 -1
690 95 4 0 -54.85290928710837 -38.480675095432126 -52.06769834480284 0 3 2
235 30 4 0 -24.593354263380537 -26.626259955636005 -49.514265143390546 -3 1 1
234 30 3 0 -27.314167795830524 -21.561697234509715 -47.75786128331116 -3 1 1
231 30 3 0 -27.139710411530068 -6.1130719895526635 -57.25366648825025 -3 1 1
232 30 2 0 -27.48841348081298 -10.668079861656931 -52.72635792085198 -3 1 1
233 30 4 0 -26.612444506483094 -15.711281742792723 -49.56450066224038 -3 1 1
92 10 2 0 -15.94755924151076 -13.648924114421783 -55.914374865560994 6 -3 -1
91 10 3 0 -13.999682890857303 -12.685754377608223 -50.32133588188275 6 -3 -1
90 10 3 0 -12.224657127456036 -9.097052150318559 -46.128361205578955 6 -3 -1
89 10 3 0 -12.459909225410462 -3.936385371628009 -42.82893495770305 6 -3 -1
183 23 2 0 39.90719447784752 -6.284523181223988 -47.947046869945886 1 -3 1
184 23 4 0 39.969845847241096 -11.692433359629174 -45.12242597317694 1 -3 1
185 23 3 0 42.24986803032368 -17.139519656934887 -45.85205584843292 1 -3 1
186 23 4 0 46.68737733178285 -19.814359056501065 -43.80306167879281 1 -3 1
302 40 2 0 50.945064705429495 -4.969937899415804 -47.84041602801451 0 1 1
301 40 3 0 52.527593969269 -6.734609737842928 -42.63446745598887 0 1 1
303 40 4 0 49.73176995961105 -4.678154362427984 -53.470610868020295 0 1 1
452 61 4 0 -64.61643431141115 -73.97775941959492 -22.749776351721692 4 -2 2
443 60 4 0 -4.524001689661574 -69.37708548476374 -37.207143309683524 2 -2 -5
444 60 3 0 -1.9582684864732245 -71.75197173582012 -32.750834319281054 2 -2 -5
445 60 4 0 -1.1047383148837675 -76.6897051930312 -29.569429115396815 2 -2 -5
628 87 3 0 0.3002520578818978 -60.2778701386977 -20.48720430208984 -1 -4 3
208 27 3 0 40.20698120346356 -62.4987123577757 -30.378714932593063 -3 0 -1
209 27 3 0 38.88134796741464 -61.04040995336029 -35.70240481226202 -3 0 -1
58 5 4 0 55.06171457049902 -76.54879831348477 -35.55286980577776 -2 -1 -1
59 5 3 0 54.264351037179885 -76.48067945476683 -29.79597398306041 -2 -1 -1
60 5 4 0 55.511051206963536 -76.70284767900374 -23.836507431913347 -2 -1 -1
294 39 3 0 63.82848830385232 -60.712841966470826 -35.56766414484017 -4 3 -1
292 39 3 0 70.67240723569823 -67.18329767591776 -37.81332822263835 -4 3 -1
293 39 3 0 64.77819560339002 -66.70795256099025 -36.51194815690621 -4 3 -1
165 20 4 0 10.876857656552998 -57.90261075448537 -42.10559525462025 -1 -2 0
296 39 4 0 60.7201904612099 -50.33137205931901 -37.79668210239973 -4 3 -1
297 39 3 0 61.1212487914897 -44.74647282437889 -36.942209920506706 -4 3 -1
295 39 2 0 60.73888309587327 -55.912614239300765 -36.67239983495406 -4 3 -1
298 39 4 0 58.805778912403674 -42.019272386788664 -32.22987976941148 -4 3 -1
270 35 4 0 -48.76419802002054 -28.518329632639546 -19.844191388082987 2 2 -2
300 40 3 0 49.652033434705714 -10.430162891703274 -39.04151531404245 0 1 1
299 40 3 0 47.96135085735364 -13.804881428477108 -34.43710482038021 0 1 1
451 61 3 0 -62.80134175743729 -73.5687965961572 -17.02254756454156 4 -2 2
449 61 2 0 -65.75732062822054 -74.49772471535479 -5.944354328614772 4 -2 2
450 61 4 0 -65.26841788772269 -72.70166637665965 -11.320835929759724 4 -2 2
448 61 3 0 -68.83531411357046 -75.4510682618004 -1.1744020463934515 4 -2 2
495 68 3 0 -52.230443698086994 -63.58607680236806 -8.421405573940076 -3 -3 0
496 68 3 0 -52.65242701145437 -69.20725595073345 -7.993764204885414 -3 -3 0
497 68 3 0 -51.40231114311646 -74.61574697147299 -9.126641547883018 -3 -3 0
308 41 3 0 -11.850032472954075 -77.19191274682997 -20.42151769834646 4 1 3
309 41 2 0 -12.93809017245705 -71.68871386316805 -22.649063027704848 4 1 3
310 41 4 0 -15.713736252222692 -66.68475535708669 -20.632080449182034 4 1 3
311 41 3 0 -18.153422455014873 -65.30984867662175 -15.4160927339347 4 1 3
312 41 4 0 -18.96417123890922 -59.902722470036046 -13.467830093874666 4 1 3
632 87 4 0 -1.9067011188706753 -79.81732632952246 -11.779181543211013 -1 -4 3
630 87 3 0 -5.016341038190157 -69.19169094486246 -15.157505766665519 -1 -4 3
631 87 2 0 -3.7530138354585234 -74.17770191432524 -12.004787511737412 -1 -4 3
629 87 3 0 -1.7507133159365231 -65.47200816186005 -18.144352539584926 -1 -4 3
360 48 3 0 42.11377992541035 -69.77578005494455 -2.254795271812381 1 2 3
359 48 4 0 45.12216663947966 -65.04613938592041 -4.083096924239376 1 2 3
724 100 3 0 60.64961440317462 -58.610300403209216 -3.340057183389681 1 -3 -2
202 26 3 0 20.705377789342045 -60.02148167645722 -2.3030617862134224 1 1 -1
201 26 3 0 20.350891416461074 -54.55907487137478 -4.5523943212616675 1 1 -1
357 48 3 0 48.98959969041767 -54.436243610005974 -4.945327750189081 1 2 3
358 48 2 0 46.96068303738381 -59.802714401135184 -5.00551019234483 1 2 3
356 48 3 0 52.53461127932158 -50.25263064464344 -3.1703106012361792 1 2 3
498 68 2 0 -50.844748483246654 -79.44294748734602 -11.800772168815712 -3 -3 0
725 100 4 0 65.71304792521138 -57.3910813539986 -5.930027904844934 1 -3 -2
266 35 3 0 -55.10717868324532 -33.077232737416054 -5.963505767353704 2 2 -2
267 35 2 0 -57.91387343102292 -27.94804606458778 -7.6536474342013365 2 2 -2
268 35 4 0 -58.049655897267975 -28.11034105443012 -13.529397076500851 2 2 -2
269 35 3 0 -54.01863665678479 -28.13099672628005 -17.55008109977848 2 2 -2
158 19 4 0 -41.46760127196737 -0.4413077362814832 -14.118053506066307 1 2 -3
255 33 3 0 -2.262237264214512 -27.22029058405447 -1.0501103790335504 -3 -2 2
256 33 4 0 -4.488623539181961 -27.033655512334917 -6.5203044031733395 -3 -2 2
313 42 3 0 16.5260537202293 -29.110212428798167 -10.524456869632166 1 -1 3
314 42 3 0 21.54449198357779 -26.577640159255097 -8.34312964492217 1 -1 3
315 42 3 0 25.802625655104897 -24.053859772536477 -4.9842361857833835 1 -1 3
318 42 3 0 43.25269934540511 -28.599607023360463 -3.6695948206524736 1 -1 3
432 59 3 0 40.02208894728248 -25.028708528661795 -13.832249961327882 -6 4 0
433 59 3 0 37.595692571154416 -30.330164922133967 -14.32019863479573 -6 4 0
434 59 3 0 34.97308415008173 -34.92544879147831 -11.952234201111466 -6 4 0
435 59 2 0 31.363065510181368 -36.35656757523404 -7.752227020194142 -6 4 0
317 42 4 0 37.044158929560034 -28.15939959505648 -2.8531960013405375 1 -1 3
436 59 4 0 28.35528314945 -37.33934466673156 -2.6910583126623857 -6 4 0
316 42 2 0 31.673467527146155 -24.930991850312903 -3.0315353963822873 1 -1 3
319 42 4 0 48.775038841813924 -31.09878286411004 -3.7585757883391544 1 -1 3
152 19 3 0 -57.09531094439356 -16.392524552303946 -10.065542262528123 1 2 -3
153 19 3 0 -51.749215728425504 -16.370300204317125 -12.399020398616711 1 2 -3
154 19 3 0 -46.15981269397805 -16.533446956184658 -14.031932965757347 1 2 -3
375 50 4 0 64.39714392089195 -22.622795034892807 -77.87740937713369 -5 -3 1
304 40 3 0 47.22180067016297 -2.1172511090437163 -58.20544521209833 0 1 1
425 58 3 0 44.52341488993496 -78.11126524353976 -23.91144388442377 -4 -2 1
476 65 3 0 23.274927601719234 -79.93528716786858 -74.0011940900769 -3 -3 0
182 23 3 0 37.52158174776129 -1.0835023284445275 -47.454362262102094 1 -3 1
723 100 4 0 58.07161578238612 -63.93053007530904 -0.986755395321897 1 -3 -2
265 35 3 0 -52.15612375901898 -34.81681707720488 -1.120149049093816 2 2 -2
247 32 4 0 8.168628697783076 -77.38000546617133 23.94411756528257 3 0 -1
204 26 2 0 18.928116596026 -65.26696123200006 7.789168242522445 1 1 -1
203 26 3 0 20.891706593965214 -63.44789351690266 2.611156372109432 1 1 -1
205 26 4 0 19.28995933371369 -69.42621635680449 11.838572600573448 1 1 -1
206 26 3 0 18.966820252403906 -71.9167548034728 16.90677766772916 1 1 -1
703 97 3 0 23.897658561118718 -63.727827847497664 20.29948769456998 -1 0 -2
704 97 4 0 27.54326902017169 -63.081230041826764 15.58360030345645 -1 0 -2
719 100 3 0 41.13493228961009 -62.02660982392786 9.666945089647418 1 -3 -2
460 63 3 0 -23.89801611506559 -9.541768937414446 66.70032477090169 3 -2 -2
361 48 4 0 41.568054737091124 -74.36623986421615 0.7866679475984386 1 2 3
720 100 3 0 45.818680981445794 -64.66655457776717 9.671311435780147 1 -3 -2
721 100 3 0 50.26176578623145 -66.73079072402784 6.373607997162382 1 -3 -2
722 100 2 0 53.58687764784844 -66.06849806642049 1.7705953052807573 1 -3 -2
9 2 2 0 -3.087026106715724 -1.212404460283966 30.980897393218594 -2 -1 0
584 80 3 0 -44.093694361093405 -43.464687670173156 15.856040179066106 -2 1 -2
585 80 4 0 -45.014178417230944 -43.4939838759572 9.880919394389073 -2 1 -2
389 52 4 0 21.868184486651433 -49.083495930333626 13.68098027614664 -1 -3 -4
657 91 3 0 32.497035450654785 -43.867551511364 17.23584103085514 -2 -1 2
388 52 3 0 26.278493293461732 -53.006857361987784 13.223138997700206 -1 -3 -4
387 52 4 0 31.70988617750239 -54.0756455500989 15.323799951888578 -1 -3 -4
386 52 2 0 35.61093207939991 -56.85129661471366 18.461636903615027 -1 -3 -4
264 35 3 0 -47.88473700674073 -36.43175975734349 2.5981870681587327 2 2 -2
583 80 4 0 -41.458431588537074 -39.791872525569396 19.251862765660242 -2 1 -2
253 33 2 0 -3.0780892776975826 -20.51910997931254 7.486514512879055 -3 -2 2
254 33 4 0 -3.5408597637645647 -24.835936000977956 4.044499384219549 -3 -2 2
438 59 4 0 22.743171884945536 -32.56068165561069 5.7979036833848845 -6 4 0
656 91 3 0 37.722965563247485 -45.41088905687658 19.87216226466148 -2 -1 2
464 63 4 0 -41.74118216851407 -0.44723507138477375 66.93965072147824 3 -2 -2
636 88 3 0 -53.557086849448226 -10.114901432123649 19.117347984647388 -4 1 0
635 88 3 0 -50.89548436167375 -15.006260463439231 17.84582775814897 -4 1 0
637 88 3 0 -52.43832706024449 -4.135981526503315 18.76815407110525 -4 1 0
252 33 3 0 0.7528752844388475 -18.345828255031627 11.638501782808222 -3 -2 2
12 2 1 0 -7.161117745931248 -2.7160025884556305 14.957248642393713 -2 -1 0
250 33 3 0 4.782798408650487 -7.878113777323666 14.212257437471878 -3 -2 2
251 33 3 0 3.4419014902882963 -13.790271252956714 13.81031173033307 -3 -2 2
286 38 3 0 -39.37615378854109 -2.0566148256251044 77.55121342408079 -1 -2 -3
468 64 3 0 -77.68879707455996 -79.50459264193508 28.48946431299436 -3 0 -3
275 36 4 0 -63.413794207392016 -59.80183478314252 39.34711783396547 0 -2 0
508 69 4 0 -53.66598764646424 -69.69443267600452 29.988003933376593 1 2 0
507 69 3 0 -55.45015602475655 -64.40079303933297 31.371555198193725 1 2 0
506 69 4 0 -59.29692302442169 -60.80038313251518 28.656296516649896 1 2 0
249 32 4 0 13.458542683757042 -71.56017004495193 32.53570453196925 3 0 -1
248 32 3 0 10.658978872675315 -73.08223874355116 27.51512932808599 3 0 -1
207 26 4 0 19.413666839455676 -74.204138330701 22.20250490749804 1 1 -1
702 97 4 0 20.611943907534577 -62.518021346075415 25.19141939163592 -1 0 -2
662 91 4 0 23.04320604301114 -59.763246636500455 36.14001359818032 -2 -1 2
467 64 3 0 78.39924882869538 -79.71574470298545 32.986038906256205 -4 0 -3
274 36 2 0 -68.83625426745527 -58.003851230046195 39.443038735802816 0 -2 0
273 36 3 0 -73.40950581893892 -54.62771260778253 40.509094301015054 0 -2 0
505 69 2 0 -61.58142099210803 -55.34866282871028 29.997087329752965 1 2 0
504 69 3 0 -58.76500735186309 -51.10093986405452 32.7392386975004 1 2 0
682 94 3 0 -10.769866937778172 -42.15443133267544 39.30983797356381 -2 -6 7
683 94 4 0 -7.360650068036124 -47.143200734096965 39.696277886002186 -2 -6 7
701 97 2 0 16.854595970524215 -58.46533062168249 26.96782201875505 -1 0 -2
700 97 3 0 15.900282937984908 -53.67677216091855 30.270811501658486 -1 0 -2
699 97 3 0 16.043811228863675 -47.332658184787775 31.33091588087539 -1 0 -2
698 97 3 0 20.130743312393424 -44.750920017234364 35.29265328810898 -1 0 -2
659 91 2 0 27.265875554204353 -50.86037079471863 24.006432345440974 -2 -1 2
658 91 3 0 27.56921884726438 -45.83519567710246 20.481705456616293 -2 -1 2
661 91 3 0 25.362294068946227 -57.697565496302644 31.374590437747507 -2 -1 2
660 91 4 0 28.7932210022375 -54.44734093019525 27.841492980684908 -2 -1 2
385 52 3 0 39.638278250121346 -57.199940408492274 22.610181948042772 -1 -3 -4
384 52 3 0 43.78802898055011 -55.02711868123042 26.09644875394063 -1 -3 -4
383 52 3 0 44.26451134101763 -52.264413784113785 31.125653828200605 -1 -3 -4
582 80 2 0 -36.91975397059676 -37.28653350277274 21.67256850226409 -2 1 -2
581 80 3 0 -33.95570404910134 -32.41370933868445 23.508959970853333 -2 1 -2
580 80 3 0 -33.272207980158356 -26.37959319570745 24.516094204566194 -2 1 -2
579 80 3 0 -35.08025223324291 -21.207687610701964 26.18673753315902 -2 1 -2
680 94 2 0 -9.354853351116097 -31.386475598029293 39.71305911136635 -2 -6 7
679 94 3 0 -4.705855052967357 -27.549829959466386 38.964525809141094 -2 -6 7
678 94 3 0 -0.44959235732572367 -26.618259475601068 34.67582356830155 -2 -6 7
677 94 3 0 5.1853235833304385 -26.847052515747688 32.55781064080776 -2 -6 7
515 70 4 0 1.9954115211795345 -35.54976659770038 41.402014996937424 0 -3 -2
45 3 3 0 60.21702664296854 -23.274979966318565 41.61995603115242 -2 -2 0
621 86 3 0 -7.136403857264411 -14.045297679016906 21.214366388307237 1 0 3
11 2 3 0 -4.056556288376781 -4.221703781286989 20.231176320128355 -2 -1 0
10 2 4 0 -2.277601327524957 -4.122817245811551 25.90271337452928 -2 -1 0
622 86 3 0 -2.3651397127990714 -16.285175259670282 23.643295468135808 1 0 3
623 86 3 0 1.3036460982833373 -13.89771013831841 27.992207188388292 1 0 3
624 86 2 0 4.814604284456667 -12.61948756588142 32.610558631542524 1 0 3
289 38 4 0 -42.0466929359684 -15.013388603573585 68.62989046889491 -1 -2 -3
625 86 4 0 7.291009730166292 -15.989094128657857 37.41697187189334 1 0 3
627 86 4 0 16.716314165888313 -22.459844795664694 39.76415158676611 1 0 3
46 3 4 0 57.62301395596316 -17.93175589161347 41.26281824702361 -2 -2 0
277 36 4 0 -52.88206645737005 -60.976305868810336 44.419765183784804 0 -2 0
276 36 3 0 -58.64585794530526 -60.68322776004601 42.65989292029544 0 -2 0
457 62 4 0 44.08108133253736 -61.35765191910083 59.86529087396568 -3 1 1
456 62 2 0 48.12729534831661 -60.19074234405073 55.06959888781104 -3 1 1
455 62 3 0 49.10962441688143 -60.06324630055485 49.195487693581704 -3 1 1
272 36 3 0 -76.5535303825794 -50.19977131687806 43.20840336877064 0 -2 0
271 36 3 0 77.60065423853798 -48.78927876113022 42.63448132793844 -1 -2 0
503 69 3 0 -56.80563721708342 -48.116623196347305 37.28879909271899 1 2 0
502 69 3 0 -54.40458210075075 -48.235832771986814 42.57720858982079 1 2 0
532 73 3 0 -41.45089563589912 -44.58982988585828 56.56844209495553 -4 -2 -1
531 73 3 0 -39.51340887762715 -50.404460422562174 55.67947468195251 -4 -2 -1
530 73 3 0 -37.57596703350101 -55.77310963019811 56.75828506336991 -4 -2 -1
533 73 2 0 -47.02439381474262 -42.71215963274959 56.0273205866373 -4 -2 -1
510 70 3 0 -14.007106857282157 -47.12716595967118 49.34833352763634 0 -3 -2
509 70 3 0 -19.120803934542877 -45.64081465854373 48.45784311917191 0 -3 -2
511 70 3 0 -9.113781208539946 -46.328716112180075 52.63832056024283 0 -3 -2
512 70 2 0 -3.3422245190480684 -45.23652128109006 52.477113390453695 0 -3 -2
513 70 4 0 -0.1446789293104513 -43.37745435007749 47.747273563318345 0 -3 -2
68 7 3 0 31.182088292867338 -41.66359943639731 56.80573627160354 -1 -1 -1
88 9 4 0 40.09091365084458 -46.46865359294229 43.61689122121352 -1 -2 2
454 62 3 0 50.99334432174117 -57.939083474957016 44.31648596300988 -3 1 1
453 62 3 0 56.05928713350737 -55.157039966081825 42.9514225885147 -3 1 1
87 9 3 0 45.76256184874003 -44.66213017926158 44.72833769868332 -1 -2 2
342 46 3 0 72.40055223507967 -41.147569399461275 54.64576702945498 -4 0 -1
343 46 3 0 72.03619115240298 -40.69121950818821 48.83557949283991 -4 0 -1
534 73 4 0 -52.08245366716897 -41.95721620266794 53.51298567085281 -4 -2 -1
535 73 3 0 -55.77107975605063 -37.570548477612476 55.10715592550325 -4 -2 -1
681 94 4 0 -12.419669870257048 -36.19936378531777 39.51839001887619 -2 -6 7
514 70 3 0 -0.2569847980396079 -40.86146585369369 42.44011284550731 0 -3 -2
138 17 3 0 0.09020436565318962 -20.69494592205557 46.63230912572464 -2 -4 -2
69 7 3 0 35.51009381711631 -37.995287554703154 54.8163498274736 -1 -1 -1
70 7 3 0 41.359149956859795 -38.39264747366879 56.028276016023995 -1 -1 -1
71 7 2 0 45.54777363645224 -34.76368769841003 54.47775284968855 -1 -1 -1
44 3 4 0 59.48581899385861 -28.867871203530765 43.1382924618359 -2 -2 0
83 9 3 0 45.359129980659134 -23.38028605999558 46.20141631781643 -1 -2 2
86 9 4 0 48.50401178344884 -39.7398095914918 44.63346826956084 -1 -2 2
84 9 3 0 46.300532479030956 -29.1374878366244 44.62737767743852 -1 -2 2
85 9 2 0 48.90188756544653 -34.33250871983924 44.878824417949026 -1 -2 2
43 3 2 0 59.00338584424031 -32.821664406659494 47.349181456534566 -2 -2 0
73 7 3 0 49.03349666845932 -23.92205560165184 56.70949175061666 -1 -1 -1
72 7 4 0 48.09492182700706 -29.372153745360407 54.37536716376875 -1 -1 -1
42 3 3 0 59.051350392020524 -34.80655218646541 52.9306146899153 -2 -2 0
341 46 3 0 75.46683421500818 -37.93735477227989 58.718326029551235 -4 0 -1
41 3 3 0 63.0451850935881 -35.640456437399756 57.4984312516035 -2 -2 0
346 46 3 0 66.62104196679411 -27.428538878227002 50.524750344980845 -4 0 -1
345 46 4 0 68.30552752743668 -30.940586922429006 45.98191951171575 -4 0 -1
344 46 2 0 70.79129014340906 -36.23053313127272 45.8821024251507 -4 0 -1
347 46 4 0 69.03110112532617 -23.070758457527763 53.312626881560234 -4 0 -1
75 8 3 0 -51.20031056339834 -15.959960791593266 59.22638441155399 2 1 0
77 8 3 0 -57.80959336089895 -6.551377513244746 58.52492596182867 2 1 0
76 8 3 0 -52.924392009578696 -10.240007145716653 58.71680669223522 2 1 0
78 8 2 0 -59.49233957836168 -0.9947027769986654 57.26257707106201 2 1 0
291 38 4 0 -37.812171340013045 -15.76439435893371 57.847903325951016 -1 -2 -3
718 99 4 0 -14.465807572209249 -10.608591566488439 46.202407051668324 5 4 -5
717 99 3 0 -9.790145739115172 -10.179889926417259 49.85295582533984 5 4 -5
461 63 3 0 -29.52316434520209 -10.276438216425285 65.96505278923432 3 -2 -2
714 99 3 0 3.593878432810717 -6.361011471723366 59.75634715739534 5 4 -5
715 99 2 0 -1.3812349682621026 -8.330136614714053 57.38626007451293 5 4 -5
716 99 4 0 -6.734388321637497 -7.702956349036793 54.39383981683717 5 4 -5
139 17 3 0 0.2987288022536695 -15.18956194706378 45.412239244877874 -2 -4 -2
140 17 3 0 -0.17313158304435702 -9.920317921331847 43.48158207035492 -2 -4 -2
141 17 2 0 1.088375036607045 -4.523452030878519 46.34979094655061 -2 -4 -2
713 99 3 0 9.001425762762443 -3.9707591498458115 57.757640271925574 5 4 -5
626 86 3 0 12.74292255246187 -17.668168836370725 39.5007358687312 1 0 3
172 21 4 0 28.044474426610112 -5.12923629570192 57.10272732319964 0 -1 2
355 48 3 0 54.72071504043918 -45.851842085268764 0.14359625734844136 1 2 3
171 21 3 0 32.27137735712155 -1.346781260273063 56.038228178827474 0 -1 2
82 9 3 0 48.810853395045505 -19.05941367044993 48.53906244991033 -1 -2 2
74 7 4 0 47.86644999401727 -18.584625099402754 59.24258884195498 -1 -1 -1
67 6 4 0 -49.90183025532153 -73.53902630901604 78.87746628426713 4 -3 1
66 6 3 0 -46.52675434270231 -69.25039000762547 78.96545551570003 4 -3 1
65 6 4 0 -42.650282157774676 -65.5254045851181 76.34897744960054 4 -3 1
64 6 2 0 -41.99531173412402 -60.37554014888521 73.88224604938054 4 -3 1
416 56 3 0 23.558648947450138 -75.77112387368811 73.9105285215856 2 -1 -3
417 56 4 0 25.16800563329678 -71.03091721655626 70.72773855668906 2 -1 -3
458 62 3 0 46.49088219798001 -62.31739180448527 65.04085659801106 -3 1 1
459 62 4 0 49.374632082484446 -66.06385651174949 68.45388649462113 -3 1 1
63 6 3 0 -37.42631645577753 -57.21444939455055 72.4382421105142 4 -3 1
62 6 3 0 -33.69989634874052 -54.2085124557606 75.21865827815398 4 -3 1
61 6 3 0 -30.960315848913933 -50.46152942344948 78.74407567567786 4 -3 1
596 82 2 0 -19.519311820130657 -41.3602031889094 72.92824683538966 0 1 0
595 82 3 0 -21.27932875396103 -40.22162658650509 67.21744366731859 0 1 0
418 57 3 0 70.04365075502048 -42.4322641405487 79.35503749777925 -1 -2 1
536 73 4 0 -58.002916575636185 -34.25527285609581 59.32832673206348 -4 -2 -1
593 82 3 0 -16.45895554442509 -33.464826359705775 59.693418215109126 0 1 0
599 82 4 0 -17.75189138092733 -26.824662894848068 73.89711894457189 0 1 0
594 82 3 0 -20.71438478835758 -35.75194747791583 63.27039706239682 0 1 0
598 82 3 0 -20.222769447704124 -31.266719231134996 77.10630261033057 0 1 0
597 82 4 0 -19.551073541812205 -36.96663815908752 76.97303107511246 0 1 0
419 57 3 0 74.19773103593569 -38.22021378019171 79.62508960449291 -1 -2 1
40 3 3 0 65.20010146974393 -39.11423296404013 62.0310928579591 -2 -2 0
564 77 4 0 -63.40043511528115 -78.4208684439133 7.154087923908602 -3 2 2
462 63 3 0 -33.15466486653233 -6.43321968986393 63.66514177613073 3 -2 -2
466 63 4 0 -51.0923765800136 -3.706178250794953 66.75906881020178 3 -2 -2
463 63 2 0 -38.96660124287931 -4.930291948712846 64.0504385621902 3 -2 -2
290 38 3 0 -39.008225633417446 -15.237094218633406 63.45081534099657 -1 -2 -3
287 38 3 0 -40.78964582518319 -7.884103305330152 77.81469376381389 -1 -2 -3
288 38 2 0 -42.20984858291839 -11.158854392319675 73.06227032655242 -1 -2 -3
403 54 4 0 -42.62673396969786 -0.286068297422418 14.093812176832602 3 3 -3
437 59 3 0 25.46236006982764 -33.489629508351136 0.568672073455011 -6 4 0
447 61 3 0 -72.75040952863061 -78.31781663395849 2.492707829442407 4 -2 2
101 11 3 0 -72.23919761692801 21.56662103501319 -67.9085466042622 3 -1 0
102 11 4 0 -68.53133935851993 17.248155764413728 -67.28632415689249 3 -1 0
524 72 3 0 -20.126424720105792 6.9584126621507245 -77.25816581919052 -4 -1 1
523 72 3 0 -19.610963456513204 10.400668689107546 -72.69567470691797 -4 -1 1
229 30 3 0 -22.42989861086378 3.248440387812704 -61.43584500976079 -3 1 1
379 51 2 0 8.286606716477543 18.187044922471962 -76.18722045241323 0 -1 4
178 22 3 0 73.82753822513762 13.351623816541673 -64.02853049359464 -1 2 -3
177 22 4 0 72.79995769463788 14.40441694899253 -69.64902723508958 -1 2 -3
176 22 2 0 73.57880728480157 18.95035451765749 -73.15503519376496 -1 2 -3
195 25 3 0 68.59181391429041 8.190935703970467 -78.54304882210089 -1 5 1
194 25 3 0 70.34912576825268 3.971327681259635 -74.68852774759392 -1 5 1
100 11 4 0 -76.07190189266957 25.012953838312274 -64.87252537868926 3 -1 0
99 11 2 0 78.30922934698184 25.11254680688451 -62.89089597543991 2 -1 0
173 22 3 0 79.01245433842766 35.39622127903736 -75.97473677434172 -1 2 -3
174 22 3 0 77.25348763874327 29.481218097663177 -75.79285989119268 -1 2 -3
137 16 4 0 -32.97070763669906 24.536900111162506 -78.07933140873908 2 -1 2
111 13 3 0 -31.190900672415367 25.447087955775938 -62.46938744530094 0 -3 3
110 13 3 0 -31.560533483625054 22.076455531792273 -67.32382627886129 0 -3 3
136 16 3 0 -27.16703939867334 25.785451839974254 -79.22184882883214 2 -1 2
377 51 3 0 -1.8098765805323975 23.378136184438446 -78.60337434496441 0 -1 4
378 51 3 0 3.8323051657418907 22.331455401020204 -77.31096428143348 0 -1 4
376 51 3 0 -6.014567259080646 28.32410893008615 -79.19037857772295 0 -1 4
648 89 4 0 54.36773321128452 22.296264985611085 -78.00542101101829 -2 1 2
98 11 3 0 73.12606991507118 24.68441399806796 -60.289289069831504 2 -1 0
175 22 3 0 76.2755803218054 23.462201073037292 -76.38698598363924 -1 2 -3
97 11 3 0 67.29870578814003 23.70499471799467 -61.71239833075517 2 -1 0
96 11 3 0 61.439048961413356 23.70883304776117 -60.53652445709984 2 -1 0
260 34 2 0 -36.39441837230519 45.29031614467854 -59.79132252517083 -2 -3 1
261 34 4 0 -31.289615634218183 46.52938383231396 -63.07853512757119 -2 -3 1
227 29 3 0 -28.256057727409907 60.047420708122495 -59.05270699606225 0 -2 2
262 34 3 0 -25.906419239931175 48.501968325767315 -62.19675976558046 -2 -3 1
549 75 3 0 -1.5226607278419406 46.893070408608395 -59.869668258964964 3 3 -2
550 75 4 0 -3.550010920936129 47.75418523223304 -64.94375739941671 3 3 -2
328 44 3 0 55.11484334114328 51.906786394397166 -73.66283476826526 -1 -5 0
329 44 3 0 58.14011175890959 57.132376553015035 -73.31332966709783 -1 -5 0
327 44 3 0 52.249857968312554 46.493460654417696 -73.00830732440527 -1 -5 0
192 24 3 0 55.20288239486142 52.265398983757414 -61.67556085329417 1 0 1
191 24 4 0 60.07268938913305 56.32977892039059 -62.02480365139862 1 0 1
193 24 4 0 50.409503154945206 49.45892172274229 -59.848903609973505 1 0 1
187 24 3 0 79.05024092227868 47.65698372226168 -61.109712118329426 1 0 1
188 24 3 0 75.93340603329591 50.09449240397871 -64.899960806422 1 0 1
189 24 3 0 70.27673014790068 52.17022835087382 -64.93965869379544 1 0 1
190 24 2 0 66.07873786538366 55.314565173075515 -62.212005837266766 1 0 1
330 44 2 0 63.13377776162237 59.87562223458773 -74.12726523611316 -1 -5 0
331 44 4 0 68.94847374573501 60.19301104287252 -74.83173408853925 -1 -5 0
228 29 4 0 -25.149599665274536 61.209177806853404 -63.59095260499293 0 -2 2
707 98 3 0 -12.55968852455463 63.97400519092204 -59.13435919947584 0 -5 -2
706 98 3 0 -7.0579751414697265 63.694003253753195 -60.66654339017806 0 -5 -2
705 98 3 0 -1.4233664940358408 64.36700877823502 -62.10125767735123 0 -5 -2
411 56 3 0 10.873084891068103 60.88045595121768 -76.35949377927284 2 -2 -2
412 56 3 0 12.60549844725499 66.34838549284059 -78.28814262776118 2 -2 -2
633 87 3 0 1.182135284349951 75.79753014286324 -14.666545809357808 -1 -5 3
333 44 4 0 79.97415270098412 62.20690674398808 -74.75657131561975 -1 -5 0
332 44 3 0 74.2779352009686 61.48949567273848 -72.59214584133566 -1 -5 0
196 25 3 0 63.432848218831865 10.93638977929782 -79.76923143295083 -1 5 1
180 23 3 0 42.355675793027196 8.476217698381761 -45.73425623038034 1 -3 1
181 23 3 0 39.41683711143149 3.643008891323909 -44.65409587872996 1 -3 1
305 40 4 0 47.718499722832206 1.8633885341675074 -62.755676058196464 0 1 1
634 87 4 0 3.430110749469179 70.54793658224443 -15.705696736715444 -1 -5 3
179 22 4 0 76.68484258163184 12.167385642437686 -58.85337039565746 -1 2 -3
257 34 3 0 -47.9425832602775 36.05191586794202 -54.5849418360658 -2 -3 1
113 13 2 0 -33.36113181768337 34.73828213296989 -54.6118185201587 0 -3 3
112 13 3 0 -33.30977344459789 30.28719524870366 -58.85360811136957 0 -3 3
114 13 4 0 -35.984309631833945 39.45839305361174 -52.216500123556834 0 -3 3
258 34 3 0 -45.501088030958925 40.941363692896786 -56.74498348399969 -2 -3 1