LAMMPS data file via write_data, version 29 Aug 2024, timestep = 105000000, units = real

1032 atoms
4 atom types
931 bonds
1 bond types
830 angles
1 angle types

-80 80 xlo xhi
-80 80 ylo yhi
-80 80 zlo zhi

Masses

1 329.2
2 305.2
3 345.2
4 306.2

Bond Coeffs # harmonic

1 7.5 5.9

Angle Coeffs # harmonic

1 5 150

Atoms # full

418 40 3 0 -79.02270128053614 -74.50773369694541 -69.88182589118965 0 0 -1
419 40 1 0 -77.48558894020671 -69.40799372448858 -67.33680823613794 0 0 -1
420 40 1 0 -75.86556262421726 -63.59848483401776 -67.01419006686511 0 0 -1
421 40 1 0 -75.71154414225481 -58.086284969779314 -68.82697741771156 0 0 -1
577 56 3 0 -61.803448173917985 -65.65398409056432 -79.5825747371034 0 2 3
578 56 3 0 -60.97210760062386 -67.25618784110426 -73.68064444941646 0 2 3
579 56 1 0 -59.974455198128794 -65.33436655205314 -68.16312677736603 0 2 3
580 56 1 0 -60.802595655382646 -65.51435558289886 -62.08865091302 0 2 3
327 31 3 0 63.4561819885413 -67.03046790527077 -60.68730077938398 -2 2 -2
326 31 1 0 57.746762585288685 -67.09635478984733 -59.02302640318212 -2 2 -2
328 31 3 0 68.21071230967114 -64.1494465974964 -62.727388194996074 -2 2 -2
422 40 1 0 -72.47341582520826 -53.95043768588745 -71.8511003095597 0 0 -1
921 90 1 0 -41.35621560786537 -40.495294440110044 -74.44280347335925 -5 -1 -2
922 90 1 0 -42.452738060743144 -45.618022517857405 -76.80635979464758 -5 -1 -2
45 3 3 0 15.25195172569582 -46.35870767546149 -64.87070494002667 3 0 3
46 3 1 0 16.903301934263116 -44.38563720872508 -70.10673981810191 3 0 3
44 3 3 0 16.136463202470537 -47.90401613339476 -59.31884804664124 3 0 3
47 3 3 0 21.63801578199561 -41.85631448331738 -73.53932735543171 3 0 3
818 80 3 0 60.49760831778001 -53.70510232579495 -77.76141356852264 0 2 0
819 80 1 0 54.578264637464514 -55.37207329561602 -78.75517544758763 0 2 0
329 31 1 0 68.0011228585482 -60.3891143247819 -67.23894876484678 -2 2 -2
816 80 1 0 63.81009786448567 -42.594227993054616 -79.84751547350221 0 2 0
817 80 3 0 62.68973131007995 -48.155240491234586 -77.87271327102205 0 2 0
332 31 1 0 75.38519829612322 -46.11829793886526 -69.45981527578235 -2 2 -2
330 31 1 0 67.57125571132538 -54.746908472538244 -67.86090023398776 -2 2 -2
331 31 1 0 71.14824229718047 -49.899889443708595 -67.771081695546 -2 2 -2
920 90 1 0 -38.90486350093905 -36.20131073645091 -70.47532863326484 -5 -1 -2
919 90 1 0 -33.452577776788644 -33.993080726854025 -69.93642066702907 -5 -1 -2
918 90 3 0 -28.772379291234845 -36.581409172220745 -68.37096630429522 -5 -1 -2
917 90 3 0 -24.087289604155004 -40.28352951222484 -70.38546886991344 -5 -1 -2
916 90 1 0 -18.513986034574906 -40.13302548097722 -72.28836607407685 -5 -1 -2
915 90 3 0 -13.441022491987011 -37.33992894621612 -72.82661122831351 -5 -1 -2
914 90 3 0 -7.647989776036136 -37.001951348492256 -71.45775928135359 -5 -1 -2
913 90 3 0 -3.1209395784122793 -40.008292497899596 -73.81406083079062 -5 -1 -2
48 3 3 0 23.436181911989856 -37.43800973053001 -77.11074578932235 3 0 3
243 23 3 0 41.82700729524304 -35.20558076432316 -60.98945326629119 1 1 1
244 23 3 0 37.003767291136214 -31.376812350091793 -61.0315252281896 1 1 1
841 82 1 0 51.70585884865571 -27.316012937409614 -68.01101251722245 -6 1 2
842 82 1 0 50.61669648246034 -29.483900050439473 -62.76658233518848 -6 1 2
840 82 1 0 51.03370859246958 -22.084596234489332 -70.60902295602409 -6 1 2
668 65 3 0 -10.406735557172876 -1.5282263469726767 -4.990123554114547 0 1 -4
654 64 3 0 69.35298751131398 -1.4783946426430763 -17.65465259341318 -3 -2 1
733 72 3 0 -72.60042942284426 -7.363258263911108 -68.90450461728639 -1 -2 -2
734 72 3 0 -70.90909149635536 -1.4920358968644356 -68.90540184944572 -1 -2 -2
251 23 1 0 24.696253345637405 -12.797850441611626 -76.9795135021486 1 1 1
250 23 1 0 21.24567557840941 -10.597984356320453 -72.67936601182777 1 1 1
249 23 1 0 23.257236314209205 -9.651187920467214 -67.1385106783591 1 1 1
248 23 3 0 28.018750127016013 -11.468919893814851 -63.920212971398925 1 1 1
247 23 3 0 31.9769936333283 -15.86997246721775 -63.42643234692012 1 1 1
838 82 3 0 42.95209763169018 -18.88004268879297 -77.05092526333787 -6 1 2
839 82 1 0 45.43747247099321 -19.33410220764706 -71.74388146157578 -6 1 2
607 59 3 0 58.190424999065414 -0.09300557389002724 -56.033006185300714 1 1 3
311 29 1 0 65.43439456371505 -4.457721668742031 -78.53337998818637 0 0 -2
113 10 3 0 78.30858347839263 -79.13996770536193 -57.45706644469436 -1 3 1
117 10 3 0 -78.32019046920367 -68.66962889538625 -41.61450288466321 0 3 1
582 56 1 0 -67.93987331407007 -71.0914176877221 -55.18769860162473 0 2 3
119 10 1 0 -67.48592272524179 -66.83063510415957 -43.455831340646895 0 3 1
581 56 1 0 -63.72232066957535 -67.8746859208347 -57.589326996285536 0 2 3
118 10 3 0 -72.25450906693433 -69.041032876783 -41.92123987528467 0 3 1
93 8 3 0 -53.05174807053319 -74.11542219508144 -43.59230560428753 2 1 1
120 10 1 0 -61.328356733289 -67.15780948068932 -44.70633426546955 0 3 1
121 10 1 0 -56.214177084126554 -64.34877162402364 -43.7904807523079 0 3 1
862 84 1 0 -28.67360507158953 -75.97323524620995 -47.770431866150794 -1 4 3
655 64 3 0 69.34202774587712 -4.770024938793893 -12.819601507466865 -3 -2 1
861 84 1 0 -25.48956456481107 -75.85983406923273 -42.50093371631115 -1 4 3
929 91 1 0 -22.08575618425429 -54.552290130070666 -48.51834743978629 -1 3 -2
930 91 1 0 -20.13433764245326 -53.98905945889066 -54.16383130418098 -1 3 -2
974 96 3 0 3.899825899756253 -75.34971809030395 -43.34339446580824 2 2 3
973 96 3 0 4.464978105929481 -71.82458310079508 -47.82493108774645 2 2 3
905 89 3 0 -13.518584470047694 -1.8204138086374266 -52.83373814634388 -4 1 0
323 31 3 0 44.85767394736748 -70.23628110724285 -51.434746711552265 -2 2 -2
789 77 1 0 8.668512488104458 -13.793612654846507 -17.520575976521364 5 -2 -5
943 93 3 0 31.597028331151986 -78.80829094462753 -59.596625160879505 0 3 -3
325 31 3 0 52.793711971627715 -70.72211064950162 -57.86379561879644 -2 2 -2
324 31 3 0 47.455542357448046 -72.97918813616505 -56.13086605857131 -2 2 -2
116 10 1 0 76.72932331350968 -69.10378632168569 -45.03171811403753 -1 3 1
115 10 3 0 75.06504206068013 -70.65663073103133 -50.45915306930021 -1 3 1
114 10 3 0 76.00716233965963 -75.39177891594605 -53.3885368684533 -1 3 1
122 10 1 0 -53.3562839605461 -60.457755349599125 -40.493192087066205 0 3 1
932 91 1 0 -11.868033515612755 -52.62774885905162 -61.20388650323587 -1 3 -2
928 91 3 0 -22.6823390808022 -50.69484458978201 -43.92241603690208 -1 3 -2
931 91 1 0 -16.504349036927028 -55.170724705102494 -58.354635425162535 -1 3 -2
43 3 3 0 19.17172598120529 -49.953446824409774 -54.702322809946715 3 0 3
681 66 1 0 41.031743492467754 -48.214134039964044 -43.851500371984805 2 0 -3
682 66 1 0 43.47344290766941 -51.84401381599071 -47.48551098425265 2 0 -3
760 74 1 0 -67.87348628781724 -33.20841743901097 -52.225948532016176 2 -2 0
759 74 1 0 -68.58931350808831 -32.288475247869684 -46.71598113893504 2 -2 0
758 74 3 0 -65.86222443685548 -29.021084130045534 -42.55319841206444 2 -2 0
762 74 1 0 -58.99825885921465 -39.84135552729838 -56.47737247495603 2 -2 0
432 41 1 0 -58.94999494695912 -36.549205794440894 -40.33367879478955 3 -1 -1
761 74 1 0 -64.0649118428203 -36.37647278908112 -55.707704557683314 2 -2 0
699 68 1 0 -29.015963779271658 -19.54924860423887 -57.40146913586573 3 2 1
700 68 1 0 -27.822516397815143 -24.057151621682177 -53.89032496971048 3 2 1
701 68 1 0 -26.125665862822302 -24.580300095248013 -48.17283356956974 3 2 1
702 68 1 0 -22.57863627975003 -25.278283434238958 -43.19965163369802 3 2 1
245 23 3 0 36.659567502026654 -25.436604107583765 -60.20547770322135 1 1 1
246 23 1 0 34.97444642434558 -20.683364048148825 -62.25612084591404 1 1 1
983 97 3 0 -68.89272825061589 -17.9762573480341 -50.45901872280439 -1 2 1
984 97 3 0 -70.784848381374 -12.158165191619489 -50.86113481350731 -1 2 1
985 97 3 0 -73.35449063578538 -8.177571931825137 -47.222828189254585 -1 2 1
986 97 1 0 -76.94898593049392 -4.9896115766607085 -44.093452952972505 -1 2 1
423 41 3 0 -59.607230197970416 -4.998359839199707 -45.14357473272807 3 -1 -1
696 68 1 0 -34.541892005444254 -11.370783487532531 -46.15151005401192 3 2 1
697 68 3 0 -35.39485528266173 -13.870245310515315 -51.57664057508598 3 2 1
698 68 3 0 -33.52347201769412 -15.925371290726856 -56.62910387498241 3 2 1
695 68 3 0 -32.9000568873824 -6.864086918435938 -42.81943821536119 3 2 1
906 89 1 0 -8.899522056282263 -5.160567842752585 -51.97400847629578 -4 1 0
907 89 3 0 -5.330871849084494 -7.572038012211966 -48.199370632857615 -4 1 0
909 89 1 0 4.445832169652178 -10.826412258510484 -45.52311800477465 -4 1 0
908 89 3 0 -1.483525003117371 -11.305776505274 -45.8491346906789 -4 1 0
910 89 1 0 9.520505774003118 -11.320038686228077 -48.86938273725044 -4 1 0
912 89 1 0 17.775988943957753 -17.663593927511577 -52.48762712951864 -4 1 0
911 89 1 0 13.22263916130693 -14.282258648853512 -52.37718232868917 -4 1 0
605 59 3 0 57.56992012782852 -8.452160392610242 -48.540258746030744 1 1 3
604 59 3 0 55.570489903034805 -11.37679474278174 -43.6553823636426 1 1 3
603 59 3 0 55.0003377697389 -13.66966165972061 -38.247422412337166 1 1 3
606 59 1 0 56.34716181778797 -3.47991255713997 -51.71514568845093 1 1 3
94 8 3 0 -57.349208110632716 -77.0671756725056 -40.06647337191843 2 1 1
857 84 3 0 -32.79840911007104 -76.42330106206107 -24.045615260926432 -1 4 3
858 84 3 0 -28.375069792039866 -75.32716633305996 -27.851573960571795 -1 4 3
859 84 1 0 -24.77357101557133 -78.23976673879285 -31.269300501446992 -1 4 3
860 84 1 0 -24.601645071774175 -77.50664081666086 -37.042497509311 -1 4 3
975 96 3 0 1.944836238197035 -79.11087239897083 -38.87275558359085 2 2 3
787 77 3 0 10.260157480647688 -15.27039960205611 -6.553691216926384 5 -2 -5
694 68 3 0 -33.68494076742521 -1.3568807619832712 -42.7851372834058 3 2 1
773 76 3 0 50.31259130352672 -60.82569388746295 -18.96669781514418 -4 1 -1
934 92 3 0 69.44518293983997 -70.23120293870186 -23.221677410427848 0 1 3
933 92 3 0 67.87762308700809 -69.48384174992302 -28.72865403670169 0 1 3
513 50 3 0 -77.79647780671685 -61.68427899938369 -26.30662586851582 3 2 0
514 50 3 0 -77.32961265959199 -56.08061645768491 -24.655036330367235 3 2 0
515 50 3 0 -77.62413816277191 -50.81312136942991 -27.629542571826207 3 2 0
516 50 1 0 -75.31180233590527 -45.62023329459695 -26.67163295001171 3 2 0
517 50 3 0 -71.71507383530422 -42.2163297737264 -23.905987835816557 3 2 0
923 91 3 0 -41.7626713673705 -50.4454976697713 -41.52622822616722 -1 3 -2
924 91 3 0 -39.396600811432776 -52.67679292146332 -36.49869300300853 -1 3 -2
925 91 3 0 -33.86322014701096 -50.867882103384886 -35.333316776734065 -1 3 -2
926 91 1 0 -28.62101329171865 -48.526367526886645 -35.92460037461427 -1 3 -2
927 91 3 0 -26.513972959557062 -46.88735963091879 -41.22214391282266 -1 3 -2
674 66 3 0 11.043367981626849 -39.10394963332775 -23.5342361698598 2 0 -3
673 66 3 0 5.681636752624621 -39.884591013529025 -20.621003803396206 2 0 -3
676 66 1 0 17.71488816547546 -42.38212695025607 -33.01426301680914 2 0 -3
677 66 3 0 21.514574209674336 -46.48910882070006 -34.88016832026588 2 0 -3
678 66 3 0 25.582547695380082 -48.897371107164524 -38.464808255355855 2 0 -3
675 66 3 0 14.93271855791695 -39.80438254671872 -28.292575989058175 2 0 -3
680 66 1 0 35.93184354283832 -46.679976276156005 -41.4078418145124 2 0 -3
679 66 1 0 30.634388929867992 -46.63097597651987 -39.039169876610906 2 0 -3
190 17 1 0 54.78408217336817 -44.81158432616822 -20.308807181566017 0 3 -1
189 17 1 0 59.72743217147275 -43.181972026344134 -22.883503476694887 0 3 -1
188 17 3 0 63.12375076933125 -41.82682578395462 -27.550783212668637 0 3 -1
183 17 3 0 -70.72746108237368 -34.477967959688634 -31.132163767825556 1 3 -1
184 17 3 0 -76.31724983629846 -31.9175726803208 -30.867349987331757 1 3 -1
757 74 3 0 -68.7307126001566 -26.674812484386422 -38.07934677187296 2 -2 0
756 74 1 0 -74.46215143745557 -25.088727139210743 -37.736417201318226 2 -2 0
755 74 3 0 79.86533495261196 -25.471755155984102 -39.34661724292211 1 -2 0
431 41 1 0 -53.952403181468895 -37.645617513064174 -37.31511636692151 3 -1 -1
430 41 1 0 -52.25780212573115 -32.455678181344574 -34.40963580530533 3 -1 -1
429 41 1 0 -52.530175492132855 -26.82344184828525 -32.2175129535265 3 -1 -1
623 61 3 0 -29.977462730826492 -21.98468791741746 -16.538728560165726 0 -2 -1
152 13 1 0 -12.503673556180436 -28.68537605773158 -18.382213059970216 -5 -1 -2
792 77 1 0 7.615581974209471 -25.35807052658645 -24.43204554707001 5 -2 -5
238 22 3 0 30.833628015073472 -26.82218573483569 -27.689463194880577 0 -1 -1
239 22 1 0 35.32063131198859 -28.644702652896914 -24.576410515042358 0 -1 -1
240 22 1 0 41.08696380833224 -29.691457266581867 -25.506858059159565 0 -1 -1
241 22 1 0 46.88200041058133 -29.212033811985204 -26.96859535865366 0 -1 -1
242 22 1 0 52.09500402168029 -28.81928224306685 -24.120915560314817 0 -1 -1
187 17 3 0 68.07160912182428 -38.39171936755362 -28.51513312419718 0 3 -1
185 17 3 0 77.77344752123454 -32.37259993886779 -29.74317344740601 0 3 -1
186 17 1 0 71.82213287003462 -33.476298621561256 -29.286077968912974 0 3 -1
754 74 3 0 74.60307413201811 -23.079235511277947 -39.60197175713624 1 -2 0
753 74 3 0 71.37182659196407 -19.176850506842513 -36.37095233102811 1 -2 0
428 41 3 0 -52.81749904976657 -21.23009691068364 -33.57244610149097 3 -1 -1
427 41 3 0 -50.19513578354076 -16.454921934942092 -35.572517499530925 3 -1 -1
426 41 1 0 -51.96187896467656 -11.367934617254228 -33.16605658126799 3 -1 -1
425 41 3 0 -52.783207291310454 -6.039726413057478 -35.7831746620288 3 -1 -1
424 41 3 0 -54.77460880730364 -5.020750207569099 -41.57668027306757 3 -1 -1
624 61 3 0 -32.67639501340838 -18.55661505888802 -20.546773574453685 0 -2 -1
625 61 3 0 -31.49534030594928 -13.107017580123722 -22.487987640028887 0 -2 -1
626 61 1 0 -29.410919241309852 -8.109577511999653 -25.34979002648464 0 -2 -1
628 61 3 0 -20.817862077636686 -2.4327171506947107 -28.262489610252032 0 -2 -1
627 61 3 0 -25.353986843315113 -5.962994794123689 -28.59432165173417 0 -2 -1
658 64 3 0 63.557383936568634 -17.714813085969077 -4.855287774455553 -3 -2 1
790 77 1 0 5.808445112186556 -15.289292218420213 -22.039870841513565 5 -2 -5
791 77 1 0 6.281667451778896 -19.942924585598963 -25.764619000093127 5 -2 -5
233 22 3 0 32.1862543262206 -3.0195894564599697 -39.973090704821516 0 -1 -1
237 22 3 0 30.14479711379886 -22.48911239003195 -31.871348028845915 0 -1 -1
236 22 1 0 29.68434381975561 -16.64716755608576 -32.422993750619895 0 -1 -1
235 22 3 0 31.984265053830445 -11.520622092309877 -32.70755285576845 0 -1 -1
234 22 3 0 31.65105092289338 -6.292720756503708 -35.434453995767214 0 -1 -1
705 69 3 0 78.31154531521038 -76.5189826070394 -12.688332836565996 -2 -3 2
703 69 3 0 -77.27885210291947 -67.26128883392992 -17.66628054474917 -1 -3 2
704 69 3 0 -79.45104907409404 -72.39598604218219 -16.41861646398616 -1 -3 2
587 57 3 0 -54.73688539177069 -68.33674812880587 -9.11064419454398 2 -1 0
588 57 3 0 -50.678715789730404 -65.67495855257381 -12.727093060756381 2 -1 0
585 57 3 0 -58.580068154482525 -78.65603425309148 -6.24041803659519 2 -1 0
586 57 1 0 -56.43638130318889 -73.0277321593308 -5.923514073652084 2 -1 0
589 57 1 0 -44.610054421960456 -65.0683729058866 -13.583303519746503 2 -1 0
590 57 1 0 -39.315686080276315 -62.73859186002496 -14.216053761330116 2 -1 0
783 77 3 0 22.85484831987301 -2.693590371551947 -10.348116307171775 5 -2 -5
786 77 1 0 12.060723704750057 -12.037029087634616 -2.1190179543136156 5 -2 -5
774 76 3 0 45.014621836413966 -61.76249022676748 -17.421105941810072 -4 1 -1
938 92 3 0 58.53904563783453 -78.74686263642165 -15.078374837889037 0 1 3
937 92 3 0 61.67971835209886 -74.40877459671546 -12.22878693964192 0 1 3
657 64 3 0 67.28549254133233 -13.102615306854656 -5.403656333348116 -3 -2 1
935 92 3 0 70.21419339326319 -69.95697812751348 -17.458669469536115 0 1 3
936 92 1 0 66.79159878743863 -71.81260620512921 -12.984363974218793 0 1 3
520 50 1 0 -65.62269946792973 -43.83915907403888 -9.869717731908723 3 2 0
521 50 1 0 -66.97002097564126 -49.21438005691023 -8.071124121450904 3 2 0
519 50 1 0 -67.08269122488697 -39.42643234441057 -13.408775711488575 3 2 0
522 50 1 0 -68.8363481949978 -54.63888215407087 -10.118408739900138 3 2 0
592 57 1 0 -29.8946714441278 -57.798082169959066 -13.191189691050237 2 -1 0
591 57 1 0 -35.15370281761461 -59.041103901565634 -15.508491012376654 2 -1 0
402 38 1 0 -38.02786098223195 -46.11093750474264 -2.2375211886616015 1 4 -5
401 38 1 0 -38.58071359447871 -40.771864182004016 -3.6810638957495923 1 4 -5
148 13 3 0 -17.74679532426597 -44.270804840950476 -7.660964813361273 -5 -1 -2
147 13 3 0 -13.183245390002929 -45.8168268590505 -4.771054678600468 -5 -1 -2
149 13 1 0 -20.424408304178623 -40.19595099065871 -10.887795701631923 -5 -1 -2
656 64 1 0 68.48189554294218 -8.859404927033209 -8.790750919354913 -3 -2 1
780 76 1 0 25.345469978834778 -47.08415060901146 -7.616292768633435 -4 1 -1
781 76 1 0 21.15077228833592 -47.28651577347388 -3.4030871236920053 -4 1 -1
775 76 3 0 39.21279667992867 -59.9109644785894 -18.822024668723216 -4 1 -1
779 76 1 0 27.41459130244659 -44.37871360300667 -12.808544837374539 -4 1 -1
778 76 3 0 28.58485479789168 -46.224961487499144 -17.59158130865444 -4 1 -1
776 76 1 0 36.71093351606784 -54.601564609199094 -18.720169204887437 -4 1 -1
777 76 3 0 31.897459310379574 -51.10693236702598 -18.671612864309324 -4 1 -1
191 17 1 0 50.10814375981602 -44.15458360044262 -17.408708580809016 0 3 -1
192 17 1 0 46.94270972574985 -46.86354130352032 -13.253073451013197 0 3 -1
785 77 3 0 16.92318508684846 -8.710591526108999 -2.426369237182223 5 -2 -5
518 50 3 0 -69.87336213342522 -40.428197236562355 -18.46181298466328 3 2 0
551 53 1 0 -71.66800828369637 -27.95929703660791 -5.078602957548732 -2 2 -1
550 53 1 0 -76.34573632085258 -30.982551116198046 -4.478952920995065 -2 2 -1
552 53 1 0 -65.66476999856351 -28.45209646683474 -4.011928972828861 -2 2 -1
400 38 1 0 -41.2196736301473 -35.60556806484605 -2.901792720234145 1 4 -5
784 77 3 0 20.49973280816229 -6.41616981556839 -6.303459522461755 5 -2 -5
150 13 1 0 -18.352429186762446 -37.09332090419771 -15.41607664086409 -5 -1 -2
151 13 1 0 -13.958316405289253 -33.46673419688996 -15.045880514659354 -5 -1 -2
662 64 1 0 43.342249849156566 -28.396568579842352 -1.2214170193311906 -3 -2 1
660 64 1 0 53.27459217453385 -23.402178285166393 -4.950046498673216 -3 -2 1
661 64 1 0 48.267359217862705 -26.489669868272202 -4.045295636648411 -3 -2 1
659 64 1 0 57.785488115081876 -19.650730356369056 -3.2587463647554515 -3 -2 1
549 53 1 0 78.78044252969676 -33.487694395526034 -7.463578201298434 -3 2 -1
548 53 3 0 73.50826066874072 -34.254776329543716 -5.419889968963241 -3 2 -1
669 65 1 0 -15.845837870177034 -0.6461440862711694 -2.4307851635876276 0 1 -4
788 77 3 0 9.407010358919088 -13.425245124477673 -11.93156804749059 5 -2 -5
815 80 3 0 62.423949282055254 -36.93136270266393 -78.95880459952808 0 2 0
310 29 1 0 64.80882392443509 -10.138836700525102 -79.96951552733293 0 0 -2
547 53 3 0 69.54805865004721 -34.43033896102972 -0.8614643446259191 -3 2 -1
600 58 1 0 6.232560592569106 -60.42026181339999 1.2664599567224697 1 -2 1
204 19 3 0 17.292254610242665 -61.672126307091695 18.170059539846783 -3 1 0
598 58 3 0 15.946971792035448 -64.53732416646528 4.989287615593793 1 -2 1
599 58 1 0 9.94761490759888 -63.906588893277835 3.9857535826311317 1 -2 1
957 94 3 0 59.76620320182375 -67.28481178238181 10.723667307888132 2 1 0
958 94 3 0 57.46545730413745 -62.76154033956747 13.471785178656916 2 1 0
955 94 3 0 59.24532301262421 -77.98870921755397 11.882363015500202 2 1 0
224 21 3 0 77.28973395640162 -65.40888457517761 6.69773837229385 -1 0 -1
223 21 3 0 75.13703241641547 -66.94097128988135 1.5914302156763047 -1 0 -1
956 94 1 0 61.43395316460922 -72.85459245370993 11.37973804736961 2 1 0
225 21 3 0 77.91453641811708 -61.997858293479844 11.342270378366681 -1 0 -1
227 21 3 0 75.8114077003994 -59.935887075637666 22.39819313617943 -1 0 -1
812 79 1 0 -66.34406452768378 -55.382827725781056 11.42020563322193 -1 -1 1
811 79 1 0 -62.33255488389526 -52.16846011322275 14.594495737049957 -1 -1 1
810 79 1 0 -57.04415817021013 -50.3764299621121 16.155446435132454 -1 -1 1
809 79 1 0 -52.722679791627414 -47.73704150320209 12.646331130473095 -1 -1 1
808 79 3 0 -49.507471107046676 -42.94208565637146 12.779471056147486 -1 -1 1
807 79 3 0 -48.46390603248274 -38.75752960936853 16.829768775769814 -1 -1 1
145 13 3 0 -11.962778531170624 -45.5328333654862 5.771041845427325 -5 -1 -2
144 13 3 0 -10.19189492604611 -41.728373572998144 9.850700216312722 -5 -1 -2
143 13 3 0 -9.952282713742601 -40.51118886044431 15.59418801815385 -5 -1 -2
601 58 1 0 0.5019830531163052 -59.07447486010098 1.8831836884600197 1 -2 1
602 58 1 0 -2.4796218059398973 -55.96947137669711 6.130128309367934 1 -2 1
203 19 3 0 12.994717508569948 -59.856639146535365 14.749352435873528 -3 1 0
782 76 1 0 19.6338863050562 -51.012018868957725 1.4840002639037757 -4 1 -1
593 58 3 0 28.455990050879656 -45.59792609786525 7.8889451651340785 1 -2 1
594 58 3 0 27.76911646526037 -51.03343594615292 7.199303335147213 1 -2 1
595 58 3 0 28.18488211378618 -56.134551279470486 4.094678704913678 1 -2 1
959 94 1 0 55.292178857953516 -57.08030577128969 11.826349104184214 2 1 0
960 94 1 0 57.111477134317454 -52.1566769048857 9.520814731139849 2 1 0
961 94 1 0 60.93742431653339 -51.58155869312439 5.186981938407832 2 1 0
226 21 1 0 78.43012136015281 -60.757030151939105 17.468036166049952 -1 0 -1
397 38 3 0 -36.20896840224039 -24.878380735054492 6.417053295964478 1 4 -5
398 38 3 0 -39.64612070839529 -29.196988792286742 4.689286149201927 1 4 -5
765 75 3 0 30.972174811889804 -26.302535240681262 14.431914070574141 3 2 5
766 75 1 0 35.448394315508104 -28.95447148648593 16.79074816442346 3 2 5
767 75 3 0 40.12206761449182 -31.748431955478832 14.45015941737689 3 2 5
768 75 3 0 43.8622746784921 -31.872958163256826 9.75918218882401 3 2 5
764 75 3 0 31.25095754792256 -22.394903372691175 9.74560132579269 3 2 5
769 75 1 0 48.52498792080352 -28.640200388091085 7.705929466711098 3 2 5
770 75 1 0 54.80748494590744 -28.66142761142723 8.300146560140494 3 2 5
771 75 1 0 59.41067673170101 -25.515069149764905 7.916917131421234 3 2 5
772 75 1 0 63.521109424924084 -23.049467266585804 4.255850092864279 3 2 5
545 53 3 0 66.39399406996733 -37.719804020738444 10.084588595652082 -3 2 -1
546 53 1 0 67.45674072024138 -35.10801050524005 4.622465724232598 -3 2 -1
253 24 3 0 65.16688816888855 -79.64911945797749 47.051178437675645 -2 2 -4
544 53 3 0 65.14197778277297 -36.283371163190175 15.768032419317029 -3 2 -1
63 5 3 0 -51.0114259912708 -6.474817304573587 17.905866191752544 0 -5 3
65 5 3 0 -56.403596312847135 -2.4410583066773173 8.666214834379993 0 -5 3
64 5 3 0 -52.31403079056055 -5.102092336085326 12.094201262840333 0 -5 3
66 5 1 0 -60.67456170736217 -1.6762025727566425 4.60484661314961 0 -5 3
396 38 1 0 -36.10089530160503 -19.21675826932286 7.796812954946328 1 4 -5
395 38 3 0 -35.92023176225422 -13.57371453237856 7.079504899087738 1 4 -5
394 38 3 0 -30.188247431856205 -11.914632607504142 8.80234434549544 1 4 -5
393 38 3 0 -26.98647216333885 -7.293148965134188 6.99999345039771 1 4 -5
763 75 3 0 34.39176822678709 -20.599543843802593 5.038869197274007 3 2 5
970 95 1 0 -71.60431216218937 -74.05137324075808 25.94307496362799 2 0 -2
969 95 1 0 -66.55160182691489 -75.48096852405607 28.626382148490567 2 0 -2
231 21 1 0 -68.94383205755074 -60.95785958240139 33.02673728630521 0 0 -1
229 21 1 0 -79.33186516608237 -57.035572442966696 30.900904875545194 0 0 -1
230 21 1 0 -73.70545248672921 -58.28940828309937 31.577496984276834 0 0 -1
232 21 1 0 -64.69969834900266 -63.86153329962179 35.076718271754196 0 0 -1
968 95 3 0 -61.90620998285989 -77.53291082676459 32.0924027691196 2 0 -2
967 95 3 0 -56.14225863391167 -77.54350492389447 33.25239013767582 2 0 -2
966 95 1 0 -51.01460370521918 -76.76235373894576 29.470340848328508 2 0 -2
965 95 3 0 -51.135687968903085 -76.50779127126324 23.8627419953342 2 0 -2
887 87 3 0 -31.11172153263134 -75.91028349195413 39.10847727435458 -2 1 -1
886 87 1 0 -29.19190741444529 -70.58332395693508 38.43747626539753 -2 1 -1
885 87 3 0 -27.84456498060825 -66.90521830446772 34.45775996165614 -2 1 -1
884 87 3 0 -27.320406448353836 -63.43378653897846 29.753878525046243 -2 1 -1
205 19 3 0 19.547791973544577 -64.74074331829986 23.026553899413262 -3 1 0
207 19 3 0 24.540966560670686 -65.04334412841447 33.43836653359167 -3 1 0
206 19 1 0 21.468433605718957 -63.39771731573524 28.966719073324416 -3 1 0
208 19 3 0 24.8568338309861 -69.51881557416489 37.27058746077722 -3 1 0
193 18 3 0 52.43207474289451 -60.39935721624878 44.26289427149485 1 -2 -1
194 18 3 0 56.71547189024977 -59.78729619518748 40.47295530164182 1 -2 -1
971 95 1 0 -77.32887150120561 -74.01001004021681 24.650437484902472 2 0 -2
972 95 1 0 77.13076360893496 -72.39113137719096 22.671230201657053 1 0 -2
803 79 3 0 -49.81673972927481 -50.47495735066504 35.23558803173914 -1 -1 1
804 79 3 0 -46.691382036408214 -48.4173030717622 31.004581843221075 -1 -1 1
805 79 3 0 -45.94463680199575 -43.64061347062409 27.17603931004626 -1 -1 1
806 79 1 0 -47.054892022768584 -40.0275247244516 22.321104529162138 -1 -1 1
1023 101 3 0 -35.26466299794795 -45.74339341370997 28.61931410054601 1 1 1
883 87 3 0 -27.440932165515868 -57.5823268916538 29.827291893353593 -2 1 -1
1024 101 3 0 -29.71492155064161 -43.90583475207382 30.076350735978323 1 1 1
1025 101 3 0 -24.59660209258387 -41.41999504449279 27.506602844585586 1 1 1
383 37 3 0 -11.587283236505675 -51.68296686670147 35.304400034420375 3 -1 -1
483 47 3 0 7.905169342949283 -46.70021078316079 30.190882352720124 3 5 -2
484 47 3 0 3.8309031560569196 -45.182572881052614 26.68239444107824 3 5 -2
384 37 3 0 -7.03306516097176 -48.13072919930392 37.56651641797971 3 -1 -1
202 18 1 0 47.531879695548795 -55.78476512047902 22.26617300448513 1 -2 -1
201 18 1 0 48.83296365193527 -53.09201869466038 27.39543101496578 1 -2 -1
200 18 1 0 48.17959350752545 -48.74897582476916 31.160891893934984 1 -2 -1
199 18 1 0 49.35076429526841 -46.261896069869515 36.59423481891982 1 -2 -1
198 18 3 0 53.917683038206974 -46.562212159293836 40.576531415547386 1 -2 -1
197 18 3 0 59.2042970183975 -48.78860909759198 41.749731524234264 1 -2 -1
228 21 3 0 76.20744378630337 -60.14630491233713 28.313401247102156 -1 0 -1
195 18 3 0 60.836940870889045 -57.499599673500526 36.80843345193217 1 -2 -1
196 18 1 0 62.54653676783012 -52.44668244262121 38.74905240076258 1 -2 -1
645 63 3 0 -65.58393338964066 -18.22149769590535 30.443921271665108 2 2 -1
647 63 3 0 -74.14506217739829 -21.76404652982614 36.80592754606669 2 2 -1
646 63 1 0 -69.08185618772178 -21.66601183143333 33.4853156247305 2 2 -1
1029 101 1 0 -25.66494318824327 -20.489938204965544 22.80834875073123 1 1 1
141 12 1 0 -46.1181734153826 -20.441451061623184 27.447312725159634 3 2 -2
139 12 1 0 -36.67662925665239 -17.77384702742783 34.07370752282909 3 2 -2
140 12 1 0 -41.13774649320316 -20.405381595595017 31.097202869400924 3 2 -2
1028 101 3 0 -25.181322220692156 -25.985956566759086 23.85236091830917 1 1 1
1027 101 3 0 -21.87698035708469 -30.889921435577445 24.42569893488594 1 1 1
1026 101 1 0 -21.778985453240487 -36.11191236021326 26.810083520480998 1 1 1
352 33 1 0 -7.5493215268647935 -25.060283242074306 29.84660510814115 -1 -2 1
351 33 1 0 -5.385689275805524 -21.88371808079152 34.20440442691641 -1 -2 1
485 47 3 0 1.3136949791212582 -40.04064488719649 25.764363518072283 3 5 -2
486 47 1 0 2.2159453369567497 -34.235637705532135 24.65358550756747 3 5 -2
487 47 3 0 0.9660281938740513 -28.364956630379172 23.790342661749605 3 5 -2
111 9 1 0 39.63547783972222 -29.653009237014878 28.79061419759943 -1 -1 1
112 9 1 0 39.133234549688304 -28.870203452430594 34.759291645176376 -1 -1 1
110 9 1 0 44.13540336314074 -31.358071027895292 24.892988314812403 -1 -1 1
109 9 1 0 48.22171272561132 -27.289538664642777 24.43027333841764 -1 -1 1
108 9 3 0 49.2987636254904 -21.549716604993087 23.673476869216366 -1 -1 1
543 53 3 0 60.22025189702745 -35.383989774025316 18.684197306348555 -3 2 -1
644 63 3 0 -61.53755863445904 -13.903211492984022 30.504763494855705 2 2 -1
643 63 3 0 -59.89631252573045 -11.00568066686485 35.306594174562036 2 2 -1
142 12 1 0 -51.59651680597428 -22.50162102038196 26.413644694738775 3 2 -2
1032 101 1 0 -35.82031055452708 -8.696444664699234 24.986732600881727 1 1 1
1031 101 1 0 -31.78743937989805 -11.019039640225795 21.6503739823731 1 1 1
138 12 3 0 -32.69960170741758 -18.821030521023516 38.53915043144499 3 2 -2
1030 101 1 0 -27.210648002352045 -14.888792887403257 21.302505548805048 1 1 1
350 33 1 0 -3.2670941128328663 -16.522149392058992 34.72597597885718 -1 -2 1
488 47 3 0 2.6571228014739514 -23.023864320343204 21.883298730341377 3 5 -2
349 33 1 0 -3.1623610411674687 -10.67630650649984 34.022334491865706 -1 -2 1
347 33 3 0 3.0122103525212847 -2.9647543308725752 27.404922648122394 -1 -2 1
348 33 3 0 0.06989303713492896 -5.8177733329764285 31.72502286356554 -1 -2 1
489 47 1 0 6.788838886893735 -19.178290016723892 23.805585338864592 3 5 -2
490 47 1 0 11.81427010688879 -16.611194247660595 23.345803884278624 3 5 -2
491 47 1 0 17.535528860355747 -16.60074464326949 25.368449658306655 3 5 -2
492 47 1 0 20.202846245851497 -15.604281471251667 30.585179914292766 3 5 -2
104 9 3 0 49.34575356978472 -0.81270249630413 26.185739428661204 -1 -1 1
107 9 3 0 48.31460839542903 -16.0244018452695 22.665737430706624 -1 -1 1
106 9 1 0 50.94507346481802 -11.32626024886223 23.32042186620518 -1 -1 1
105 9 3 0 48.87905269332157 -5.828790699715067 23.15210452862086 -1 -1 1
652 63 1 0 68.43488466738337 -3.3239970066274678 35.13162214080648 1 2 -1
651 63 1 0 68.54854471854168 -9.175212101709658 35.989044419174874 1 2 -1
649 63 1 0 75.3756972093763 -17.408203969315295 38.07057751330844 1 2 -1
650 63 1 0 70.4223779423167 -14.409268624245769 35.577758703110504 1 2 -1
888 87 3 0 -34.89315795922307 -78.38348381295528 42.44491610967621 -2 1 -1
361 34 1 0 -13.837201467701139 -78.08549900783127 41.8746309168056 0 3 2
362 34 1 0 -10.844099996846372 -73.6731254731494 39.1982054427894 0 3 2
146 13 1 0 -10.03899857996029 -46.20554236301072 0.2579733624474338 -5 -1 -2