LAMMPS data file via write_data, version 29 Aug 2024, timestep = 100000000, units = real

1232 atoms
4 atom types
1131 bonds
1 bond types
1030 angles
1 angle types

-80 80 xlo xhi
-80 80 ylo yhi
-80 80 zlo zhi

Masses

1 329.2
2 305.2
3 345.2
4 306.2

Bond Coeffs # harmonic

1 7.5 5.9

Angle Coeffs # harmonic

1 5 150

Atoms # full

150 11 4 0 -62.70817979163592 -79.60930258334123 -69.76668552389195 0 0 -1
149 11 4 0 -60.36292078414656 -79.07993494795218 -64.50142245578864 0 0 -1
148 11 4 0 -57.64283266327017 -76.8979542930076 -60.44871112056092 0 0 -1
146 11 3 0 -47.94502326589058 -71.55846286653279 -62.71657511462637 0 0 -1
278 22 3 0 -50.724936914976205 -63.21040764122742 -77.13401326893484 -2 0 3
277 22 4 0 -46.584157292995265 -66.00152764784636 -79.75805379313819 -2 0 3
145 11 4 0 -43.801019437462095 -70.10508490555462 -66.99512763145182 0 0 -1
144 11 2 0 -42.57452599769515 -65.600360403529 -70.84539337080567 0 0 -1
143 11 3 0 -38.85654337166244 -61.387334703179555 -73.24124775642082 0 0 -1
274 22 3 0 -35.262349589119815 -76.4278657874028 -75.12830971077828 -2 0 3
273 22 3 0 -29.831358832356244 -78.67857682679309 -73.86367130095564 -2 0 3
977 80 4 0 -15.304342367319077 -69.36151061323076 -73.59476391091974 1 -1 1
978 80 4 0 -13.315546366824572 -73.22961922267895 -69.09504210512976 1 -1 1
976 80 4 0 -20.687941954843268 -68.6952664607176 -75.6831751356047 1 -1 1
975 80 4 0 -25.037083628924076 -68.24238286458045 -79.5257814256533 1 -1 1
979 80 1 0 -8.837038711467539 -76.96310159505349 -69.93473377229084 1 -1 1
1173 97 3 0 8.076756464686488 -61.42108523705351 -73.10662301608562 2 0 0
220 17 4 0 -75.46102748325896 -43.1928442942923 -67.62730487956567 3 2 -1
219 17 4 0 -72.27254610960418 -44.397363327894375 -62.60187337277825 3 2 -1
722 59 3 0 -68.62513916539386 -49.89225550695481 -77.00821858869625 1 0 0
723 59 4 0 -66.59720542550163 -50.426751826922064 -71.98847766496999 1 0 0
221 17 4 0 -79.80664562201667 -45.494366545082855 -71.58995262505964 3 2 -1
724 59 4 0 -61.507382595547156 -48.207214026518734 -71.09054784487937 1 0 0
725 59 4 0 -58.79872284703055 -44.68843211430105 -67.25651982971124 1 0 0
279 22 4 0 -52.23883615675622 -58.20015753041204 -74.77939572301067 -2 0 3
280 22 4 0 -50.402739903939846 -54.56797055602423 -70.14999235085044 -2 0 3
281 22 4 0 -49.00720066670631 -56.530749270064454 -64.70476353989544 -2 0 3
142 11 3 0 -38.14196703060392 -57.73629574969151 -77.73333737679289 0 0 -1
282 22 4 0 -44.03808520884959 -57.5542987243219 -61.33735921649896 -2 0 3
284 22 1 0 -33.21159041218883 -54.329971987131835 -60.15077860884739 -2 0 3
468 38 2 0 -9.815633024303638 -59.19770036504762 -79.42191449067317 -1 1 0
467 38 3 0 -11.862463008606982 -58.49986736922166 -73.82961041179624 -1 1 0
466 38 3 0 -14.535648397981154 -56.23488766277781 -69.12318525981405 -1 1 0
465 38 3 0 -17.186784685761324 -52.14724970410118 -66.12594936531634 -1 1 0
1178 97 3 0 -12.118223096533638 -45.61026885486881 -74.08370445288152 2 0 0
1179 97 4 0 -17.976581662653533 -43.32315954641218 -74.14727909029659 2 0 0
1180 97 4 0 -23.265636323871263 -41.88984986831172 -71.53191020284594 2 0 0
1177 97 4 0 -7.513196268850613 -47.90834612638005 -77.7931530456494 2 0 0
1174 97 3 0 5.5495478835905026 -57.00292868243078 -76.48231093836546 2 0 0
1176 97 2 0 -2.7316177332570244 -50.5279802688644 -79.98541400712466 2 0 0
1175 97 3 0 2.032441222710288 -52.76394861835951 -77.61405399687881 2 0 0
224 17 1 0 63.629816936352654 -49.63834082855667 -72.45599832232362 2 2 -1
222 17 4 0 74.62435386805043 -47.18811588753914 -72.3138005101083 2 2 -1
223 17 1 0 68.81809375564735 -48.20375681020607 -70.37135521325418 2 2 -1
1197 99 3 0 74.96563715608922 -53.873910832508116 -79.28066481261526 -3 -1 0
726 59 4 0 -56.958348560465836 -39.67003921587108 -64.70684892630454 1 0 0
727 59 1 0 -52.35208170148867 -38.501320517141316 -61.61162264482281 1 0 0
1183 97 1 0 -36.264859741310886 -32.22078557263615 -68.19993507612327 2 0 0
1184 97 1 0 -42.1642908617132 -30.73236855711766 -68.0854309210711 2 0 0
1182 97 4 0 -30.9921948345562 -34.75860985264744 -66.2738192292491 2 0 0
1181 97 4 0 -27.2501996868773 -38.81744664093472 -68.34592972195357 2 0 0
302 24 3 0 -54.00610448010705 -2.066874179140806 -66.14530328891101 1 1 1
303 24 4 0 -55.1866739701656 -7.355243593523808 -63.38372471273506 1 1 1
304 24 4 0 -54.97099419644123 -12.233751322406322 -60.03445399987536 1 1 1
8 1 4 0 -55.21136371830295 -3.411861273614004 -79.22819648518045 -1 0 1
9 1 4 0 -59.115801091105304 -0.24246330435334584 -75.73609156886809 -1 0 1
489 40 3 0 -46.012071661927706 -7.20201153339022 -67.64538917659308 2 1 1
486 39 4 0 -36.372138838181364 -19.334975168335458 -62.709267433837944 -1 -1 -1
483 39 4 0 -33.59153810646368 -5.778896163422463 -71.49875305123466 -1 -1 -1
484 39 4 0 -32.421733399107325 -10.695796498608273 -67.92745308961729 -1 -1 -1
485 39 4 0 -33.47359158920088 -16.101520456119935 -66.31576689041711 -1 -1 -1
482 39 3 0 -35.22903149429466 -0.4631346068118295 -74.48457280745598 -1 -1 -1
490 40 3 0 -41.907146459777294 -3.4141740083845358 -65.92768492126572 2 1 1
171 13 4 0 -12.239564744519011 -12.249618229879308 -72.52927687959018 1 1 0
170 13 3 0 -12.353049860913647 -14.292467538207141 -78.3005180107497 1 1 0
172 13 4 0 -14.91170882895738 -10.870521353310375 -67.4697872027585 1 1 0
173 13 4 0 -18.023828260480595 -7.74556654359734 -63.86434586042541 1 1 0
174 13 4 0 -20.522037497476006 -2.5413662132818295 -62.327914716520574 1 1 0
888 73 2 0 -12.666818048574026 -1.5877434826589802 -72.86112279653831 -1 -1 1
889 73 4 0 -7.3034244356920395 -2.1025107324652774 -74.2961500099106 -1 -1 1
891 73 4 0 1.258709694814619 -6.472885261244074 -72.76066020234232 -1 -1 1
890 73 3 0 -3.8200214181031873 -6.726881723424633 -75.1781534000347 -1 -1 1
892 73 4 0 4.959998259784126 -1.8451224608261958 -72.18667872897429 -1 -1 1
147 11 4 0 -52.13636003419743 -74.52766470271438 -59.64371402579306 0 0 -1
1027 84 1 0 -52.92936054833949 -62.010694696017374 -47.61646787691799 0 1 -1
1028 84 1 0 -47.973979290566746 -64.57907083688504 -46.52687221117727 0 1 -1
1026 84 4 0 -58.5354250621081 -61.091329059127354 -45.33341183859065 0 1 -1
1131 93 4 0 -43.42667617844404 -78.00445652133982 -43.768666840651036 1 0 0
106 8 3 0 -10.364831747145368 -79.11863462581947 -50.47730856058516 1 1 1
218 17 3 0 -71.69446136231326 -48.155848966638764 -58.1608616870582 3 2 -1
217 17 4 0 -67.39336888318559 -52.18179178709977 -57.594073133244116 3 2 -1
1022 84 3 0 -67.2118938125624 -41.64679672543204 -49.249709510956485 0 1 -1
1023 84 4 0 -66.82534078393779 -46.310112564769305 -46.06954052217983 0 1 -1
1024 84 4 0 -65.30002114120192 -51.870442211814016 -45.246744367120904 0 1 -1
1025 84 4 0 -62.55092870447475 -56.87127296564573 -45.90817104455502 0 1 -1
216 17 2 0 -62.47747023103646 -53.51124407716151 -54.891112725242344 3 2 -1
215 17 3 0 -56.89989082777749 -52.80379152745831 -56.195734844122164 3 2 -1
214 17 3 0 -51.52309006863005 -53.187916950680055 -53.751566564279535 3 2 -1
213 17 3 0 -48.30898599293816 -53.06646714294949 -48.66872464017263 3 2 -1
571 46 1 0 -48.95196910800421 -41.03803116658479 -43.306756920021904 1 1 -1
572 46 1 0 -48.35838332092476 -42.42555246229084 -49.13104565693096 1 1 -1
283 22 1 0 -38.809242722899654 -55.999275354275824 -59.750483303441555 -2 0 3
1232 101 1 0 37.151001969540985 -49.62686849205521 -47.24928354177569 -1 2 2
1230 101 4 0 32.853800156935336 -40.0128271889545 -45.67613741343435 -1 2 2
1231 101 1 0 37.14529868708712 -43.681121107139006 -47.09344320375206 -1 2 2
692 56 1 0 -63.76314049583315 -33.1099758054167 -59.62635534933217 5 -1 -2
1021 84 4 0 -69.02923663832034 -37.205062362498644 -52.98926458606094 0 1 -1
1020 84 2 0 -74.72275940644622 -34.83214954273463 -54.79306968103981 0 1 -1
1019 84 3 0 -79.9270315003039 -37.137722520470874 -54.64025682604312 0 1 -1
728 59 1 0 -48.91824968061025 -37.552983081700575 -57.08443604646174 1 0 0
691 56 1 0 -60.39780237239551 -30.907602072500286 -54.98380072287879 5 -1 -2
690 56 4 0 -56.0704224115141 -30.835643775466817 -50.706775680095845 5 -1 -2
689 56 4 0 -54.67975514257001 -28.197696180699154 -45.43080398203338 5 -1 -2
688 56 4 0 -55.34603865250074 -24.901512577729147 -40.766346319508095 5 -1 -2
570 46 4 0 -50.801860515926876 -36.16353376448619 -40.85024292875826 1 1 -1
487 39 1 0 -37.56131625554312 -24.141601174720694 -59.45209604650426 -1 -1 -1
488 39 1 0 -36.121488110043906 -29.36973671885498 -57.09730272184396 -1 -1 -1
1229 101 4 0 31.325668969527218 -38.067064754724726 -40.05709815461338 -1 2 2
1017 84 3 0 72.20914210729437 -31.21666980527471 -59.76960204095794 -1 1 -1
1018 84 3 0 74.64024122032576 -35.465854435851185 -56.81986779316462 -1 1 -1
45 3 3 0 -66.42815234207457 -4.286194946129809 -48.53588902361293 1 -1 -1
46 3 3 0 -60.84568734164448 -2.3168621759702526 -49.00474773840764 1 -1 -1
307 24 1 0 -56.806205771351856 -12.962176068261256 -44.59802234817178 1 1 1
305 24 4 0 -55.27515002721446 -15.304842804320765 -55.25710463800308 1 1 1
306 24 4 0 -54.16034040267272 -14.507969772489208 -49.37631817781962 1 1 1
48 3 2 0 -49.861212234579696 -3.0201517469766697 -53.43800935139353 1 -1 -1
47 3 3 0 -55.26817183089333 -2.419166885025341 -50.54653234634099 1 -1 -1
308 24 1 0 -61.94597061204937 -15.318702934971345 -42.13636459207773 1 1 1
49 3 4 0 -44.26577757450896 -1.9091157697576693 -52.96833617220029 1 -1 -1
897 74 3 0 17.078371729395105 -16.3492638708454 -46.103898162802494 0 -1 0
898 74 3 0 22.144366841601286 -13.372192319583869 -47.29334339327139 0 -1 0
899 74 3 0 27.493873774780564 -10.191311526163586 -47.009876419105666 0 -1 0
900 74 2 0 32.911288369575 -10.36580279498453 -46.07739087684404 0 -1 0
901 74 4 0 36.82904863645864 -12.036585524186629 -41.8778666979398 0 -1 0
1130 93 3 0 -46.4630668697334 -77.99055556629543 -38.63524927621765 1 0 0
1129 93 4 0 -49.59002836566448 -79.297674833763 -33.880038749102496 1 0 0
1011 83 4 0 -37.64527460107048 -78.424301853709 -31.825567508203438 -2 0 0
1012 83 4 0 -39.094074672726705 -77.67420521181667 -26.242196921034836 -2 0 0
1013 83 4 0 -39.772640644823134 -77.8469109064007 -20.855295945111543 -2 0 0
429 35 3 0 28.214016210008648 -61.46342574187071 -30.643357301599263 -1 -1 1
1100 90 1 0 50.37563767404929 -72.93602819558551 -34.44567581505205 -2 1 0
1099 90 1 0 55.04468624309647 -71.89651567179183 -31.06521509048731 -2 1 0
104 7 1 0 47.82691319635615 -63.82099159416674 -23.560693882239402 -1 1 2
1097 90 4 0 60.32315805732408 -75.90675763237479 -22.998495312500836 -2 1 0
1098 90 4 0 59.43313988221893 -74.75799687166307 -28.94766028365337 -2 1 0
565 46 4 0 -68.68019482330669 -42.32195417083916 -22.186051440969603 1 1 -1
567 46 4 0 -60.15975943382786 -40.08121616345375 -28.409238182562515 1 1 -1
433 35 4 0 20.306925390329695 -41.71105259825689 -23.925050458262664 -1 -1 1
432 35 2 0 23.16450854298475 -46.83961355425943 -24.209263724939206 -1 -1 1
431 35 3 0 24.498645887916492 -50.588743024620605 -28.272627713457982 -1 -1 1
430 35 3 0 25.530828931147155 -56.03649548217806 -29.316225643600635 -1 -1 1
566 46 3 0 -65.40018853293348 -38.95237962478038 -25.743649539871946 1 1 -1
568 46 4 0 -56.91512619850157 -36.77459116035362 -32.08647590852054 1 1 -1
569 46 4 0 -54.166258542120694 -34.49940977960676 -36.22498402992894 1 1 -1
687 56 4 0 -52.82505283829508 -22.46694614953359 -35.837733782921525 5 -1 -2
686 56 3 0 -51.19446366533335 -23.060395622710892 -30.38656946014129 5 -1 -2
685 56 4 0 -51.82014736550799 -24.782010282810838 -24.729768030102612 5 -1 -2
684 56 2 0 -49.405930749339404 -27.9635456677534 -20.493504325578467 5 -1 -2
437 35 4 0 6.620853824995383 -25.028864117537296 -21.995819570264956 -1 -1 1
436 35 4 0 7.831630841273271 -30.405113940602536 -24.045231490607314 -1 -1 1
434 35 3 0 15.134622457335869 -39.38265043237856 -24.985419658927082 -1 -1 1
435 35 4 0 10.412856194550507 -35.7778319803919 -24.05396703951066 -1 -1 1
670 55 3 0 15.969698683996448 -21.7274762973603 -31.43517707058525 1 3 1
671 55 3 0 19.342559119634483 -23.041536112441477 -26.529013527670188 1 3 1
672 55 2 0 17.465395615414305 -26.29514576367374 -21.716450815367473 1 3 1
669 55 3 0 13.6152420256506 -25.764063588911196 -35.31979695204465 1 3 1
1226 101 3 0 29.862044390607302 -34.45681357351713 -23.576515642238814 -1 2 2
1227 101 4 0 29.285500549670846 -36.895824297620536 -28.613374940489525 -1 2 2
1228 101 4 0 30.958468725730487 -36.45528904220818 -34.32714427143729 -1 2 2
321 26 3 0 42.98636564181855 -20.940068544303152 -33.200740337960625 3 0 1
322 26 3 0 38.96186109071828 -20.13414754834687 -28.775972841377087 3 0 1
1225 101 4 0 31.070422861566133 -29.817166939088885 -20.222130713581578 -1 2 2
345 28 3 0 53.2012685780174 -21.233281656355242 -20.00232850289438 1 0 0
351 28 4 0 -78.01670996998682 -6.976201412287273 -23.859160297335674 2 0 0
767 63 3 0 -41.77060681491762 -16.80697972124079 -23.423827388376694 1 -2 2
766 63 3 0 -37.32638377374969 -18.06658975156478 -27.11328034973806 1 -2 2
765 63 3 0 -33.20758476112068 -14.193118397180418 -28.375784028377577 1 -2 2
438 35 4 0 4.98957139328167 -19.775572453128675 -23.872749904945458 -1 -1 1
439 35 1 0 5.774904035604113 -16.622402364755892 -28.944543046725656 -1 -1 1
440 35 1 0 5.046358565951236 -15.297098186217333 -34.69096513306852 -1 -1 1
328 26 4 0 12.728537690299895 -3.9148957976829992 -27.250721017286132 3 0 1
326 26 3 0 21.556376765484586 -8.935756434765008 -31.991693311643328 3 0 1
327 26 4 0 16.99552257675504 -7.945877945883616 -28.6200021631059 3 0 1
325 26 4 0 26.716198202144103 -11.786373880317962 -32.10204926415077 3 0 1
905 74 4 0 39.196688711356735 -6.021505070205003 -21.40580577909415 0 -1 0
324 26 2 0 31.032954531420252 -12.940036075209674 -28.472401613360276 3 0 1
902 74 3 0 39.56097313597137 -8.325670247132308 -38.29216114135487 0 -1 0
903 74 4 0 37.70664208623659 -5.850449910685245 -32.898787054412225 0 -1 0
323 26 3 0 34.028353868867995 -17.82207193472932 -26.166875262046513 3 0 1
904 74 4 0 39.67065578424232 -4.598969074690108 -27.161818156446092 0 -1 0
346 28 3 0 57.77165519200455 -16.86402433228179 -20.840526154292775 1 0 0
347 28 3 0 64.02856116032882 -17.037317620060197 -20.671085014950048 1 0 0
350 28 3 0 76.5819498151659 -7.108103834357713 -25.15082868063413 1 0 0
349 28 4 0 71.79114937006284 -10.819463927792858 -25.497133187598894 1 0 0
348 28 2 0 68.12642870802273 -13.459865734752109 -21.936698425438358 1 0 0
309 25 3 0 -67.23161884841038 -71.40108128007164 -2.1721391131242638 1 3 0
596 48 1 0 -51.1590472395628 -66.92740709625511 -18.459315490932262 -1 1 -2
594 48 4 0 -50.69530448196417 -72.85896682769285 -10.6441061008998 -1 1 -2
595 48 1 0 -53.59800327786132 -69.66116225631392 -14.394810028650248 -1 1 -2
593 48 4 0 -51.58403749364961 -75.9604999924994 -5.64654287749833 -1 1 -2
1014 83 4 0 -37.02666436376005 -76.79733414693364 -16.010026586481803 -2 0 0
1015 83 1 0 -36.2764290014798 -78.72582428877394 -10.585982270049614 -2 0 0
1117 92 4 0 18.03367667013364 -79.47929717243954 -7.026364337888151 -2 1 1
1116 92 2 0 21.265614195589897 -77.36456381483482 -2.1947815770912453 -2 1 1
76 5 4 0 21.051099205096452 -65.07174890323874 -7.468744195028482 4 0 -2
75 5 4 0 23.057860860992157 -69.23064445248886 -11.128437594793846 4 0 -2
74 5 3 0 27.670189903675567 -72.01258547467339 -13.098537899175549 4 0 -2
73 5 4 0 31.83944407836234 -75.69906084875893 -13.216812083343182 4 0 -2
72 5 2 0 35.91860993449477 -79.33919673910286 -10.364841851274141 4 0 -2
940 77 4 0 42.24053481584576 -67.93393273145618 -1.5076093761221412 -3 0 -2
939 77 4 0 46.974213296199814 -64.56692149530468 -2.39266936219742 -3 0 -2
102 7 4 0 52.605972242278966 -67.83591128709524 -14.847905959060036 -1 1 2
101 7 4 0 54.802175813893285 -71.55798381360276 -11.147215305170992 -1 1 2
100 7 4 0 59.07968587431113 -73.41951093747129 -7.7482477751661065 -1 1 2
1124 92 1 0 48.87668462305421 -79.24431916883867 -18.510078538125345 -2 1 1
103 7 1 0 48.69023592962394 -64.88107143455727 -18.09409904385263 -1 1 2
502 41 3 0 60.547196455794555 -61.07417518439165 -17.205181869165717 0 -2 2
503 41 3 0 64.5516674841884 -61.629542944191996 -13.031266564208448 0 -2 2
504 41 2 0 68.12121242281567 -64.41955603906985 -10.077885199977628 0 -2 2
99 7 4 0 64.7101626032301 -74.6602903501621 -8.55321849845025 -1 1 2
98 7 3 0 68.85111347618769 -78.38269939266507 -11.108493142002521 -1 1 2
505 41 4 0 70.91397219782208 -65.31374881758532 -5.082707240435932 0 -2 2
506 41 3 0 71.12352797903752 -68.75309595366598 -0.5079739121404894 0 -2 2
97 7 4 0 72.01853955608483 -79.43692737448896 -15.999573076341164 -1 1 2
508 41 4 0 73.45981550178777 -79.27073800829251 -0.09982502613652465 0 -2 2
562 46 3 0 -68.71369725126051 -44.87160337508082 -5.423912903056239 1 1 -1
561 46 3 0 -64.45268079402572 -42.70207788411549 -2.524153773011484 1 1 -1
564 46 2 0 -69.96551649848885 -42.92977209268409 -16.553997753802054 1 1 -1
563 46 3 0 -69.00652317288524 -45.42165065044227 -11.138324447539299 1 1 -1
319 25 1 0 -54.995233142754195 -42.513183375513954 -3.42206072464482 1 3 0
320 25 1 0 -52.825384464166945 -41.488959690472825 -8.774158792426434 1 3 0
870 71 4 0 -48.0997146835809 -57.89607071040945 -0.31912218887801763 -1 3 -2
872 71 1 0 -39.5434882551907 -51.217425192443045 -4.868648517253428 -1 3 -2
871 71 1 0 -42.87785747700728 -55.36826914671443 -1.6331191654639972 -1 3 -2
77 5 4 0 21.267287916197578 -59.385147639470226 -5.5630680004232 4 0 -2
78 5 4 0 23.35666548367788 -55.15933397297934 -2.291410499480637 4 0 -2
79 5 1 0 23.958334324267373 -49.61943497210257 -1.3048973786040323 4 0 -2
501 41 3 0 55.9511095240499 -57.908310952847245 -18.699976312361127 0 -2 2
938 77 3 0 49.698576315647664 -59.91605795037466 -4.705381459124607 -3 0 -2
936 77 2 0 56.04478485097005 -50.90785930418635 -1.3872906073287852 -3 0 -2
937 77 4 0 52.648511406503246 -54.79794466220027 -4.7578458461308815 -3 0 -2
1088 89 1 0 76.8043645716164 -48.03857215158247 -15.643338289983074 2 1 1
1084 89 4 0 63.03895194716623 -57.23005984194927 -2.12060832920761 2 1 1
1085 89 4 0 67.32020664484646 -53.56600959021509 -2.4274769199203394 2 1 1
1086 89 4 0 69.59922115192138 -50.60079104045156 -6.804777236678288 2 1 1
1087 89 1 0 72.37611057522503 -49.86581892099554 -11.936327801869398 2 1 1
683 56 3 0 -48.200885017286346 -29.933191986934972 -15.211424109680172 5 -1 -2
682 56 3 0 -43.72837968083203 -28.469950750991664 -11.315995692262154 5 -1 -2
681 56 3 0 -37.82610689063035 -27.942987352679346 -10.980285348346909 5 -1 -2
673 55 4 0 16.87854659599658 -31.190737046700484 -18.193696522500233 1 3 1
674 55 3 0 20.085470424129824 -35.218009739867014 -15.113057058127492 1 3 1
675 55 4 0 23.47545308828829 -36.19641141540251 -10.683306547055563 1 3 1
127 9 1 0 41.60248228491599 -20.839625816218543 -10.652720380761407 1 1 -1
124 9 4 0 44.31624854128228 -32.79180401351768 -1.2939689156953968 1 1 -1
676 55 4 0 26.731959296373695 -33.9631782814926 -6.1920957668804695 1 3 1
677 55 4 0 28.491987558258923 -29.17132665992722 -3.542956274355941 1 3 1
1223 101 3 0 27.22418596594037 -21.907802925625905 -13.24398016771877 -1 2 2
1224 101 2 0 29.477120658932023 -26.5616410282703 -15.796200541995228 -1 2 2
126 9 4 0 39.35169997406946 -24.685468654523817 -6.650765278700693 1 1 -1
678 55 4 0 27.511406334967738 -23.817428909809227 -1.6575475321610185 1 3 1
125 9 4 0 41.06325661225377 -27.887341683416288 -2.0844077148094153 1 1 -1
123 9 4 0 46.94927290043514 -36.47030981639084 -5.09055097686776 1 1 -1
825 68 3 0 45.9061006964157 -34.75064110195826 -18.372745151023548 -1 -1 -3
826 68 3 0 50.25211225105282 -31.82783815985457 -15.479140326650493 -1 -1 -3
828 68 2 0 51.18625826050982 -25.96610429049244 -5.973340307057404 -1 -1 -3
827 68 3 0 51.59042464627883 -28.28172064784205 -11.63036784696779 -1 -1 -3
120 9 2 0 61.34119997095937 -33.91823743847388 -3.500556378430199 1 1 -1
122 9 3 0 52.12835471165341 -39.41891603728005 -3.8744777537446096 1 1 -1
121 9 4 0 57.48895998727149 -38.2195279243374 -2.2072894133280907 1 1 -1
829 68 4 0 51.39747865594373 -26.19926739793465 -0.17953126299049446 -1 -1 -3
118 9 3 0 64.36789442014064 -23.216697875063097 -3.067419640331329 1 1 -1
119 9 3 0 62.41508041509414 -28.43786198476267 -5.189264178662947 1 1 -1
835 68 1 0 78.04653451069515 -39.02656441403727 -0.6214775728072888 -1 -1 -3
352 28 4 0 -74.48769893785561 -7.089625467273292 -18.81781815468588 2 0 0
774 63 4 0 -63.95453006941848 -2.5190107167047353 -1.277360893304662 1 -2 2
353 28 4 0 -73.46118777116679 -3.794548295255448 -13.696862711800735 2 0 0
773 63 4 0 -61.252851182279635 -6.550134587986042 -3.9570419518381645 1 -2 2
768 63 2 0 -45.57508352659435 -16.82550932482005 -19.00746612914844 1 -2 2
771 63 4 0 -54.00526996926687 -15.16034433358748 -6.922252208172063 1 -2 2
770 63 3 0 -49.715487375163896 -17.973273744612435 -8.53069526017783 1 -2 2
769 63 4 0 -46.79367585127533 -19.596461575892036 -13.669568790874896 1 -2 2
772 63 4 0 -57.641130284705405 -11.56221443696807 -4.096828741742985 1 -2 2
1060 87 4 0 -10.516256583278434 -6.15895010858921 -7.983407124075242 2 4 -2
1058 87 3 0 -18.77448727299874 -3.5230272996250287 -1.1306067493414391 2 4 -2
1059 87 4 0 -13.88872829862312 -2.8776742668783473 -4.530759613457971 2 4 -2
1062 87 4 0 -1.9414242096658265 -6.352865796143292 -15.913523461611863 2 4 -2
1061 87 4 0 -5.743193144247778 -5.933936881228791 -11.484881096450447 2 4 -2
1063 87 1 0 3.700194978960183 -7.199000476124046 -17.658173828951046 2 4 -2
513 42 3 0 5.066679965146714 -0.4110180032592157 -4.134669573162654 -1 -1 -1
1064 87 1 0 9.459569238973023 -9.2686948746248 -17.653374403696134 2 4 -2
1222 101 3 0 22.64799609642445 -19.01772076521011 -10.785291764627742 -1 2 2
1221 101 3 0 18.02204150657058 -16.884545187806392 -7.563246378938822 -1 2 2
907 74 1 0 32.929724168316724 -10.10976835214714 -12.545669925960146 0 -1 0
906 74 4 0 35.570413565923715 -7.575785014815458 -17.171816760004013 0 -1 0
908 74 1 0 27.761285166356902 -10.792886155260309 -10.50337167959043 0 -1 0
128 9 1 0 43.35409576830898 -16.287198739225875 -14.064248683147772 1 1 -1
760 62 4 0 58.5547752658093 -4.144719349445667 -3.0479419019474814 -1 -2 0
310 25 3 0 -63.39488943380501 -73.99560615167998 1.8942071054268144 1 3 0
311 25 3 0 -62.09297425440591 -72.59907748860378 7.059502220092379 1 3 0
312 25 2 0 -59.76720458576957 -70.49413115196046 12.03255967491854 1 3 0
313 25 4 0 -55.26566871939428 -68.13973537275442 14.849349936557141 1 3 0
314 25 3 0 -52.29531461432768 -62.94798661875325 13.56693989979362 1 3 0
869 71 4 0 -51.948902941088484 -60.56252690032794 2.7968364828101153 -1 3 -2
659 54 3 0 -42.44039737878835 -69.87526276559245 16.587377306311883 1 -2 -1
660 54 2 0 -40.79142418802714 -71.79390206354174 10.960718107035646 1 -2 -1
661 54 4 0 -38.149994255688306 -76.12255571943211 7.430518997495005 1 -2 -1
949 78 4 0 -31.197451560734244 -66.23886923825246 13.371981426242991 2 1 -2
948 78 2 0 -29.319821898298464 -71.56283442188165 12.537091319368448 2 1 -2
947 78 3 0 -28.71385989946745 -77.48204711207086 13.004439986533574 2 1 -2
950 78 3 0 -33.977605359915394 -61.36080990295581 13.820379030580312 2 1 -2
372 30 2 0 1.868027093739551 -74.86667321924399 17.5891676484632 0 0 0
373 30 4 0 -3.7750769349652544 -74.58427173304653 17.88362840357797 0 0 0
1115 92 3 0 23.854971128774377 -72.79223704573367 0.26862286262599044 -2 1 1
1114 92 3 0 27.43353801817045 -68.09481076782663 2.2779802673670377 -2 1 1
1113 92 3 0 31.91667283108692 -64.36103180326981 0.08889759810411087 -2 1 1
1078 89 3 0 35.585541647020825 -65.02197916722649 10.129326736706341 2 1 1
1079 89 3 0 40.93620009998163 -63.35807330852957 10.32567729130337 2 1 1
942 77 4 0 39.42211476319708 -78.11233618098069 3.963859876332582 -3 0 -2
1077 89 3 0 30.915447615385627 -61.87580012653908 10.859157929087267 2 1 1
941 77 4 0 39.65438641517448 -72.54720481573644 1.4942425702631608 -3 0 -2
1080 89 2 0 46.49311355469102 -64.42923632540749 8.035113715562785 2 1 1
1081 89 4 0 52.68505875831192 -63.86320916331679 8.331922257978961 2 1 1
1082 89 3 0 56.238654325520415 -64.0576746813234 4.185635847598253 2 1 1
1083 89 4 0 60.1243609949665 -61.714781978375534 0.5423013763486891 2 1 1
1112 91 1 0 68.1803919099594 -61.12738012739599 11.774535771455499 1 2 -1
1111 91 1 0 70.20479884324938 -60.79744469989739 17.52745474644798 1 2 -1
507 41 4 0 74.58455378250979 -73.4803249056372 0.6067811134976756 0 -2 2
1107 91 4 0 -76.9933899749699 -44.96886319893574 18.05730326705754 2 2 -1
1106 91 3 0 -72.33238593608306 -42.32658564167305 15.268662175602808 2 2 -1
866 71 3 0 -66.4018808644554 -58.55979738858514 10.177840111364109 -1 3 -2
865 71 4 0 -67.87687881783995 -55.36324169135549 15.09349368205815 -1 3 -2
867 71 4 0 -62.6006087976769 -58.536414305426426 6.079981056210269 -1 3 -2
836 68 1 0 -76.72558912201168 -40.956668105843974 0.4666231700652741 0 -1 -3
868 71 4 0 -57.439297368938675 -59.851159962471726 3.7455421056738856 -1 3 -2
315 25 4 0 -53.11081469531675 -57.35125934747635 13.371443009965931 1 3 0
316 25 4 0 -54.50581459656413 -52.29822569780782 10.644922740074847 1 3 0
317 25 4 0 -55.50035362188122 -48.92143619157344 5.944551112499724 1 3 0
318 25 4 0 -54.23020501884172 -44.20588618627015 2.4004627627838193 1 3 0
951 78 4 0 -36.75487755291765 -56.4472337968299 15.13701426899443 2 1 -2
952 78 4 0 -39.91356567629692 -52.904852480531986 18.805276889080726 2 1 -2
1220 100 1 0 3.665304510665049 -46.857545641039735 8.581945446436938 1 1 -1
1219 100 1 0 8.743877384013684 -45.05839133580125 6.254651610940755 1 1 -1
1218 100 4 0 12.777630533599538 -41.09048528076337 8.030235136727926 1 1 -1
80 5 1 0 20.62441334485147 -44.92126043287824 0.5585931611362366 4 0 -2
935 77 3 0 60.591567351010184 -47.74548146925796 0.9886355462878749 -3 0 -2
1108 91 4 0 78.57275394196026 -47.43155557296008 16.05976679755985 1 2 -1
1109 91 4 0 73.78730024460974 -50.43481877633871 18.16890609260745 1 2 -1
934 77 3 0 64.56867852003127 -45.512573650508166 4.465653730416742 -3 0 -2
1110 91 4 0 70.93779967876424 -55.39196372198757 19.717862196614497 1 2 -1
933 77 3 0 70.33441123338348 -43.838082102964975 4.625875211013607 -3 0 -2
1105 91 4 0 -67.78912383104436 -38.32035287806517 15.811634129257328 2 2 -1
1104 91 2 0 -65.18754815269236 -34.3845796844242 19.7405384325213 2 2 -1
1053 87 3 0 -24.66047918211039 -24.05281991543605 11.095662684256384 2 4 -2
1216 100 4 0 17.98125344025044 -37.84190657631569 18.044776440369365 1 1 -1
1217 100 4 0 16.8633694438857 -38.79657607721075 12.005232811143427 1 1 -1
288 23 2 0 25.110128624810567 -28.32278666696079 14.58778967484105 -2 1 1
289 23 4 0 24.288605576186182 -22.639062268132815 16.64768031491591 -2 1 1
679 55 1 0 26.1922954734582 -21.022846307405207 3.6851674657758524 1 3 1
285 23 3 0 37.864540278965734 -38.75384049160153 10.135469791201823 -2 1 1
286 23 3 0 33.97159151336778 -36.25881466182328 13.899559328190426 -2 1 1
287 23 3 0 29.42686445894733 -32.34625957979432 13.795012681266039 -2 1 1
830 68 3 0 53.35564458816547 -28.658719622576335 4.814771841286111 -1 -1 -3
831 68 4 0 58.50345144732636 -30.659514502731778 7.0647650829564945 -1 -1 -3
741 61 3 0 79.70289695860286 -22.86366698807228 19.667874344841778 0 1 1
832 68 4 0 64.4538712029139 -32.208306377284416 7.319134292862304 -1 -1 -3
833 68 4 0 70.45505162116731 -32.64053760868561 5.261297759630143 -1 -1 -3
834 68 4 0 74.79491347022326 -34.44490509038428 1.1760720447986817 -1 -1 -3
754 62 3 0 62.283395166959565 -24.472230201395398 17.05672437939503 -1 -2 0
356 28 1 0 -78.23108325613988 -0.29899344618755097 0.42464080995979925 2 0 0
713 58 4 0 -35.71750179626768 -9.952605671655117 11.06306360157403 1 -1 1
714 58 4 0 -35.75081987634224 -15.056351611893996 14.03217717601611 1 -1 1
712 58 4 0 -31.788116984793405 -6.347119546810434 9.229732518948897 1 -1 1
1054 87 3 0 -28.357145229468735 -19.718982775327156 10.353042016045421 2 4 -2
1055 87 3 0 -28.639661698776017 -16.213489188202498 5.673534241220297 2 4 -2
715 58 1 0 -35.595963161181025 -19.4239511054647 17.89310637943995 1 -1 1
524 42 1 0 -34.122566550088486 -0.8049768812069332 18.24494907165684 -1 -1 -1
711 58 4 0 -26.549467037234464 -3.4252074001693535 10.810842187743887 1 -1 1
1057 87 4 0 -20.960605411980136 -8.543867496019693 1.308136131546975 2 4 -2
1056 87 2 0 -25.55774442608571 -11.596533075175852 3.444267140264216 2 4 -2
709 58 4 0 -16.276963339340362 -0.6499263254573979 10.58374659857019 1 -1 1
710 58 3 0 -21.222337327557106 -2.5755127103600564 13.221159678279065 1 -1 1
707 58 3 0 -5.6465113103399975 -2.868435520801113 9.908614881658469 1 -1 1
706 58 3 0 -2.080492399914192 -6.676348405583713 12.343130744263087 1 -1 1
705 58 3 0 -1.2824620433720517 -12.065695996815451 13.512292088139324 1 -1 1
680 55 1 0 24.435092726131863 -15.745695963326368 5.525089105939072 1 3 1
755 62 3 0 59.72407587505019 -19.213466973208664 16.18676466411509 -1 -2 0
757 62 4 0 59.89120322110606 -8.484071137889668 13.9477171321583 -1 -2 0
758 62 3 0 60.333014388092295 -6.182495771804761 8.289087167524869 -1 -2 0
759 62 4 0 59.98225721389548 -6.137565690027223 2.7177212420808092 -1 -2 0
756 62 2 0 59.178080193899596 -13.384471022057758 17.060596021772866 -1 -2 0
117 9 3 0 65.53786855917933 -18.50675663974646 0.05439502941545098 1 1 -1
658 54 3 0 -41.993778820391555 -68.6389016972197 22.187918104503087 1 -2 -1
657 54 3 0 -40.49901658144082 -71.28225607617645 27.134465978521213 1 -2 -1
376 30 4 0 -10.168807628659126 -68.65895103302542 29.261914572263994 0 0 0
375 30 4 0 -10.484005882584627 -72.56626949536303 25.416881258954785 0 0 0
374 30 3 0 -9.350586899104416 -73.88455128868593 20.04550162299632 0 0 0
377 30 4 0 -7.750637078616861 -67.16178596649057 34.43587648702771 0 0 0
378 30 4 0 -5.711214376575726 -63.38519357557199 37.9755512900809 0 0 0
878 72 3 0 0.7294770725010868 -78.52353884249945 33.01268977201763 3 0 -1
877 72 4 0 1.1370047754984232 -74.56955232481724 29.212223930118462 3 0 -1
876 72 2 0 -0.5993915415896935 -68.94203474333376 28.611027454135506 3 0 -1
875 72 3 0 -0.1713694036938416 -63.7790546369019 26.402749407045974 3 0 -1
244 19 4 0 7.103093188933451 -62.91913378714706 35.61291442391257 1 -1 1