LAMMPS data file via write_data, version 29 Aug 2024, timestep = 100000000, units = real

1032 atoms
4 atom types
931 bonds
1 bond types
830 angles
1 angle types

-80 80 xlo xhi
-80 80 ylo yhi
-80 80 zlo zhi

Masses

1 329.2
2 305.2
3 345.2
4 306.2

Bond Coeffs # harmonic

1 7.5 5.9

Angle Coeffs # harmonic

1 5 150

Atoms # full

291 27 4 0 -79.46801923632454 -76.49897845690842 -68.96275588072753 0 0 1
576 56 2 0 -29.90213669883957 -79.0020596108225 -79.1915758666246 0 0 1
253 24 3 0 28.741145687548137 -69.36359430654424 -75.0094706549832 0 0 -1
254 24 3 0 32.530018245659875 -66.17438402050146 -78.29813370069367 0 0 -1
502 48 4 0 44.19838110753965 -74.3735331698371 -74.41330232410516 -2 0 0
555 54 3 0 44.131189009365116 -62.431603186484196 -68.29845720775594 0 0 1
554 54 3 0 46.15196325071687 -67.92558704425346 -67.57694305316723 0 0 1
553 54 3 0 45.8697573128896 -72.79897582060434 -64.55289372971126 0 0 1
481 46 4 0 70.81803334852576 -60.13994052729365 -73.23510017978538 3 0 4
480 46 4 0 72.57780472258773 -64.21204530361031 -77.40771780128333 3 0 4
292 27 4 0 77.5352284426949 -77.49664497316934 -63.7872574718248 -1 0 1
290 27 4 0 77.8345313348303 -78.32989836156013 -74.12067314516388 -1 0 1
459 44 4 0 -59.60598456097254 -52.80531434012196 -68.80498946861998 1 -2 0
460 44 4 0 -58.03224411673756 -56.441175279811986 -63.913713277021465 1 -2 0
458 44 3 0 -58.72259391559603 -47.809167263465895 -72.17929392518187 1 -2 0
915 90 3 0 -47.89099917489482 -49.080642141467855 -66.20609026662338 2 1 2
457 44 2 0 -54.04124428927971 -45.32479389894799 -74.99052571458071 1 -2 0
456 44 2 0 -50.40697113134991 -40.86316978766588 -77.14929358308 1 -2 0
916 90 2 0 -45.010152288398956 -50.376266267649626 -71.38937149975958 2 1 2
914 90 3 0 -50.09925041803409 -45.66548942230141 -61.79279353302207 2 1 2
917 90 2 0 -42.91932369679313 -49.933759440984396 -76.6133605250793 2 1 2
322 30 4 0 -29.498973429311288 -51.64526281620723 -79.83217109894412 1 -1 1
918 90 3 0 -39.073081350438244 -47.5755336269242 -79.99692071475744 2 1 2
320 30 4 0 -21.421334312333894 -50.74578531822526 -72.16274972850739 1 -1 1
319 30 4 0 -16.07533958251054 -48.97034801117885 -70.39122530455111 1 -1 1
321 30 4 0 -25.302281821514637 -50.168428538312774 -76.60414009593514 1 -1 1
318 30 3 0 -11.471446254454186 -45.64557438359136 -71.65723809711828 1 -1 1
317 30 2 0 -6.576302253142876 -41.959694410064124 -71.34846050051001 1 -1 1
243 23 3 0 -5.831995353566435 -50.639524842163496 -64.54422149101208 -1 1 -1
246 23 2 0 5.808310859017143 -43.37773808228931 -71.25988454825428 -1 1 -1
245 23 3 0 3.715395557980543 -48.616813878401324 -70.2786489325675 -1 1 -1
244 23 3 0 -0.5502680719060604 -50.824559214087586 -67.0278222327916 -1 1 -1
612 59 4 0 15.13336847066971 -56.85929302620202 -71.10812413923861 1 1 3
611 59 4 0 18.754792096253034 -58.37277791366478 -66.97570903160026 1 1 3
610 59 4 0 22.461690743900906 -56.18012436936959 -62.58594653737566 1 1 3
556 54 2 0 41.11224865270966 -58.34665731828094 -70.7730030980959 0 0 1
558 54 3 0 32.88326861858667 -53.64903841473666 -76.60597178828368 0 0 1
557 54 2 0 36.462900238154134 -55.850311411553335 -72.3197904103114 0 0 1
482 46 4 0 72.50618956877504 -58.84518838456901 -67.77648707401012 3 0 4
455 44 3 0 -46.59967381751195 -37.03136018219649 -75.60994066250316 1 -2 0
453 44 3 0 -37.384487645173024 -35.225239326376574 -68.90308987227198 1 -2 0
454 44 3 0 -41.19303359342074 -37.28055120834214 -73.36165503896702 1 -2 0
316 30 2 0 -4.359561739569374 -37.5945568215116 -67.8468813467091 1 -1 1
247 23 2 0 8.253937519481742 -38.49738321981666 -70.8576479492124 -1 1 -1
315 30 3 0 -2.183125206979413 -36.124551872394804 -62.913957338600966 1 -1 1
248 23 3 0 11.073860917838616 -35.24851286058314 -66.75213249748347 -1 1 -1
249 23 4 0 10.120039097749952 -32.15584625538966 -61.80340375496509 -1 1 -1
822 80 4 0 -45.97741004297834 -19.709581054525948 -70.51514304672875 2 -1 0
818 80 3 0 -35.09161755841562 -0.2324847195367525 -68.23975563928099 2 -1 0
821 80 4 0 -43.19830685635062 -14.44350373567613 -69.33421468810963 2 -1 0
820 80 4 0 -39.050724391388584 -10.291736267856228 -70.03212271901198 2 -1 0
819 80 4 0 -37.022111055095536 -5.392684042605003 -67.19785274785775 2 -1 0
462 44 4 0 -54.682712925433925 -61.732853134523445 -53.95843665279758 1 -2 0
731 71 4 0 -19.2114083770002 -78.74487529007406 -42.65366766148388 4 1 0
732 71 4 0 -24.597582774238326 -77.50133415872102 -43.734769796630594 4 1 0
911 89 4 0 -1.0027072351427413 -74.52631096912141 -45.21266438854951 -1 -3 0
912 89 4 0 1.7808961361656586 -77.68859024077727 -49.3695295079529 -1 -3 0
932 91 4 0 21.602508711498974 -77.59138765455302 -57.71773800308332 0 1 -1
931 91 4 0 23.602543109479075 -72.27353811051476 -55.74224669400237 0 1 -1
383 37 3 0 16.78230087830188 -65.37347166778788 -43.84080584845565 0 -1 4
930 91 4 0 27.290836918623743 -69.28395731314444 -52.319900723231925 0 1 -1
929 91 4 0 29.43019424955308 -67.86025126356591 -47.01990015023178 0 1 -1
928 91 3 0 30.30622609608701 -69.35986646340791 -41.124569734535086 0 1 -1
84 7 3 0 41.737070007212715 -64.85308870023636 -46.18163602059241 0 1 2
85 7 3 0 38.87036982457194 -61.298689278117585 -42.42737027322637 0 1 2
83 7 3 0 46.98911673700542 -66.65934616987585 -46.815132882682306 0 1 2
452 43 4 0 45.37755366244845 -79.27218222020149 -46.466375263616065 -3 -2 2
444 43 3 0 73.7687206270596 -78.30493693779924 -46.41366418539747 -3 -2 2
443 43 3 0 77.08368010415022 -74.28745346031546 -48.96584336173928 -3 -2 2
572 55 4 0 -68.82289259085525 -45.40025389252491 -50.040308155331644 -1 1 1
571 55 4 0 -71.3986328126239 -41.49996778567818 -53.43240139144001 -1 1 1
524 51 3 0 -66.74314576163262 -42.26764598512706 -40.112513341649986 1 2 0
461 44 4 0 -55.22384829661116 -57.7148575702952 -58.535609797378065 1 -2 0
913 90 3 0 -52.330968984066814 -40.8935057997608 -58.69124783504635 2 1 2
313 30 3 0 5.456980425040071 -42.34213542655639 -56.230386310959474 1 -1 1
116 10 2 0 24.697332013837535 -44.89603567955545 -44.4873378316255 0 0 0
115 10 3 0 23.44995265881848 -44.52930866067598 -50.464958570590596 0 0 0
90 7 4 0 15.51277187195974 -48.517002974160214 -40.824007607440194 0 1 2
114 10 3 0 26.237386363871245 -41.326704656960445 -54.47155609472576 0 0 0
609 59 4 0 27.92993220403527 -54.84786588938391 -59.67490095304436 1 1 3
608 59 3 0 31.74721778916763 -53.149916598015565 -55.1954978313124 1 1 3
607 59 2 0 32.00995746275554 -52.631343368064215 -49.02513122224727 1 1 3
606 59 2 0 35.35418301886561 -49.4443707520912 -45.27760186705129 1 1 3
605 59 3 0 37.688875526850396 -47.370436664399165 -40.12391641120898 1 1 3
86 7 2 0 33.47686391412609 -59.93021373931083 -40.07158112360767 0 1 2
242 22 4 0 77.76701205598654 -52.6993057959808 -41.05825536120293 0 1 1
570 55 4 0 -72.9658642332535 -36.03093029090807 -54.09988031103246 -1 1 1
569 55 4 0 -72.68953032271641 -31.03808291513849 -50.65550116381964 -1 1 1
568 55 3 0 -69.78723852160668 -25.94686899877444 -50.49725074635222 -1 1 1
525 51 3 0 -63.65851896993707 -39.69983143219387 -44.47975210296122 1 2 0
954 94 3 0 -77.2553539992593 -21.012906572236005 -43.225408727154395 0 2 2
567 55 2 0 -67.92670326919826 -21.429030287344375 -53.18008295672223 -1 1 1
956 94 2 0 -66.6165144799653 -22.150195220737995 -40.272606677271455 0 2 2
955 94 3 0 -72.44154354956511 -22.845901292108092 -40.647486206464684 0 2 2
957 94 2 0 -62.376336551863155 -20.236494393070206 -44.19547957259923 0 2 2
526 51 2 0 -60.99743092442903 -36.59904298466218 -48.505649782812974 1 2 0
527 51 2 0 -60.045352970017795 -32.284061739912694 -52.27948760664658 1 2 0
804 79 3 0 -48.24481333217517 -31.615497644650702 -45.42326998568959 3 -3 -1
528 51 3 0 -58.505521934278114 -26.571186805444874 -52.5879935685475 1 2 0
529 51 4 0 -57.260856857258354 -21.146597373930124 -55.01655277894145 1 2 0
805 79 3 0 -51.854354248261785 -28.95015594348232 -41.56073495899724 3 -3 -1
803 79 3 0 -43.48350980877035 -34.42394796619898 -48.09337361289217 3 -3 -1
314 30 3 0 1.9741857646299743 -38.10586812747184 -58.93374964161053 1 -1 1
251 23 4 0 5.012432096388891 -24.022563160252236 -57.53476410986916 -1 1 -1
250 23 4 0 6.700118336222325 -29.24401798403065 -58.408540012989235 -1 1 -1
113 10 3 0 31.167410771562565 -38.1888146852083 -55.661320004300336 0 0 0
566 55 2 0 -67.49508015905566 -15.705306151181412 -51.62874151108922 -1 1 1
565 55 3 0 -64.55941525952171 -11.445433090608798 -48.954901249086916 -1 1 1
953 94 3 0 -79.60890562620528 -16.115162024021522 -43.45552195753181 0 2 2
532 51 4 0 -59.5180807399783 -5.535420634415235 -58.9491999680189 1 2 0
531 51 4 0 -56.695525163879175 -10.885695287639624 -58.854447447877355 1 2 0
530 51 4 0 -58.498595837518295 -16.21520263511168 -56.70420532116193 1 2 0
564 55 3 0 -61.94577851291825 -6.527174019532087 -47.81932652692181 -1 1 1
958 94 3 0 -56.97756311816111 -18.319753574261224 -42.9127110325023 0 2 2
563 55 3 0 -56.23493625440796 -4.824831908896198 -47.64540187654806 -1 1 1
252 23 4 0 2.059610362267503 -19.17373841447707 -55.38272332647226 -1 1 -1
395 38 3 0 -68.95588966837754 -66.71027287297761 -30.462037264913423 -2 -1 2
396 38 2 0 -65.34372403422562 -69.35385141687685 -26.779926813309928 -2 -1 2
394 38 3 0 -74.35429880655299 -66.46919626788089 -33.23930061632874 -2 -1 2
397 38 2 0 -64.19194179914346 -74.67053286341871 -24.80283906545686 -2 -1 2
393 38 3 0 -79.24749450593168 -69.05272629111847 -32.329063931621675 -2 -1 2
237 22 2 0 -71.38983839946016 -62.42515976055664 -20.239704079150155 1 1 1
398 38 3 0 -62.51693491844246 -77.64980591839614 -20.191637373649648 -2 -1 2
130 11 4 0 -51.48226784679963 -79.96243269689255 -26.29925806314782 0 -1 -1
129 11 4 0 -51.2917612257266 -75.30646888775844 -23.330472506808366 0 -1 -1
904 89 3 0 -29.944295907150902 -66.2395189269738 -34.123962549775776 -1 -3 0
903 89 3 0 -35.64916990321541 -64.89422684332304 -32.83266457711964 -1 -3 0
542 52 4 0 -28.303721417232698 -63.54729667923009 -23.644518004899773 2 2 0
905 89 3 0 -25.10852138232313 -67.81713632536426 -37.05331847991046 -1 -3 0
906 89 2 0 -19.21545052511877 -68.91707371875152 -36.59343624978521 -1 -3 0
539 52 4 0 -15.545547775743836 -70.97564431658017 -26.53200421651286 2 2 0
907 89 2 0 -14.197209033776888 -67.11476359030544 -38.32494480998541 -1 -3 0
540 52 4 0 -19.183391473636867 -68.40545052170074 -22.693464749783917 2 2 0
538 52 3 0 -10.701884738195329 -73.53248832670234 -26.339082883158845 2 2 0
541 52 4 0 -24.031507539889358 -66.22764828572004 -20.986345496205303 2 2 0
910 89 4 0 0.04552069872138551 -72.5548043655175 -39.82501933331243 -1 -3 0
908 89 3 0 -8.619512653852915 -66.22665990010698 -36.535769073804 -1 -3 0
909 89 4 0 -3.5787919926358214 -69.08644813563305 -36.572913681848846 -1 -3 0
537 52 2 0 -8.84823198375609 -77.94022519588098 -29.578147544761393 2 2 0
384 37 3 0 20.522773801361584 -67.37329535952779 -39.3645357557286 0 -1 4
769 75 4 0 11.694767824497227 -70.91045007830556 -25.104644507287578 -1 -2 2
771 75 4 0 10.977961593158339 -61.1523612827933 -29.483159794056952 -1 -2 2
770 75 4 0 10.268767666085205 -67.18699180824161 -29.56078088459713 -1 -2 2
385 37 3 0 21.2137477202807 -72.38554895885984 -36.92107666732348 0 -1 4
386 37 2 0 24.175444521575425 -75.37231613051173 -32.63912808617466 0 -1 4
387 37 2 0 23.54275537736077 -75.80684881259509 -26.810850358601133 0 -1 4
768 75 3 0 10.044854049478856 -76.13966229746707 -24.38682493753766 -1 -2 2
388 37 3 0 23.25573836518478 -73.40520234890927 -21.474863366147268 0 -1 4
925 91 3 0 29.486518983803734 -63.33286498579546 -27.338924053760326 0 1 -1
927 91 2 0 33.44924776850017 -69.42051317121202 -36.271757630883236 0 1 -1
926 91 2 0 32.4167230654546 -67.035270532886 -30.984468428710034 0 1 -1
733 72 3 0 58.17252791621468 -68.94160443861811 -25.06811536779979 0 0 2
734 72 3 0 60.85949066082053 -72.16648371833341 -29.254302392820893 0 0 2
737 72 2 0 74.51505263328092 -78.38020726003103 -32.72082293727851 0 0 2
735 72 3 0 64.43008720801394 -76.75855331299131 -28.31321492827022 0 0 2
736 72 2 0 69.08387551587549 -78.98456623233943 -30.541407807100867 0 0 2
523 51 3 0 -69.0781563822997 -47.24206151816239 -37.79022019008464 1 2 0
240 22 4 0 -77.0150079383118 -51.16932364116724 -30.726765372350705 1 1 1
239 22 4 0 -73.14197959002196 -53.99003401715602 -27.357175156007568 1 1 1
241 22 4 0 -78.73867329942502 -50.990436933894934 -36.438036684411685 1 1 1
238 22 3 0 -70.70670525994827 -59.17999333579087 -25.31967279889499 1 1 1
92 7 4 0 8.336839546406 -40.20205312408775 -38.76852993065915 0 1 2
91 7 4 0 11.056522125306886 -45.375766009993114 -38.35950347420543 0 1 2
89 7 4 0 18.17595745274458 -54.02409236590252 -39.956743989061195 0 1 2
772 75 4 0 14.042293267208107 -58.222554792126566 -25.267980853598814 -1 -2 2
88 7 3 0 22.65873853400599 -57.010705885722686 -37.95205185985007 0 1 2
923 91 3 0 25.019433653152607 -54.63571284481548 -22.848096957783188 0 1 -1
924 91 3 0 24.70356600934059 -59.9906377253562 -25.548207129687942 0 1 -1
117 10 2 0 27.021065986997748 -44.36429941727934 -39.173691005789934 0 0 0
87 7 2 0 27.88502645820036 -59.59640266993541 -38.94645690374416 0 1 2
604 59 3 0 40.51263917259791 -43.575077898847525 -36.69002555720543 1 1 3
121 10 4 0 38.396050134522554 -56.223904263179705 -24.600159288595133 0 0 0
118 10 3 0 28.454168446802143 -46.91179148782054 -33.987006203446946 0 0 0
120 10 4 0 34.1070027966776 -52.64045837993986 -27.094371389104268 0 0 0
119 10 4 0 30.63787232500527 -52.28021674346831 -31.706196190021696 0 0 0
122 10 4 0 42.81559857544705 -59.28535992744179 -27.825156701794143 0 0 0
808 79 3 0 -63.55067119142855 -30.82438918987434 -29.548471220322718 3 -3 -1
809 79 4 0 -64.10643591936547 -27.83798560548808 -24.624410347337363 3 -3 -1
806 79 2 0 -57.08877168777238 -29.23771665342356 -38.11701287443547 3 -3 -1
807 79 2 0 -59.729380633053225 -32.20379753902407 -34.00773188884948 3 -3 -1
962 94 4 0 -54.32595787845816 -25.600140923814916 -26.961874183645765 0 2 2
961 94 4 0 -54.84249296027791 -20.020334377581158 -28.10844662970922 0 2 2
603 59 3 0 41.05629232925524 -37.676494408179536 -35.182852115910904 1 1 3
651 63 4 0 30.920384067484452 -26.27260941670183 -20.929140515794053 -2 0 -1
650 63 4 0 32.54802428987688 -21.10021640279406 -23.59675008348863 -2 0 -1
960 94 4 0 -55.600772363258876 -15.575441080155404 -32.04228883694098 0 2 2
959 94 4 0 -56.48996636503614 -15.411725119657698 -37.84962555417931 0 2 2
663 65 3 0 20.19200747550153 -10.139552367441036 -25.29868147934393 -1 -1 2
664 65 3 0 23.01301179856757 -12.169497663696314 -20.413420571092665 -1 -1 2
649 63 4 0 32.74381323721548 -15.238395874450124 -22.812731793598967 -2 0 -1
648 63 3 0 32.27135135857035 -10.177715662184482 -20.223470902672187 -2 0 -1
235 22 3 0 -71.1806436213172 -72.61262877532799 -14.60652830717323 1 1 1
236 22 2 0 -70.36031446325211 -67.24526738937935 -16.835837362947487 1 1 1
234 22 3 0 -73.85132070321828 -78.16280950147299 -15.114074740155166 1 1 1
124 11 3 0 -65.79163501932253 -61.5860268200539 -4.172972295360388 0 -1 -1
400 38 4 0 -58.568937920069246 -76.24743301042753 -9.398239136991101 -2 -1 2
401 38 4 0 -58.04695493022477 -74.28981561089219 -3.796136011136229 -2 -1 2
399 38 4 0 -60.3560827565446 -78.05609082336858 -14.996261131263566 -2 -1 2
128 11 3 0 -52.56415587048435 -72.80200402205807 -17.72982030242614 0 -1 -1
127 11 2 0 -54.14973562966996 -68.88707714787462 -13.627806843119725 0 -1 -1
126 11 2 0 -57.61926798048496 -64.68852347708557 -11.582616078538837 0 -1 -1
125 11 3 0 -60.41138592650642 -62.773564734370815 -7.071549221212174 0 -1 -1
312 29 4 0 -46.58259268779022 -65.47463541405719 -5.306178677416943 1 2 -1
311 29 4 0 -50.933242201232915 -65.21310796367509 -1.6945173620679361 1 2 -1
623 61 3 0 -31.655015261671632 -63.90509954827498 -1.1594396275940932 0 3 0
693 68 3 0 -0.10747593592853688 -73.3193309059785 -15.125113849523874 -3 2 -1
694 68 3 0 -2.419469614042082 -77.58323203758556 -18.943030027129744 -3 2 -1
389 37 4 0 19.671267262533153 -73.50184332965887 -16.99719522784325 0 -1 4
390 37 4 0 18.703267822918065 -76.73388858210768 -12.278579858476752 0 -1 4
602 58 4 0 14.788561628680425 -78.20624153100357 -0.1819271056016521 -1 0 -2
863 85 3 0 16.684160061931646 -50.41984162338116 -18.707271785861806 0 3 0
866 85 2 0 13.125795969423375 -59.44871968320619 -4.410337966608427 0 3 0
865 85 3 0 13.587412601379635 -57.75901956030785 -10.297845772906642 0 3 0
864 85 3 0 16.140370752213542 -53.8458746115906 -14.043146301100863 0 3 0
597 58 2 0 26.851228669353812 -53.222469279660075 -0.9370743070386681 -1 0 -2
811 79 4 0 -62.94282029950429 -28.978327084907715 -13.15896087606383 3 -3 -1
810 79 4 0 -62.4555291231581 -26.439795462255084 -18.833982414921838 3 -3 -1
812 79 4 0 -62.62457478899098 -32.96869209531756 -8.783274940052634 3 -3 -1
1012 99 4 0 -14.363252355324066 -24.38967456062651 -9.185706146999712 -1 0 0
1011 99 4 0 -10.588168991247391 -21.610817840530974 -5.588001352446923 -1 0 0
652 63 4 0 32.03429614240774 -29.815162473776745 -16.289470440275863 -2 0 -1
692 67 4 0 -79.56555366811557 -17.052043012242912 -15.614611569756345 0 1 0
691 67 4 0 -73.93324027038038 -16.095036486502725 -14.439383152607133 0 1 0
690 67 4 0 -70.53400550781365 -17.449230054048282 -9.326526290528902 0 1 0
689 67 4 0 -69.8879118687236 -13.833685013250681 -4.72196993541055 0 1 0
688 67 3 0 -65.43958600312388 -10.704887639550813 -2.641586390285986 0 1 0
687 67 2 0 -64.1188308023157 -5.800666757905949 -0.38834826284477536 0 1 0
1010 99 4 0 -10.389390303061154 -18.949611830839775 -0.301048110265477 -1 0 0
1006 99 2 0 0.2543997576595996 -0.8010967319444995 -5.051788332157364 -1 0 0
103 9 3 0 0.23507944515612453 -19.14603788145259 -8.781632503891187 -3 0 -3
105 9 3 0 -7.60148501724591 -10.499800552071958 -11.07877383087775 -3 0 -3
106 9 2 0 -7.717262411079968 -4.748982053205378 -12.469483626565987 -3 0 -3
104 9 3 0 -4.265897847183065 -15.301104536028168 -11.419571602913564 -3 0 -3
1007 99 2 0 -2.9539268282493554 -4.945516268177731 -2.229007906907654 -1 0 0
665 65 3 0 23.950995126688678 -9.18308033603997 -15.040512915531947 -1 -1 2
666 65 2 0 25.170980333413123 -5.321095870097316 -10.246778293417448 -1 -1 2
646 63 2 0 34.85728046283992 -0.5282340615590663 -15.37836410999739 -2 0 -1
647 63 2 0 35.32173777866191 -6.486020856357495 -16.510927165251235 -2 0 -1
667 65 2 0 27.70766682127273 -0.4234011560977006 -7.6316509769017795 -1 -1 2
182 16 4 0 79.54552505310852 -0.7537348567835875 -4.7720309766234665 3 -2 -1
195 18 3 0 62.80686548930201 -0.1308765543183033 -5.085952359071436 -1 -1 2
194 18 3 0 66.19247603669375 -3.6764446697456807 -8.267380472968494 -1 -1 2
193 18 3 0 70.87909433922738 -6.814108772589674 -7.886541765603983 -1 -1 2
941 92 4 0 -74.3848062222133 -60.0051867628837 18.03894577754425 0 2 -1
143 13 3 0 -62.413267983744525 -63.94050219238795 17.18231876432137 0 2 1
123 11 3 0 -68.74182897223214 -62.388837860005076 0.7994216511159846 0 -1 -1
308 29 3 0 -52.367637791574026 -66.85511791442029 11.587078966890838 1 2 -1
310 29 4 0 -52.66584427962408 -61.24698952035218 2.4832078963785236 1 2 -1
309 29 4 0 -54.107760355706915 -63.20163301364334 7.664674098338347 1 2 -1
307 29 2 0 -49.21023300892844 -67.32556118488014 16.800382465309156 1 2 -1
933 92 3 0 -52.326939815177724 -78.16305583747574 18.580048529808973 0 2 -1
402 38 4 0 -55.93379847788404 -74.11639252711836 1.6514633188147096 -2 -1 2
878 86 3 0 -36.9413016955396 -65.84602692569543 12.847406355655634 -1 3 3
624 61 3 0 -36.39959497175091 -63.419339027025025 2.229010285561556 0 3 0
879 86 4 0 -33.626881620777525 -70.73109216309557 12.80686424279322 -1 3 3
880 86 4 0 -28.153928112653464 -70.93472708630746 14.488329150048619 -1 3 3
877 86 2 0 -36.73291213626224 -60.32694338814815 15.618467444803127 -1 3 3
881 86 4 0 -22.792843102928433 -69.65394469256368 15.58475063362415 -1 3 3
882 86 4 0 -17.06538345714208 -69.70454134040865 16.201707283919582 -1 3 3
293 28 3 0 6.715663823217225 -64.16959416798011 1.4529392556637102 3 -2 1
294 28 3 0 9.30285739515527 -64.26026398038084 6.556695746107316 3 -2 1
295 28 3 0 14.096753434248852 -65.45983407569997 9.299480202719604 3 -2 1
296 28 2 0 19.51776839208765 -63.87582243191993 11.409014618872767 3 -2 1
601 58 4 0 17.55398921801896 -73.9094610845652 2.9838360787089524 -1 0 -2
297 28 2 0 24.007122807151024 -60.85128177859471 14.204405947722222 3 -2 1
487 47 2 0 23.20994874121096 -77.8237840656479 17.076696885612183 0 -1 1
599 58 4 0 25.23845066465113 -65.20281876473084 1.3733348719660572 -1 0 -2
600 58 4 0 20.894996292921718 -69.13789693102686 1.8653363937169694 -1 0 -2
486 47 2 0 28.338582328087522 -75.52025417818481 15.97019021478187 0 -1 1
484 47 3 0 34.78925314116169 -68.27035988151935 10.078082348352636 0 -1 1
485 47 3 0 30.36459837953973 -71.50021698746109 11.610079282371334 0 -1 1
483 47 3 0 40.09240700407518 -66.90950338327866 7.7436264259787 0 -1 1
942 92 4 0 -77.50928294293944 -57.3782603859367 14.247384275596808 0 2 -1
791 77 4 0 -62.452763184058135 -40.70203521310091 14.533865346113307 2 0 2
628 61 3 0 -51.308959211800705 -54.18533401864808 16.296633389754167 0 3 0
627 61 2 0 -48.34729442981121 -55.731814216014534 11.338788847041673 0 3 0
626 61 2 0 -44.826294510285315 -55.95783632207538 6.317791411060796 0 3 0
792 77 4 0 -57.60758872775037 -42.08456278653408 11.92250594420368 2 0 2
873 86 3 0 -47.49569784499197 -41.37005196315016 19.05534767916335 -1 3 3
625 61 3 0 -39.84908179826166 -58.58331108395524 3.5875538660271573 0 3 0
874 86 3 0 -43.121010360922334 -45.205057523439294 19.002511753915954 -1 3 3
876 86 2 0 -39.21764381164411 -55.26394273293513 16.759380541184974 -1 3 3
875 86 3 0 -39.33736745818268 -49.39960904200126 17.27380645985281 -1 3 3
870 85 4 0 16.90598093330981 -48.271320894236574 13.226189188457864 0 3 0
869 85 4 0 18.141093535482682 -52.99126795639043 10.069101518425828 0 3 0
868 85 3 0 15.44095443514085 -56.02050126788364 5.664031478626108 0 3 0
867 85 2 0 12.235839792151403 -56.351765845545934 0.6073258305492448 0 3 0
871 85 4 0 17.492344987932416 -44.62423430248942 18.20994237042605 0 3 0
595 58 3 0 24.647596867507126 -43.45059337996326 4.906029914690633 -1 0 -2
596 58 2 0 26.136295183454017 -48.11291111417492 1.939790519004079 -1 0 -2
598 58 3 0 25.93934514298784 -59.30783236484713 0.12433721642275122 -1 0 -2
298 28 3 0 28.414318518913454 -57.47732961816905 11.958551788962197 3 -2 1
594 58 3 0 27.53849808157152 -40.346623575214494 9.510022338388314 -1 0 -2
299 28 4 0 31.86092822727925 -54.65879590543243 8.55398680329434 3 -2 1
300 28 4 0 36.23564544375682 -51.68944630735573 8.107966196465355 3 -2 1
301 28 4 0 42.0026550554874 -52.596972154292565 8.641598647695394 3 -2 1
302 28 4 0 46.95450371125725 -50.144247081343806 10.362311336535278 3 -2 1
790 77 4 0 -64.71733796678963 -38.37746480731624 19.58089284323547 2 0 2
758 74 3 0 -74.12542567996992 -31.809260778530632 11.471052427955975 1 2 -2
759 74 4 0 -79.01873893315107 -34.37742134973164 9.95738892888728 1 2 -2
757 74 2 0 -68.21127371383686 -32.31076920377355 11.379863143252857 1 2 -2
756 74 2 0 -63.066811727067126 -29.889619526825864 12.065022806775515 1 2 -2
755 74 3 0 -58.65936499745799 -27.4089112444643 14.804621957134948 1 2 -2
754 74 3 0 -54.43608857745691 -27.67539868166648 18.642343270494273 1 2 -2
753 74 3 0 -48.69650515194346 -28.850980271723536 18.14446339216081 1 2 -2
593 58 3 0 25.186015579333752 -36.03806855553008 13.099354964637014 -1 0 -2
720 70 4 0 48.48663915696446 -22.54886364178563 19.752985583131448 -1 0 0
704 69 3 0 78.16819799221292 -21.41343749773239 16.30839274853748 1 2 -1
760 74 4 0 75.2980514506026 -35.284885942180196 11.499043227488086 0 2 -2
761 74 4 0 69.85288111691456 -32.254165014704434 12.30120792852291 0 2 -2
762 74 4 0 67.30808046662769 -30.47938301063061 17.452942062472218 0 2 -2
656 64 2 0 -68.02500143503073 -2.4544899264401097 8.366443041491651 2 1 -1
655 64 3 0 -71.45817717374797 -7.074946482281221 6.9498362095097175 2 1 -1
549 53 4 0 -66.12581468451981 -10.231997465085946 19.392914178840567 0 3 -1
550 53 4 0 -71.6161484884907 -7.813617515962153 19.10789923195903 0 3 -1
654 64 3 0 -76.47593666638501 -9.256015639984724 5.164388988986573 2 1 -1
657 64 2 0 -63.40962670439113 -1.7131751334928318 11.897417457536253 2 1 -1
548 53 3 0 -62.41097519320864 -14.515201893488731 17.489542386968413 0 3 -1
653 64 3 0 -79.15075958534685 -12.76036364092269 1.6676773978785775 2 1 -1
544 53 3 0 -47.06446651500892 -12.333628079346699 2.3978151438862425 0 3 -1
545 53 3 0 -50.63516100569952 -14.838715646837883 6.672713613668396 0 3 -1
546 53 2 0 -55.669248174816616 -15.402135120282425 9.39189005651685 0 3 -1
547 53 2 0 -58.888445009659684 -16.809123528635617 13.28919408294462 0 3 -1
658 64 3 0 -59.50370617593894 -3.1498502789770115 15.718167598400244 2 1 -1
659 64 4 0 -53.75651463268068 -4.810020951481018 16.581696213171732 2 1 -1
660 64 4 0 -49.38406277369476 -8.902221610007985 15.162197680508067 2 1 -1
543 53 3 0 -47.765906938174105 -6.773727070385491 0.8736945160529954 0 3 -1
662 64 4 0 -40.53165213698997 -15.490299776549648 16.543239515728903 2 1 -1
661 64 4 0 -44.41780176169157 -11.503711476942442 15.228160222591946 2 1 -1
1009 99 4 0 -7.1676126436280265 -14.216628821593705 1.7185844885120942 -1 0 0
337 32 2 0 -5.269281506679781 -2.351592557772359 14.323218449638059 2 3 -1
338 32 3 0 -3.240377412014877 -7.131321859280767 17.342653320722576 2 3 -1
1008 99 3 0 -3.1708907715180854 -10.330309755491005 0.7521197188834265 -1 0 0
722 70 4 0 43.897162121673006 -13.51810823323075 15.052963364530461 -1 0 0
721 70 4 0 44.62418494710726 -18.838215521597263 17.41997408056029 -1 0 0
703 69 3 0 76.35834725415005 -16.922798593473615 12.454668797613461 1 2 -1
519 50 4 0 67.31657649848006 -4.948730908012669 17.957061552440326 3 -1 -1
518 50 3 0 67.45764583843251 -2.9981834832791474 12.10451633450888 3 -1 -1
940 92 4 0 -74.53250079839995 -61.945516083806254 23.515033828823313 0 2 -1
939 92 4 0 -71.42888751234818 -63.88028143747819 27.944848161535038 0 2 -1
938 92 3 0 -68.94674844521899 -68.13610917351103 30.979544399205093 0 2 -1
937 92 2 0 -64.60415839542549 -71.6720911243466 32.21985897713159 0 2 -1
936 92 2 0 -61.51904881498783 -76.37764936063124 31.542075374930146 0 2 -1
147 13 2 0 -49.85845502855667 -67.71786981230028 34.43417719059772 0 2 1
146 13 2 0 -53.95088378983096 -67.65383341408166 30.448063868810376 0 2 1
145 13 3 0 -57.19384059729859 -63.734141667543184 27.635497258516335 0 2 1
306 29 2 0 -46.53591159610853 -66.18327492172679 21.7471186638229 1 2 -1
144 13 3 0 -59.9396029829366 -62.62254532810323 22.338002020659818 0 2 1
148 13 3 0 -46.425015844524026 -66.45312373239163 39.12840938594494 0 2 1
935 92 3 0 -57.88145066149581 -79.94126646268481 28.51414662204943 0 2 -1
305 29 3 0 -42.35926298739567 -63.21799007605334 24.65966678095329 1 2 -1
471 45 4 0 -30.42320740489426 -70.88834983363171 36.498014439864335 0 -1 -2
472 45 4 0 -27.29804627951748 -75.30798905968804 34.498767282366124 0 -1 -2
492 47 4 0 4.801515175581662 -68.3030751090789 31.483182409650897 0 -1 1
491 47 4 0 8.690586415694952 -72.40202574580148 29.476216513531988 0 -1 1
490 47 4 0 11.65094012725475 -75.53943239269549 25.34648268384314 0 -1 1
489 47 4 0 12.86105680398407 -77.80484239020679 20.442356881359213 0 -1 1
629 61 4 0 -51.67595538944468 -55.59325543591813 22.076275822509363 0 3 0
631 61 4 0 -52.40374560244395 -52.91241313224267 33.45614619211755 0 3 0
630 61 4 0 -50.87954266621385 -54.060790926666954 27.757509348106257 0 3 0
632 61 4 0 -53.825806440387304 -53.15669442727946 39.02917412697122 0 3 0
304 29 3 0 -40.256286916906475 -59.61051922678044 28.870657815076758 1 2 -1
303 29 3 0 -37.27945273797696 -55.95819943902583 32.35425923285299 1 2 -1
269 25 4 0 10.338291061356086 -43.463931293504054 37.412263881801685 1 1 -2
872 85 4 0 14.998713861156967 -41.50377521082277 22.106792440125723 0 3 0
592 57 4 0 74.20823060238514 -47.2016987158593 37.26067556033628 0 1 -2
789 77 4 0 -67.98836830932804 -34.37695269267804 22.31903369256103 2 0 2
788 77 3 0 -69.79497445001405 -28.65031558944669 24.16232666420569 2 0 2
787 77 2 0 -71.85520890879754 -23.37156269146684 24.19755779293968 2 0 2
708 69 3 0 -77.73745541331489 -20.671082073879795 36.79807964895513 2 2 -1
345 33 3 0 -62.46844986073593 -22.554515148287795 34.14329249635049 -2 -1 1
344 33 3 0 -62.71845107629397 -27.40527240810425 37.66774335376584 -2 -1 1
204 19 3 0 -47.0467368376587 -25.150409689132893 30.089823621150632 0 -1 -2
203 19 3 0 -49.37806369573655 -30.568886488974037 29.004548931171858 0 -1 -2
948 93 3 0 -3.6769732882817654 -29.94773459592711 33.937841084950435 -1 1 0
947 93 2 0 -0.7267654463446335 -27.868100419239724 29.522965784650676 -1 1 0
946 93 2 0 3.345437727773113 -24.228528616795582 27.105584728819366 -1 1 0
949 93 4 0 -4.676191775920076 -31.296589240762394 39.38992502751212 -1 1 0
268 25 3 0 8.71281772752262 -37.908711334316536 35.79394492803049 1 1 -2
266 25 2 0 8.1350540260615 -27.25827434878308 39.52653765556581 1 1 -2
945 93 3 0 9.147649651242418 -23.021976061288765 26.52494389069961 -1 1 0
267 25 2 0 9.766429311014061 -32.288913444677334 36.73226732662281 1 1 -2
166 15 2 0 41.04208184723957 -21.750327273062187 33.095492452495286 -1 -1 -1
167 15 2 0 36.58034927106382 -23.495304086869236 36.59158843510613 -1 -1 -1
168 15 3 0 31.252464076013194 -20.897215125157974 37.63677061316438 -1 -1 -1
719 70 4 0 50.700540773469335 -23.943978962531627 25.284969488796293 -1 0 0
423 41 3 0 51.71733117210537 -36.031465269383204 31.89812879517032 -1 0 -1
424 41 3 0 50.7511701159039 -33.58548232633325 37.121330752235586 -1 0 -1
718 70 3 0 51.24406650375705 -21.41613135173325 30.911983881621165 -1 0 0
707 69 2 0 78.45736191180185 -21.906520148460935 32.14302361406879 1 2 -1
706 69 2 0 75.86264676733799 -23.07494512210363 27.23869740283094 1 2 -1
705 69 3 0 76.45464490606103 -23.976067415700943 21.363142610714007 1 2 -1
66 5 2 0 65.56591601455561 -36.367481996886184 37.57104299256428 2 0 -1
67 5 2 0 62.28894911009168 -32.17773649946737 35.345668873051096 2 0 -1
68 5 3 0 63.78498578220756 -26.593029845584386 33.51835733296713 2 0 -1
69 5 4 0 65.58921028191172 -21.916721806571257 29.893471309033778 2 0 -1