LAMMPS data file via write_data, version 29 Aug 2024, timestep = 100000000, units = real

1032 atoms
4 atom types
931 bonds
1 bond types
830 angles
1 angle types

-80 80 xlo xhi
-80 80 ylo yhi
-80 80 zlo zhi

Masses

1 329.2
2 305.2
3 345.2
4 306.2

Bond Coeffs # harmonic

1 7.5 5.9

Angle Coeffs # harmonic

1 5 150

Atoms # full

860 84 4 0 -49.55763162240488 -67.53599968842255 -62.65229724285822 -1 2 -1
859 84 4 0 -45.01476027964663 -68.30913110260215 -66.47880141302191 -1 2 -1
858 84 3 0 -39.06559396381538 -67.67507914698456 -65.45907402796189 -1 2 -1
857 84 4 0 -35.048803408664725 -64.39078029294859 -63.025573706267245 -1 2 -1
1027 101 4 0 3.485382858379385 -79.65348048969496 -72.77811291854321 0 3 0
1029 101 4 0 -1.7082241328907077 -74.19285868860217 -63.56901177988551 0 3 0
1028 101 3 0 1.1606890544162833 -76.07210160531005 -68.6702376028196 0 3 0
874 86 3 0 14.141357712877062 -63.19538636398263 -62.15844676491094 0 0 1
660 64 4 0 15.1871648863062 -72.4703408659728 -74.95246790050422 -1 0 0
661 64 4 0 19.99097455923147 -75.90680015258307 -74.6087107044783 -1 0 0
875 86 3 0 13.861412085516296 -68.85704855121371 -60.83691807384199 0 0 1
659 64 4 0 10.442331002294095 -72.42634475491107 -78.46212686096148 -1 0 0
662 64 4 0 24.046690956515413 -77.69634126154858 -70.8516891908014 -1 0 0
143 13 3 0 41.79987062432003 -68.13959356352657 -70.82135361141181 2 1 -1
144 13 3 0 43.75431144780089 -73.0595211243563 -67.97107208845543 2 1 -1
145 13 3 0 42.54396683429312 -77.72960898427624 -64.31454514491878 2 1 -1
460 44 4 0 60.48218899944619 -72.08988789602363 -64.21418437431618 0 -2 2
461 44 4 0 65.92538069263108 -72.7777272811778 -66.59862742776174 0 -2 2
462 44 4 0 69.46963704487086 -77.54237896744999 -67.81468058339784 0 -2 2
322 30 4 0 78.92413514890738 -73.65291049305114 -79.13691659147094 1 3 2
66 5 2 0 -28.63498757941937 -59.00665116267927 -72.09230901703381 0 -2 2
69 5 4 0 -42.152048422617796 -57.029063374791804 -63.39671404753854 0 -2 2
68 5 3 0 -39.16070176709933 -56.15557164613805 -68.33202612880035 0 -2 2
67 5 4 0 -33.89985932784196 -56.53912711343557 -71.21303887831245 0 -2 2
228 21 3 0 -29.765528655048207 -46.71921338787167 -65.42413026264651 0 -1 1
229 21 4 0 -32.68123332321057 -41.94601073581828 -63.008973735889185 0 -1 1
567 55 4 0 -27.75101940862011 -49.57032412297885 -79.43716791383511 -1 -2 2
64 5 3 0 -18.37671888509981 -59.14324464559187 -75.62015608479715 0 -2 2
227 21 4 0 -25.70692325890206 -51.45249730257256 -65.26927573148626 0 -1 1
65 5 3 0 -22.6163407462221 -57.194428990816405 -72.50788026028282 0 -2 2
568 55 3 0 -22.076258687960934 -49.200872727156685 -78.4056605277134 -1 -2 2
383 37 3 0 -13.399873377011026 -44.6051140548401 -71.97143154719319 2 1 -3
384 37 3 0 -17.121089604714093 -41.49163552902427 -68.68112008261728 2 1 -3
226 21 2 0 -21.40973420262072 -53.445155982322845 -61.65326263924144 0 -1 1
385 37 3 0 -19.197697257269006 -40.068962655004256 -63.146154206368486 2 1 -3
873 86 3 0 11.478268690879181 -58.55068129008224 -65.02759424734808 0 0 1
417 40 4 0 -76.95144282328607 -23.396552261512593 -71.33152502927018 -2 0 2
8 1 4 0 -69.01090551570012 -30.476538151756582 -70.21287115890263 -1 1 -1
7 1 4 0 -73.44472404463015 -32.3816099086128 -66.74705607220126 -1 1 -1
416 40 2 0 -74.7927532151858 -21.9615207234828 -66.11576808886159 -2 0 2
9 1 4 0 -64.56115642525923 -31.4600341372878 -73.89684032630305 -1 1 -1
6 1 3 0 -78.46668173460283 -35.237981280857326 -65.36997668901662 -1 1 -1
415 40 3 0 -70.17029367599935 -20.252717728345075 -62.71977104559373 -2 0 2
10 1 4 0 -62.21948284937712 -36.30058741905984 -76.56879701365708 -1 1 -1
216 20 2 0 5.380460148566209 -25.25488474605748 -64.54122486694045 -1 -1 2
214 20 3 0 0.5042476351242281 -22.74029594815065 -74.71987721002199 -1 -1 2
215 20 3 0 2.2957152383869754 -23.988614954317043 -69.09147728838438 -1 -1 2
213 20 3 0 -0.27775775579955325 -25.47173080357977 -79.63628812461894 -1 -1 2
422 40 4 0 58.7325234280421 -26.792089034294623 -69.19459785418135 -3 0 2
418 40 3 0 79.27898844404292 -27.66897447757051 -73.23139264247627 -3 0 2
421 40 4 0 63.75654059404679 -30.23776137617985 -70.062484946024 -3 0 2
419 40 4 0 74.26101240531139 -30.86274167375538 -73.24290167965195 -3 0 2
420 40 4 0 68.3191797713624 -32.042548349386 -72.30369311715198 -3 0 2
3 1 3 0 71.9922562199556 -24.21175128611162 -61.86415772720532 -2 1 -1
4 1 2 0 74.47474353511015 -29.440860236219375 -60.54901187235431 -2 1 -1
5 1 4 0 76.63341604410569 -34.87477184900451 -61.892210168979936 -2 1 -1
602 58 4 0 -46.43355482784351 -5.995964369302302 -73.99159299911076 0 -1 -1
601 58 4 0 -47.03450014714666 -0.17651412255958468 -71.96176330998942 0 -1 -1
721 70 4 0 -3.5667772901955686 -12.447200983989852 -66.2500838007291 1 1 -1
722 70 4 0 -2.14792320286175 -11.224456170331948 -72.03901928934457 1 1 -1
720 70 4 0 -6.597081645735793 -15.56566017029431 -62.074098898024786 1 1 -1
53 4 3 0 12.755252902772087 -5.50005792704656 -77.37175072585305 1 1 0
551 53 4 0 11.191660167109744 -3.808619004642085 -65.31560236187087 -1 -2 -2
552 53 4 0 13.391468994068779 -5.379364418085322 -60.01525982671133 -1 -2 -2
54 4 3 0 15.037585472089061 -0.3324029409084041 -79.45576568831547 1 1 0
249 23 4 0 28.1081352526823 -5.362057055537129 -77.9852767069696 2 -1 -1
250 23 4 0 28.723454706227848 -0.3927995223624867 -75.09713443944598 2 -1 -1
277 26 4 0 61.10909950213121 -9.280457003050158 -77.22640190109836 1 -2 3
276 26 2 0 59.95235508349732 -6.328182840062072 -72.08430280741436 1 -2 3
275 26 3 0 60.23136630939609 -1.6723856057868325 -68.56324961939303 1 -2 3
2 1 3 0 72.07250424869578 -19.234873834111823 -65.37211083185808 -2 1 -1
1 1 3 0 68.77237909777392 -17.040958023975058 -69.81972433514454 -2 1 -1
861 84 4 0 -53.53264724834257 -70.70191319794547 -59.601061351100974 -1 2 -1
862 84 4 0 -58.638042540697974 -70.36462271380978 -57.587293153482136 -1 2 -1
856 84 2 0 -32.61846728960157 -62.430953735558994 -57.782051071759405 -1 2 -1
71 5 4 0 -42.78648704062848 -60.38773886400171 -52.898270027665475 0 -2 2
1030 101 4 0 -1.8148901535960047 -70.4297700880086 -58.742858728918506 0 3 0
1031 101 4 0 2.2909993201111973 -66.87952870604578 -56.48652730815681 0 3 0
1032 101 4 0 3.6745651287161776 -61.3397684043461 -55.15181150142483 0 3 0
876 86 2 0 10.531652857409581 -73.46760149795146 -58.87250909611785 0 0 1
132 11 4 0 16.794148245449012 -77.0539311050838 -52.557759038199826 0 2 2
877 86 4 0 9.043528080037607 -79.06822383365562 -59.219831702284914 0 0 1
131 11 4 0 20.74859794304849 -72.94078652849295 -55.052330950613616 0 2 2
130 11 4 0 25.769845128993673 -70.52057684968852 -53.76873462360626 0 2 2
129 11 4 0 28.807907951102568 -70.06483875641634 -48.67330363772209 0 2 2
806 79 2 0 35.62324835177261 -74.9980589012368 -56.85927780993091 0 -1 -1
807 79 4 0 39.086286188696896 -69.76080119833621 -56.743107306122496 0 -1 -1
128 11 3 0 33.456827906357404 -68.3571957706725 -44.61133712235763 0 2 2
808 79 3 0 40.474182988998265 -64.61384284319317 -54.45263738381848 0 -1 -1
127 11 4 0 38.73214649242897 -69.33265363473555 -41.79279885413739 0 2 2
126 11 2 0 44.08970832739473 -67.30572976453819 -41.32670965481945 0 2 2
809 79 4 0 41.541320808945876 -61.99439348855864 -49.18575531216505 0 -1 -1
455 44 3 0 40.0870883756707 -78.94523615194815 -46.96574550873154 0 -2 2
805 79 3 0 31.6528852811922 -78.12283285938872 -59.21008430278238 0 -1 -1
459 44 4 0 57.4663863127002 -74.07746544374965 -59.470743355408615 0 -2 2
456 44 2 0 44.94091169045521 -77.83304967371933 -50.223606585910524 0 -2 2
458 44 3 0 52.14153510437514 -72.55787705911153 -57.0941814863789 0 -2 2
457 44 4 0 48.16008095088625 -73.48177870881435 -52.70409443759684 0 -2 2
124 11 3 0 54.3730964673631 -69.44667851752156 -43.118506095473215 0 2 2
123 11 3 0 57.81166277151528 -71.85073414102891 -47.21772295067402 0 2 2
125 11 3 0 49.4333864402027 -68.94762835377708 -40.13014779578614 0 2 2
70 5 4 0 -44.376382987325684 -59.52562228762875 -58.537776523702455 0 -2 2
72 5 4 0 -40.44946233030201 -57.79867028801123 -47.929379930641716 0 -2 2
854 84 3 0 -31.52623463896259 -52.28182393449983 -52.27415011928004 -1 2 -1
853 84 3 0 -33.60669484273573 -47.26469198433532 -50.83546205498551 -1 2 -1
855 84 3 0 -31.354850859261195 -57.76356061620512 -54.5748786349936 -1 2 -1
225 21 3 0 -17.05929920813441 -56.26496547890423 -59.58204560302084 0 -1 1
224 21 3 0 -11.336124551773468 -55.39228330294876 -58.181769975290706 0 -1 1
386 37 2 0 -20.947637180301236 -43.06797622620021 -58.69623051745493 2 1 -3
389 37 4 0 -17.044184161096723 -49.85070562157779 -43.67218237875022 2 1 -3
387 37 4 0 -19.330621952167196 -44.70162069976449 -53.05880666403181 2 1 -3
388 37 3 0 -16.725717221510475 -48.178182453029265 -49.07424379560727 2 1 -3
223 21 3 0 -5.209259164695672 -55.415217388034 -57.98998226915582 0 -1 1
810 79 4 0 46.44303175926344 -58.84674335557379 -48.11296449293456 0 -1 -1
811 79 4 0 51.003633758515306 -56.300475559541134 -44.81866986042737 0 -1 -1
812 79 4 0 53.330550358610736 -58.92998708984758 -40.3677541038109 0 -1 -1
263 25 3 0 -51.51661978636506 -22.296007963219136 -45.330856793411826 1 1 1
230 21 4 0 -31.41458669937022 -38.04216833020953 -58.685977596869755 0 -1 1
231 21 4 0 -28.767773453592852 -33.26375389401179 -56.900332147159325 0 -1 1
1007 99 4 0 -33.54738653725318 -21.861029376489466 -42.055531086376 1 0 0
1006 99 2 0 -34.419885567245544 -20.672520714485902 -47.79823703469818 1 0 0
232 21 4 0 -28.13911410265381 -27.725577529566557 -58.92042917923162 0 -1 1
714 70 3 0 5.689720069943528 -39.65894356232253 -51.62736230062565 1 1 -1
715 70 3 0 0.16099495371246145 -38.59464047081798 -49.842591923120054 1 1 -1
717 70 4 0 -7.268016944460195 -30.729373265158614 -55.22299353195221 1 1 -1
716 70 2 0 -3.749327877670995 -34.599389705699544 -52.07103640797536 1 1 -1
220 20 4 0 3.4566068370521843 -28.588085270158167 -43.74042317760734 -1 -1 2
219 20 4 0 2.451204841894281 -24.99459566174737 -48.48936859015273 -1 -1 2
218 20 3 0 4.197844364025144 -23.281152838786024 -53.871928518877084 -1 -1 2
718 70 3 0 -6.734767692067925 -25.0053713118738 -56.519320416113956 1 1 -1
217 20 4 0 6.603871040246346 -23.473590793730267 -59.325760045436816 -1 -1 2
221 20 4 0 3.4232465204034495 -33.33023069101736 -40.672679217090774 -1 -1 2
713 70 3 0 10.259294172859741 -38.69480936881472 -55.555764044336165 1 1 -1
802 78 4 0 37.990163114755035 -21.043715934008713 -44.10446362139781 1 0 2
906 89 2 0 51.45564211625198 -23.766566982172495 -49.095547929811936 0 1 3
907 89 4 0 55.526953993930235 -22.694868990929344 -53.26426214900807 0 1 3
905 89 3 0 49.59113767319744 -25.85303687401698 -44.14064152535257 0 1 3
795 78 3 0 64.28137855556803 -22.804170650383895 -43.9175345416625 1 0 2
793 78 3 0 64.54011902998037 -30.07316937532069 -52.978429502718825 1 0 2
794 78 3 0 65.0971501437894 -25.895560570766275 -48.94667370434146 1 0 2
413 40 3 0 -65.68645778546099 -19.77709013721765 -52.98967167296348 -2 0 2
414 40 3 0 -68.13237969391147 -17.871387764158644 -57.832974368519416 -2 0 2
264 25 3 0 -47.315948648718866 -19.118068406129648 -42.71377551175211 1 1 1
265 25 3 0 -45.01815172698629 -14.049003888392177 -41.31468688225603 1 1 1
1003 99 3 0 -33.86074549798458 -6.1398213902375725 -54.079377385175185 1 0 0
1005 99 3 0 -34.303617507748314 -16.994011930566543 -52.28073198530496 1 0 0
1004 99 3 0 -35.94231347434193 -11.485984418836418 -53.49978789873175 1 0 0
268 25 3 0 -30.20295518318773 -9.38005874610698 -43.86634615370581 1 1 1
269 25 4 0 -27.011229231242318 -9.982094483838237 -48.842701710161656 1 1 1
266 25 2 0 -38.93253623146254 -14.395445299966168 -40.36174014819604 1 1 1
270 25 4 0 -21.885761022383903 -11.579829369432051 -51.21194677386234 1 1 1
271 25 4 0 -16.177438585907407 -9.774432657653923 -51.53747646607788 1 1 1
272 25 4 0 -17.148918626581658 -6.143369707460536 -46.88990794879966 1 1 1
719 70 4 0 -5.2845245319418765 -19.876618941277503 -58.205970984299434 1 1 -1
801 78 4 0 40.3387232392891 -16.832036349471153 -47.527019702651735 1 0 2
800 78 4 0 45.27821868615314 -13.788315794039406 -48.9067206144044 1 0 2
908 89 3 0 59.01701829865042 -17.978035689277167 -54.595951899418516 0 1 3
799 78 4 0 50.829823985500106 -12.659872216426514 -47.61817214337491 1 0 2
798 78 3 0 56.247594803602695 -11.414992328438663 -45.54035040482171 1 0 2
797 78 4 0 61.24412383473959 -12.552122746809975 -42.202919306616 1 0 2
796 78 2 0 64.20082106271828 -17.600752964071994 -41.09447142018731 1 0 2
912 89 4 0 77.68653298313353 -16.261007433580176 -46.712231725379496 0 1 3
909 89 4 0 62.65938725974258 -13.375360672846837 -53.761940859928316 0 1 3
910 89 4 0 68.08810469601232 -12.3673469033088 -51.9932094140175 0 1 3
911 89 4 0 73.57726739339061 -15.160400300650496 -50.73094433850936 0 1 3
332 31 4 0 -66.04869921461064 -75.46669205688653 -33.43186681341682 3 0 1
330 31 4 0 -76.53081368246274 -70.55870242075234 -31.752925056402105 3 0 1
331 31 4 0 -71.73800472053121 -73.70660981914173 -34.238551439864644 3 0 1
329 31 4 0 -79.95102067527658 -66.63313730668001 -29.276509454978207 3 0 1
205 19 3 0 -68.91636559872205 -65.79978324473414 -21.76283770465899 -1 2 2
206 19 2 0 -69.63496323638253 -63.311321269316565 -27.09568730585015 -1 2 2
328 31 3 0 79.94747120239566 -61.72879899612011 -26.325382689938593 2 0 1
207 19 4 0 -67.83484014798863 -58.98996754332568 -30.702111560004532 -1 2 2
210 19 4 0 -69.70476169071806 -43.33417368797202 -37.81703599191369 -1 2 2
209 19 4 0 -68.68717301923596 -48.89695564080718 -36.408008337269834 -1 2 2
208 19 3 0 -68.24036875253573 -54.62030921542378 -34.46207289288187 -1 2 2
324 31 3 0 -64.13831107015659 -51.38373433193671 -22.660537207164833 3 0 1
327 31 4 0 -79.70439614916943 -56.96281154991698 -23.007987217707942 3 0 1
326 31 2 0 -75.04506880104003 -53.26806649481282 -21.382859660140955 3 0 1
325 31 3 0 -70.06622406405282 -50.69424831843712 -22.181319115741545 3 0 1
323 31 3 0 -59.02262336668195 -51.940151369119214 -25.341548974460448 3 0 1
390 37 4 0 -14.802374420641243 -48.700033884141774 -38.156683395939645 2 1 -3
391 37 4 0 -14.443959038037864 -48.53156707649755 -32.34389907235047 2 1 -3
392 37 4 0 -12.810174758365296 -51.97142227932347 -27.207501488032253 2 1 -3
211 19 4 0 -68.43990427754949 -37.902696816571975 -37.405756174241375 -1 2 2
212 19 4 0 -69.49788495830256 -32.69836960388578 -39.25805944478919 -1 2 2
1009 99 4 0 -39.49358652748793 -22.86720911900331 -32.07658727343147 1 0 0
1008 99 3 0 -37.54651464043049 -23.158951790703664 -37.72580297712522 1 0 0
222 20 4 0 1.5559566838983154 -35.196789298000795 -35.103920532924604 -1 -1 2
904 89 3 0 46.691221370511016 -26.011121431213724 -38.97742627904797 0 1 3
903 89 3 0 46.05797106799935 -25.618387686166983 -32.86359859646236 0 1 3
554 54 3 0 69.2138961795812 -30.080749337089927 -21.65077277971668 -1 0 0
553 54 3 0 74.06090190931376 -29.234366268159917 -24.432633954812424 -1 0 0
1011 99 4 0 -47.13344626806796 -15.660401027675638 -29.062430955137923 1 0 0
1012 99 4 0 -52.47749103851186 -13.529335879670228 -30.10402582181996 1 0 0
1010 99 4 0 -43.55879324746265 -19.847860304901292 -28.845064329788084 1 0 0
267 25 4 0 -33.98258560952188 -11.222462591850638 -39.94419286282008 1 1 1
442 42 4 0 -4.660999242141797 -8.105541605286483 -28.43853010021456 0 0 1
441 42 4 0 -8.184826469282198 -4.45403715175991 -31.508063307034284 0 0 1
440 42 4 0 -7.229749836517405 -0.5947873174493691 -36.12447247745192 0 0 1
1022 100 4 0 19.308211928703233 -11.403263283490382 -35.16092225461712 0 -1 0
1020 100 4 0 25.319133075709615 -5.589910873654109 -26.40871302492121 0 -1 0
1021 100 4 0 21.428600923975985 -9.04334277187139 -29.733785342108458 0 -1 0
1019 100 4 0 26.81114337212713 -2.1625540927337172 -22.2187052252608 0 -1 0
204 19 3 0 -68.09655565399389 -65.40479380984965 -15.863694911723208 -1 2 2
203 19 3 0 -69.42583494024565 -67.57698312988758 -10.501870604726335 -1 2 2
702 68 4 0 29.591800030110168 -68.63890935343893 -5.656794435845436 -1 1 1
701 68 4 0 29.10864517525156 -63.26091905483346 -3.4210823424114425 -1 1 1
502 48 4 0 58.48551530761853 -64.55783391778711 -7.659302201739751 -1 -1 1
577 56 4 0 77.64249378483484 -74.60198770392488 -6.432654741880612 -1 1 1
576 56 2 0 79.35779206987289 -68.80177928835315 -5.6944184056609215 -1 1 1
575 56 3 0 79.39449056090153 -63.72314996060085 -9.083020676379965 -1 1 1
366 35 2 0 65.82714893527044 -77.09657764559306 -10.262085357254877 0 1 0
365 35 3 0 68.12715254665963 -77.28324817903807 -15.568969023666952 0 1 0
367 35 4 0 64.80843248953656 -74.78507532092996 -5.048944016105764 0 1 0
368 35 3 0 65.97182933210368 -69.99480001488699 -1.9201195365427386 0 1 0
831 81 4 0 -38.32703131477479 -54.09230709438674 -3.8633298686538575 -1 2 -2
832 81 4 0 -39.68801778231268 -52.003858415551235 -9.333508863830247 -1 2 -2
700 68 4 0 33.547383661430075 -59.624797224705404 -4.390505978825827 -1 1 1
699 68 4 0 38.94295057067648 -58.40040274072903 -7.291307768780826 -1 1 1
501 48 4 0 58.47667570443447 -58.76425577541452 -7.932874667353357 -1 -1 1
698 68 3 0 44.62332357855148 -57.27142946260483 -6.7676484143030695 -1 1 1
697 68 4 0 49.93159766656526 -56.44020419929345 -4.65875558232555 -1 1 1
500 48 4 0 60.34002349321077 -53.62492984787499 -5.988346515116457 -1 -1 1
574 56 3 0 78.4102818928664 -58.23119344708518 -7.435049580518258 -1 1 1
499 48 4 0 63.49491597543739 -51.48281419394465 -1.6320755374032487 -1 -1 1
573 56 3 0 75.25393150695031 -53.71572481796171 -9.34524036866553 -1 1 1
557 54 4 0 57.39984901342619 -24.534699555815582 -11.299076505434519 -1 0 0
556 54 2 0 61.125333553612734 -28.27837904205751 -14.084746227690278 -1 0 0
555 54 3 0 63.764813337328754 -29.53283414656176 -19.681151739629616 -1 0 0
452 43 4 0 67.44117130236745 -35.976764220030375 -10.116139708756055 0 -2 -2
451 43 4 0 69.99556656127837 -31.293573566863245 -7.859446658412769 0 -2 -2
449 43 4 0 68.49500495566944 -20.496871203602552 -10.909482829409964 0 -2 -2
450 43 4 0 69.48870055714988 -25.402301947952417 -8.210187516681568 0 -2 -2
963 95 3 0 -9.984690209797837 -7.4300520606561 -7.613442052523266 0 -1 1
964 95 3 0 -10.853003386875375 -3.0073215281028807 -11.624024701058541 0 -1 1
775 76 3 0 16.00692613519454 -2.402645829592254 -17.745042673585946 0 -2 0
776 76 2 0 18.29705797555307 -4.89395465282459 -13.243283979609338 0 -2 0
777 76 4 0 22.391950554076615 -3.2578982171103026 -9.34260603929476 0 -2 0
778 76 3 0 27.53740149221633 -5.702410268714241 -7.222868434195798 0 -2 0
779 76 4 0 30.501568035027606 -8.296042764372377 -2.8136288768865714 0 -2 0
558 54 3 0 58.44773997101614 -19.132778259244088 -8.761973291044326 -1 0 0
443 43 3 0 45.360426078872905 -6.973706332368112 -11.152136096831976 0 -2 -2
559 54 4 0 58.8300726243582 -13.415086675334726 -6.862387098171187 -1 0 0
445 43 3 0 54.86586143952227 -6.395146772255869 -17.94150210446186 0 -2 -2
446 43 2 0 60.629368142780564 -7.880589224533994 -17.01446352301478 0 -2 -2
560 54 4 0 56.544676361322416 -9.14649723656701 -3.63878918937797 -1 0 0
444 43 3 0 50.601230919771076 -5.394726357681183 -13.82475524491389 0 -2 -2
561 54 4 0 55.90746509109467 -4.085499743240094 -1.138743958706893 -1 0 0
447 43 4 0 65.24203720165059 -11.30444530350664 -17.713716235132804 0 -2 -2
448 43 3 0 67.6438182679686 -16.107240463007997 -14.685121059393163 0 -2 -2
371 35 4 0 -79.58033060975077 -63.1915600014355 4.93261303327677 1 1 0
133 12 3 0 -75.11247767841324 -61.99379333684038 16.37169101735214 0 -1 2
531 51 4 0 -46.033378508949845 -76.17028680056697 14.635594724074018 1 2 2
532 51 4 0 -42.37382503720827 -76.80608566212318 10.084729072568898 1 2 2
827 81 4 0 -38.35929025182853 -60.37677333197549 18.401633946764154 -1 2 -2
824 81 3 0 -32.78808302126113 -76.27055571939793 19.834800157790287 -1 2 -2
584 57 3 0 2.2466971430978293 -64.70807440826587 6.062206035767711 -2 -1 0
585 57 3 0 4.608417164908856 -65.01563522264172 11.635732357361475 -2 -1 0
586 57 2 0 7.1608228186258005 -62.593711799206964 15.917279923966017 -2 -1 0
583 57 3 0 -1.7963582169299874 -63.164445633702215 2.6602617134537763 -2 -1 0
708 69 3 0 16.781046400493942 -65.82153336049038 6.026808150073944 3 0 0
709 69 4 0 16.406187289054177 -71.0605375251262 8.438937624232821 3 0 0
707 69 4 0 13.563806144645284 -61.57177986876364 3.858413897314167 3 0 0
710 69 4 0 12.107928949374646 -75.06425876844312 10.307502122683394 3 0 0
588 57 3 0 18.07311288377759 -61.83089549249622 16.712301925245953 -2 -1 0
587 57 4 0 12.26165387843591 -62.046996437613025 18.400020915447367 -2 -1 0
406 39 2 0 44.00720704000336 -60.78147731851415 4.546954156505474 -2 3 3
407 39 4 0 46.61763135439129 -64.1424763540182 8.605730271012623 -2 3 3
409 39 4 0 57.10625425815069 -66.78609991460944 10.427667205771135 -2 3 3
410 39 4 0 61.57967101742468 -64.79824928939318 7.587390469482723 -2 3 3
408 39 3 0 51.40895303435989 -66.85850420313176 10.506957744275342 -2 3 3
370 35 4 0 74.58902463889385 -64.61648530072567 3.994445603773983 0 1 0
411 39 4 0 65.8120646301044 -61.32000496527401 9.683272060058682 -2 3 3
369 35 4 0 70.20317258839148 -66.86617762274271 0.3873118439483913 0 1 0
412 39 4 0 71.17287686587618 -61.479162134430965 12.024708954431919 -2 3 3
372 35 4 0 -77.13700008390084 -57.63581170866627 3.8254463341724665 1 1 0
153 14 3 0 -28.96830857963032 -59.00509164252332 11.470763141418756 0 1 0
828 81 3 0 -39.03119869320816 -58.68353777138899 13.06556537062666 -1 2 -2
829 81 4 0 -38.800368321179555 -58.09798403446929 7.043769368763645 -1 2 -2
830 81 4 0 -39.128304153628825 -54.65862471949869 1.9193294175301958 -1 2 -2
154 14 3 0 -26.221598801301663 -58.880326152546786 16.958891391193923 0 1 0
589 57 4 0 22.167112723963523 -59.43377715703525 13.543034651087387 -2 -1 0
703 69 3 0 17.44162676621386 -46.87714207380928 17.795641251696676 3 0 0
704 69 3 0 13.284300120104668 -47.49267025717803 13.811693779220244 3 0 0
705 69 3 0 11.883618956159394 -51.26432437947144 9.447650033213467 3 0 0
706 69 2 0 12.866080753165827 -55.50134861626264 5.406024050077473 3 0 0
592 57 4 0 23.792964478791426 -48.16699247642691 3.1071081535731984 -2 -1 0
591 57 4 0 25.39607712940699 -52.74689108209494 5.983714374437381 -2 -1 0
590 57 4 0 22.607852906843746 -56.88213664716096 8.977727820422425 -2 -1 0
403 39 3 0 40.859556742328266 -45.35609056523616 2.8733505992741772 -2 3 3
405 39 3 0 40.06696357054295 -56.47814665437349 4.177716330117439 -2 3 3
404 39 3 0 40.495703676665975 -51.16316865411724 1.4511382750588864 -2 3 3
695 68 3 0 56.43643837961756 -55.32533442930487 4.462094351347263 -1 1 1
694 68 3 0 54.8670270345856 -53.696763811463654 9.514071485452604 -1 1 1
693 68 3 0 53.54405300185136 -49.818241653093644 13.95663535501048 -1 1 1
696 68 2 0 53.2995183767349 -56.76618751632519 0.14877217346024094 -1 1 1
498 48 3 0 67.99545547366182 -49.91657843739401 1.9845963547456031 -1 -1 1
497 48 4 0 69.92927229918999 -46.33541196127418 6.189547133933521 -1 -1 1
496 48 2 0 69.24257470584347 -42.130861692872145 9.808356467002115 -1 -1 1
201 18 4 0 46.50685478452286 -25.517399513208083 4.432371337945129 0 1 0
202 18 4 0 46.75123505132257 -31.30667490581183 3.723271049277088 0 1 0
200 18 4 0 46.654148265868386 -21.364809481239845 8.821341444716632 0 1 0
283 27 3 0 57.952654355569294 -20.952626501014944 9.711209893459115 1 2 -1
495 48 3 0 67.50198998817393 -38.38557227846952 13.78945192463632 -1 -1 1
494 48 3 0 63.96874897315157 -34.13871472731984 12.2004049873286 -1 -1 1
493 48 3 0 62.64283105428582 -29.023015528262842 14.416896865758725 -1 -1 1
615 60 3 0 21.469263444156216 -4.133313216514277 6.881392086309559 0 -1 -1
291 27 4 0 24.956833678659613 -1.129878499196138 15.997433921465085 1 2 -1
782 76 4 0 25.801179490157786 -16.29559515526395 9.872917336576707 0 -2 0
614 60 3 0 18.495549368748232 -8.898431808132077 4.2059677272162315 0 -1 -1
292 27 4 0 22.005194383045694 -6.412421512310655 16.79520855084418 1 2 -1
616 60 2 0 26.525107260346168 -0.899061361594958 5.7977478575253505 0 -1 -1
613 60 3 0 16.693302770354137 -13.229971198797521 0.4043892248912619 0 -1 -1
781 76 4 0 30.484578701271694 -14.680284423381872 6.957586618767247 0 -2 0
199 18 4 0 44.34282333583591 -16.366403179840326 10.324143376425678 0 1 0
289 27 4 0 34.25925986658744 -2.1380025791764847 11.136441493681419 1 2 -1
288 27 3 0 39.46741965706032 -3.9045892964698483 9.106414049699248 1 2 -1
198 18 3 0 39.9306499173065 -14.255530828254082 13.230071368751545 0 1 0
197 18 4 0 37.867385164071464 -12.973044355323262 18.638317353066448 0 1 0
780 76 4 0 31.953450936717456 -12.38829709313534 1.4160389588618938 0 -2 0
287 27 4 0 45.00178831971594 -3.7002925168993994 7.890175581052761 1 2 -1
286 27 2 0 50.23346670701406 -6.3493462078819425 8.271424050837183 1 2 -1
285 27 3 0 54.24932632364618 -9.675618893242737 10.291508467343446 1 2 -1
284 27 3 0 56.54823075196435 -15.12246278337263 8.995863943447905 1 2 -1
134 12 3 0 -71.53688928635975 -63.02784106409885 20.943570203574197 0 -1 2
135 12 3 0 -71.55495077692308 -64.47112267797996 26.6546579189268 0 -1 2
136 12 2 0 -71.43506602278488 -67.39759696613577 31.968238450719674 0 -1 2
137 12 4 0 -73.15887386821906 -69.38924106548205 37.47583084130526 0 -1 2
530 51 4 0 -46.387338934950584 -78.034026296355 20.204462863571262 1 2 2
529 51 4 0 -44.6507377419334 -78.423428563355 25.97476859682214 1 2 2
142 12 4 0 -55.46880934813549 -62.695704633484915 38.94780345423987 0 -1 2
826 81 2 0 -37.97495376637693 -65.76750985287114 20.591838319593265 -1 2 -2
825 81 3 0 -35.907369500241174 -71.54908350519919 20.6534124816413 -1 2 -2
158 14 3 0 -33.3946179291665 -67.66169862667147 36.45292273755117 0 1 0
157 14 4 0 -32.38011748658909 -64.55447037422981 31.725829658381823 0 1 0
156 14 2 0 -28.32658019257979 -62.15803400698953 27.46341516308549 0 1 0
159 14 4 0 -32.652815889976516 -72.580901208689 39.9528369237269 0 1 0
922 90 4 0 -22.989896113778475 -69.28592323575596 30.2300509850665 0 -1 -3
723 71 3 0 -13.835173454830333 -62.08079941503772 30.978555799264868 0 2 -1
921 90 4 0 -20.73675670515504 -71.07703936776485 35.17406777122664 0 -1 -3
473 46 3 0 30.951913188912144 -63.23407252825486 34.449173538327 -1 3 0
313 30 3 0 75.96256520792821 -72.4371433229544 32.804017027966886 1 3 1
314 30 3 0 74.31945223113044 -72.92083724801184 38.327348723403475 1 3 1
423 41 3 0 -48.64103108802812 -57.756940313241145 25.851530242850185 0 1 -1
424 41 3 0 -43.681955446365194 -56.63813507985067 29.08083725011143 0 1 -1
425 41 3 0 -38.92146263195133 -54.75752572423646 32.1419786699917 0 1 -1
426 41 2 0 -33.43464013159743 -51.5401432270878 32.19666946269724 0 1 -1
427 41 4 0 -29.57479693502065 -47.42666141007032 30.147567671577416 0 1 -1
726 71 2 0 -27.224927432934265 -57.84249031120593 38.98657316185738 0 2 -1
155 14 3 0 -26.298569423793552 -59.074324283714624 22.825390477416477 0 1 0
724 71 3 0 -17.26221614206034 -57.9499369537637 33.25576826685726 0 2 -1
725 71 3 0 -22.09398065847522 -56.52252788041119 37.18558110398339 0 2 -1
428 41 3 0 -23.92528372614449 -44.977251269998426 30.219671042547034 0 1 -1
429 41 4 0 -18.284180555754524 -44.15142791111214 31.984336911797072 0 1 -1
430 41 4 0 -15.07895512136382 -44.42533868298982 37.19432474216931 0 1 -1
475 46 3 0 32.7072585559164 -53.0336953695855 36.824054571910985 -1 3 0
476 46 2 0 31.912735207264642 -47.09226223932509 38.17143338085473 -1 3 0
477 46 4 0 34.021502087556016 -41.732380669560236 38.628966682733974 -1 3 0
612 59 4 0 43.170544087421675 -50.96438322033608 31.178815845090643 3 1 -1
474 46 3 0 31.59854912410037 -58.49933358149716 37.574026969405615 -1 3 0
611 59 4 0 43.36113945774439 -55.981233670076655 34.50009901355221 3 1 -1
894 88 3 0 48.9239292262097 -42.998795571219745 38.22809482601215 -2 -1 0
893 88 3 0 47.78983927454611 -41.67013191828757 32.16119109046341 -2 -1 0
610 59 4 0 45.9100787747401 -57.69139556655316 39.8167501257251 3 1 -1
90 7 4 0 -67.6228721420779 -26.705290983028924 37.429030650069436 2 0 1
91 7 4 0 -67.99728955911054 -32.51281740215754 36.50280537169667 2 0 1
92 7 4 0 -71.45648782128953 -36.66424396466897 34.76874355092355 2 0 1
195 18 3 0 36.625200846278865 -3.69752790091474 24.733409499969625 0 1 0
196 18 2 0 35.50951722950289 -8.652673765037095 21.4524606757032 0 1 0
138 12 3 0 -72.50670103008679 -67.82016380696354 43.029525201895375 0 -1 2
139 12 4 0 -68.44838208856162 -67.46247712943305 47.402344522360444 0 -1 2
140 12 4 0 -62.52327342726984 -65.83720680045606 47.75620483656771 0 -1 2
141 12 4 0 -58.47803767393207 -63.13009801800048 44.17405051607727 0 -1 2
161 14 4 0 -31.567340174769935 -77.76205116791371 50.88491465455299 0 1 0
160 14 4 0 -32.95713877128191 -74.97744079612467 45.57896279811119 0 1 0
919 90 4 0 -22.859644720548445 -67.35524329234542 45.775989579408446 0 -1 -3
920 90 4 0 -20.86641767984878 -68.91290674293508 40.75399806825979 0 -1 -3
521 50 4 0 -11.36244287406836 -65.72024198834879 49.81062184227417 1 -1 0
520 50 4 0 -12.482028990040838 -71.04118668382353 51.361419519071056 1 -1 0
519 50 4 0 -14.177314839176287 -75.46216722004833 55.60096079179216 1 -1 0
918 90 3 0 -24.89541908044387 -64.48467415499252 50.67929548188697 0 -1 -3
522 50 4 0 -13.17251817626972 -60.06876790603962 49.585656913055736 1 -1 0
917 90 4 0 -23.428842910250513 -60.428225141881526 54.99621304145462 0 -1 -3
108 9 3 0 8.738609819295494 -79.1537865368299 59.672628321785204 2 -1 1
503 49 3 0 0.661919093729636 -66.78089219691924 40.80805197445654 0 0 2
504 49 3 0 -0.8396080681920413 -71.89943477762806 43.557850070765284 0 0 2
505 49 3 0 -3.125844049886098 -75.0337384617428 47.68642759862101 0 0 2
506 49 2 0 -3.2777598939232417 -78.0870091000566 52.804790630910745 0 0 2
507 49 4 0 -2.5464555080003435 -78.43074200444146 58.60466960391505 0 0 2
654 64 3 0 0.708158483287773 -65.02398341715092 58.18628488206928 -1 0 -1
653 64 3 0 2.602003419678377 -62.027887580577854 53.72198368546631 -1 0 -1
900 88 4 0 40.117862270773706 -63.2229349607846 58.118481084022044 -2 -1 0
899 88 4 0 37.132362144180746 -60.9200551249238 53.867725730378176 -2 -1 0
315 30 3 0 71.68491831575929 -71.48432254477024 43.351748711224545 1 3 1
318 30 3 0 74.6080242502195 -71.77483783111595 59.525515980786714 1 3 1
316 30 2 0 74.07718603966862 -69.89064822691418 48.528268673522035 1 3 1