LAMMPS data file via write_data, version 29 Aug 2024, timestep = 105000000, units = real

2032 atoms
4 atom types
1831 bonds
1 bond types
1630 angles
1 angle types

-110 110 xlo xhi
-110 110 ylo yhi
-110 110 zlo zhi

Masses

1 329.2
2 305.2
3 345.2
4 306.2

Bond Coeffs # harmonic

1 7.5 5.9

Angle Coeffs # harmonic

1 5 150

Atoms # full

233 22 3 0 -77.98032162702047 -109.28145560860155 -95.78714684011412 2 0 -1
550 53 4 0 -92.91004198333518 -87.99370559298399 -108.56268284524363 1 1 2
1977 196 4 0 -109.70987917289989 -93.34748791539312 -26.505868853739884 0 -1 -2
425 41 3 0 -100.48551159597122 -77.5286917790035 -104.44668700755155 0 2 1
426 41 2 0 -97.2043947762274 -78.3590516479063 -100.00749396683831 0 2 1
427 41 4 0 -95.25035475604366 -80.48808552796 -95.08669555130412 0 2 1
428 41 3 0 -91.61971825137496 -85.29433721458336 -93.7754915701022 0 2 1
549 53 4 0 -88.68659494519473 -83.89497756019574 -106.61278859896942 1 1 2
548 53 3 0 -84.69679255870375 -83.09344668442243 -102.34858409494369 1 1 2
547 53 4 0 -80.69213984972544 -79.35540595558238 -99.67315160308758 1 1 2
546 53 2 0 -78.85208462548529 -79.41388372173337 -94.10327800852268 1 1 2
430 41 4 0 -82.86909524563006 -92.04660760098162 -91.90587655303224 0 2 1
429 41 4 0 -86.47031413586609 -88.09114840846054 -93.78698418951971 0 2 1
431 41 4 0 -77.92862864700763 -93.08882756289857 -89.19708300965699 0 2 1
432 41 4 0 -72.8268848399138 -90.4507370309001 -90.3035503494319 0 2 1
1123 111 3 0 -69.79383546381308 -77.38344937726457 -106.07652952993381 1 3 1
422 40 4 0 -39.803686889378625 -91.90315223883721 -108.31761349244088 -1 -1 -1
204 19 3 0 -42.5787499759316 -81.0601208424421 -107.67342341739248 1 -1 -1
205 19 3 0 -37.298593953609526 -80.84535898848391 -105.2625672581306 1 -1 -1
203 19 3 0 -47.30659680025908 -83.94443148809401 -106.8460666117982 1 -1 -1
347 33 4 0 -37.034445262331026 -74.00014747147807 -96.88774780626228 -2 0 0
1046 103 2 0 -47.49525802500784 -76.98021655239356 -94.32696126445553 -1 2 -1
346 33 2 0 -35.5731944411442 -76.92583969732654 -92.38059400542257 -2 0 0
206 19 2 0 -33.22933115136089 -84.19425924719567 -103.00646044266178 1 -1 -1
207 19 4 0 -27.109582356573032 -83.75769834811155 -101.85345432881921 1 -1 -1
208 19 3 0 -23.6226200482369 -85.8126933031089 -97.53187851352675 1 -1 -1
209 19 4 0 -20.85384757452454 -82.59650683103546 -93.2047996577389 1 -1 -1
309 29 4 0 -107.07576664193203 -59.06184424964261 -108.85776437059444 -1 0 1
1124 111 3 0 -72.87529105018604 -72.31443513731158 -104.26442632767824 1 3 1
1125 111 3 0 -74.1869024426502 -68.17132557403312 -100.7726720043395 1 3 1
1126 111 2 0 -77.24428916320467 -68.24253067200709 -95.70241302939505 1 3 1
113 10 3 0 -90.37882424648537 -52.841498135977886 -98.55003930480183 0 -1 0
348 33 3 0 -40.23563821432017 -70.41366939210192 -100.2056566115109 -2 0 0
349 33 4 0 -39.71908236162541 -64.97404345817695 -102.63458753982604 -2 0 0
350 33 4 0 -36.79414561323593 -59.7783007743582 -101.03198831591301 -2 0 0
116 10 2 0 -96.93380562927184 -39.7742281346203 -102.25113663548618 0 -1 0
115 10 3 0 -92.6926146771478 -42.688183582433645 -99.68054972097781 0 -1 0
385 37 3 0 -106.9371871216947 -48.21177613848575 -107.86614748466472 1 -1 -1
630 61 4 0 -74.41413597109627 -0.03757446403597966 -0.7267515332791675 1 0 1
114 10 3 0 -90.74684180004606 -47.50399450990654 -97.60440172592844 0 -1 0
953 94 3 0 -77.73227743112705 -40.821337234048784 -101.78854582649733 2 2 0
954 94 3 0 -73.18608487449555 -36.78808765983245 -101.6682886521572 2 2 0
955 94 3 0 -67.76023978697069 -35.357977741912336 -100.3807478171026 2 2 0
1603 159 3 0 -63.85638665830795 -55.29601159709942 -97.15223539796948 1 1 1
1604 159 3 0 -69.08571324126423 -53.23328621815262 -95.3576208859383 1 1 1
957 94 4 0 -59.10476399859966 -38.14831248761044 -93.80087222434214 2 2 0
1762 174 4 0 -43.29597633772439 -39.86555758462607 -99.04452873598606 0 4 0
352 33 4 0 -33.34891218517011 -49.68413013495488 -96.59084029155213 -2 0 0
351 33 4 0 -36.548871164883025 -53.79739640761739 -99.5560279326548 -2 0 0
870 85 4 0 -96.44280399607737 -36.13785116996642 -92.2090544661231 1 1 0
117 10 4 0 -98.1065759000954 -36.23099415365978 -106.7200176249325 0 -1 0
869 85 4 0 -94.6284152153944 -31.72909948817204 -95.50233823265744 1 1 0
118 10 3 0 -98.14969129848483 -30.203386770569264 -108.58634501467236 0 -1 0
825 81 3 0 -44.05748049686856 -0.40687805095173735 -92.88015019867157 1 -2 0
868 85 3 0 -91.17971371387718 -27.949804606896652 -99.16226974693767 1 1 0
867 85 4 0 -87.25273685777569 -24.772179417611017 -102.03499334425614 1 1 0
866 85 2 0 -85.78588346263436 -24.06433797333788 -108.01575534928608 1 1 0
1611 159 4 0 -74.6037344239989 -22.2448688222818 -92.48198193717903 1 1 1
1612 159 4 0 -76.94755553964546 -16.940513538114747 -90.47198629094919 1 1 1
956 94 2 0 -62.62653453521976 -34.712793361045186 -97.14055456329731 2 2 0
1610 159 4 0 -70.27397371845395 -26.171786764594696 -90.6699928280217 1 1 1
1760 174 4 0 -38.425760380477975 -30.144563220135474 -98.46090032328256 0 4 0
1761 174 4 0 -39.63668963075485 -35.29627476953899 -100.47367233838654 0 4 0
1758 174 3 0 -35.90022018481225 -19.38923309723941 -96.58575092701942 0 4 0
1759 174 4 0 -38.706994115082686 -24.1858659576766 -98.21427883525439 0 4 0
2003 199 3 0 -64.5387138374386 -4.349808552626668 -99.66383522471077 2 1 -1
2004 199 3 0 -65.42725137955856 -5.989971924499177 -94.15703730795212 2 1 -1
828 81 3 0 -51.01892221534967 -14.532274745983267 -94.15680497730534 1 -2 0
826 81 2 0 -46.373788826988566 -4.509846297505622 -96.10295016459276 1 -2 0
355 34 3 0 -106.86949196089134 -69.73345292070479 -65.7568773854257 0 0 -2
1757 174 4 0 -36.984507947153105 -14.522030527046972 -93.21804841808363 0 4 0
827 81 4 0 -50.280063458437425 -8.78673816381531 -95.34985458956501 1 -2 0
1060 104 4 0 -93.82059251230297 -94.07178680845645 -83.68173007839069 0 2 -1
1059 104 4 0 -92.66977808441494 -99.30982009514483 -86.48407945745973 0 2 -1
1058 104 3 0 -89.11004064851674 -103.50095956771739 -84.00614165230316 0 2 -1
1174 116 3 0 -62.198811119087864 -108.30053919084249 -87.97038967518704 2 2 1
1173 116 3 0 -64.83718363417842 -105.2304349660912 -83.5120811320877 2 2 1
241 22 4 0 -53.879583983498364 -104.31922516567525 -73.61536459710268 2 0 -1
240 22 4 0 -56.34646243209653 -108.66798542956107 -76.22053752843094 2 0 -1
343 33 3 0 -36.81924363475038 -87.17432634116854 -79.03152962045063 -2 0 0
1051 103 4 0 -44.925459787747805 -94.10407701738178 -74.52379100369735 -1 2 -1
1061 104 4 0 -91.37887282101215 -88.5972833392271 -81.95706063365121 0 2 -1
1062 104 4 0 -91.99493389040175 -82.93921688595164 -80.61518404657417 0 2 -1
545 53 3 0 -74.98415045294125 -80.63000847732297 -90.35112170305668 1 1 2
544 53 3 0 -71.79012121566139 -81.61398325853028 -84.87274063752409 1 1 2
543 53 3 0 -73.67506682503647 -81.38541266619237 -79.09376364102835 1 1 2
1050 103 4 0 -47.43455436319954 -91.06186508848637 -79.04878863723481 -1 2 -1
1049 103 4 0 -48.31107150553521 -90.24027553124603 -84.53393895253956 -1 2 -1
1048 103 3 0 -50.39637641931327 -86.21287981751514 -88.55281118132434 -1 2 -1
1047 103 4 0 -47.74315471630764 -82.21983586212845 -91.75428763997533 -1 2 -1
344 33 3 0 -37.80994509661917 -83.04749959465762 -82.84520751766406 -2 0 0
345 33 3 0 -36.003571730201585 -81.51051262813047 -88.09454655092118 -2 0 0
210 19 4 0 -21.025829897462938 -77.43676683741577 -89.62326086458889 1 -1 -1
211 19 4 0 -16.335569211015414 -74.17400232805889 -87.95565742136107 1 -1 -1
1132 111 4 0 -100.5626248080244 -70.70300892155099 -83.12208472153269 1 3 1
1131 111 4 0 -96.56980844025394 -67.03072109165586 -80.40405223333472 1 3 1
575 56 3 0 -107.4349361228388 -64.7409819118802 -88.12654886619148 0 -1 2
576 56 2 0 -104.39338519367843 -59.69669558132715 -88.61608742827532 0 -1 2
577 56 4 0 -99.86188301179187 -56.40862607143945 -87.44167813345082 0 -1 2
578 56 3 0 -94.37202262264002 -55.18695292817293 -85.4292083153557 0 -1 2
1130 111 4 0 -90.72225205454991 -67.4501868046362 -79.6821286537749 1 3 1
1127 111 4 0 -78.38066907090642 -65.64673992848711 -90.45921867952933 1 3 1
1128 111 3 0 -81.16334897431496 -64.70260804996454 -84.8938134310944 1 3 1
1129 111 4 0 -85.30837200788365 -65.86258405656035 -81.00200162253006 1 3 1
961 94 4 0 -58.96221454829274 -54.71322590241948 -80.6908479140671 2 2 0
962 94 4 0 -60.97482860385156 -59.99675843100634 -78.36043521874852 2 2 0
1043 103 3 0 -42.76959611925974 -62.600164529906735 -88.78167063697745 -1 2 -1
1044 103 3 0 -45.62092969010036 -67.89244592415984 -88.30015674104334 -1 2 -1
1045 103 3 0 -48.33206707900909 -71.88767859813905 -90.91169226004739 -1 2 -1
163 15 3 0 -28.79578544675071 -68.30873345944873 -76.57076000466024 2 1 0
164 15 3 0 -23.90380350909373 -66.0404795668121 -79.06252450306509 2 1 0
165 15 3 0 -18.056254822263302 -64.93623728542603 -78.37710020234617 2 1 0
1161 114 4 0 -21.77620751851563 -54.42016099128987 -82.41578856737475 1 -1 2
212 19 4 0 -10.742963630706674 -74.66082302600837 -86.1738734119558 1 -1 -1
166 15 2 0 -14.123449186343535 -62.243188786411345 -74.90857984514105 2 1 0
872 85 4 0 -95.4709622152108 -39.80147022335959 -81.46456158590372 1 1 0
871 85 4 0 -93.88460202275327 -38.00315054773207 -87.20831599937597 1 1 0
579 56 4 0 -88.94574735697098 -53.366555240599574 -87.04794192902371 0 -1 2
580 56 4 0 -85.15841154682586 -51.90676034713688 -82.59085644488314 0 -1 2
581 56 4 0 -82.90790894992249 -53.22137051579427 -77.72947115883636 0 -1 2
1605 159 3 0 -71.64198506979059 -51.054165975949374 -90.72788180774366 1 1 1
1606 159 2 0 -71.94938695711272 -46.05624957048325 -86.88188548288448 1 1 1
1607 159 4 0 -72.8497230953816 -40.65240747567553 -85.08471611660946 1 1 1
960 94 4 0 -59.08713187568688 -48.997794989642216 -81.80980755575831 2 2 0
958 94 3 0 -59.229015149043626 -40.972942895815194 -88.78031151365259 2 2 0
959 94 4 0 -61.22238556054777 -44.464673270818466 -85.10906519402135 2 2 0
1162 114 4 0 -26.809515236265415 -52.94952134814213 -85.13300860078597 1 -1 2
1160 114 4 0 -19.53348989480426 -52.91737466561284 -77.28992422244029 1 -1 2
1609 159 4 0 -67.74298900580821 -30.684720240838267 -87.4809792945258 1 1 1
1608 159 3 0 -69.44796094649627 -35.90058496011828 -84.967550548935 1 1 1
830 81 4 0 -47.159384718896405 -24.533859039061415 -91.29363119483048 1 -2 0
831 81 4 0 -46.575093005774725 -25.269603890889417 -85.46967978162195 1 -2 0
832 81 4 0 -44.60452748886758 -28.377395214999826 -81.17305913641049 1 -2 0
2006 199 2 0 -74.08098180590126 -3.5105294030746563 -87.038218872095 2 1 -1
82 6 4 0 -75.82036826640508 -9.493350552668808 -73.81563880844996 0 3 -1
2007 199 4 0 -75.41454977184783 -0.32538228509524264 -82.3834091715183 2 1 -1
2005 199 3 0 -70.02851538435742 -6.491336688976035 -90.61983403125899 2 1 -1
81 6 4 0 -70.69386224191942 -8.520478248507423 -77.18669530151665 0 3 -1
80 6 4 0 -65.44306074556658 -6.582049946692965 -77.56413719639886 0 3 -1
829 81 4 0 -49.457033917550206 -20.10805638786578 -94.54516487787814 1 -2 0
1756 174 2 0 -40.867396974417034 -13.252083461502993 -89.05741325358814 0 4 0
1753 174 3 0 -54.99558787361103 -12.544103769452661 -80.59373068531123 0 4 0
1755 174 3 0 -44.95923022912096 -12.526552898662882 -84.84436436435975 0 4 0
1754 174 3 0 -49.64116682263553 -13.670471465033309 -82.61298786274523 0 4 0
242 22 4 0 -56.30111049239381 -100.92334717981147 -69.74818749302403 2 0 -1
1052 103 4 0 -44.08122070085763 -99.44440975780154 -72.43477718425373 -1 2 -1
1401 138 4 0 -26.379007991378728 -103.73240060002486 -60.34541398437698 2 0 3
1402 138 4 0 -31.068047103223385 -101.67211901386362 -63.72028079210299 2 0 3
1399 138 4 0 -16.762605232266395 -109.73111138741614 -57.64229396099767 2 0 3
1200 118 4 0 -105.68620110974685 -58.59862640767666 -71.09028712212391 -1 0 -1
1198 118 3 0 -96.6065817490402 -60.90530681315997 -64.95461583216185 -1 0 -1
1199 118 4 0 -100.5434740823597 -60.86533611241552 -69.68681048339704 -1 0 -1
1197 118 4 0 -91.08522022426176 -60.04482818822001 -63.57620580057939 -1 0 -1
1196 118 2 0 -86.58486492015165 -60.08229369674481 -59.546891425536494 -1 0 -1
1195 118 3 0 -84.05090898770794 -56.51555095046639 -55.248789750853796 -1 0 -1
1157 114 4 0 -23.540249058054417 -55.009981796016326 -61.429243194574816 1 -1 2
1156 114 2 0 -21.257515474552203 -59.49167160545143 -58.312198637517376 1 -1 2
167 15 4 0 -11.574571749329563 -57.97483489275027 -71.92190483146894 2 1 0
168 15 3 0 -11.37832148895267 -54.62075818059714 -67.33208651053883 2 1 0
169 15 4 0 -13.1248104029601 -53.49519378389755 -62.3065395198541 2 1 0
170 15 4 0 -12.412870982676933 -54.184235659123736 -56.45762642342774 2 1 0
1155 114 3 0 -18.91852993040914 -64.71915294287145 -57.77413110399568 1 -1 2
1154 114 3 0 -15.854500221272938 -68.92950426576492 -60.558911209534166 1 -1 2
1153 114 3 0 -11.008857962574153 -72.23136403839605 -61.140634241645046 1 -1 2
582 56 4 0 -78.08404828091942 -53.00872605242318 -74.13789401659616 0 -1 2
1158 114 3 0 -23.562000558078076 -53.305466581289515 -66.67537426611891 1 -1 2
1159 114 4 0 -19.99323320497955 -53.008441358898665 -71.46996824978875 1 -1 2
1315 130 3 0 -60.549553282670914 -11.663412346659829 -58.551768050090466 1 0 0
1314 130 3 0 -62.47492498704363 -13.15330677731405 -53.131011960075995 1 0 0
1188 117 3 0 -68.187855215678 -1.8412717870555635 -59.19674040136266 -1 -1 -1
354 34 3 0 -109.51261401658061 -71.50132020904223 -70.76328039914009 0 0 -2
1316 130 2 0 -55.334550009407614 -9.000301694920436 -58.84909266754831 1 0 0
1317 130 4 0 -51.60994547268001 -4.19519425453588 -59.903814813909555 1 0 0
1423 141 3 0 -24.754404777238264 -5.41650417895335 -64.42083487741297 2 -3 2
1424 141 3 0 -18.79637606684708 -6.948401973533736 -64.19455821793639 2 -3 2
1425 141 3 0 -16.00550010930024 -9.754332570369906 -59.99733067298744 2 -3 2
356 34 2 0 -108.36425909752516 -71.22688711322593 -60.144855962341865 0 0 -2
1931 191 4 0 -107.3225686795334 -107.32958356722676 -44.71757523757884 0 0 0
1930 191 4 0 -102.7500340775011 -104.80849478178527 -41.94683048790486 0 0 0
1929 191 4 0 -97.59024702656427 -105.22915818582524 -39.46789287036228 0 0 0
310 29 4 0 -109.56631239074923 -58.632228687704284 -103.92177064032327 -1 0 1
1400 138 4 0 -21.575782643634845 -106.5943010732519 -58.19161444875964 2 0 3
361 34 4 0 -105.03744685122642 -80.8338861096011 -35.269507338784464 0 0 -2
362 34 4 0 -99.33815768074601 -80.18130272044868 -33.9774161493118 0 0 -2
360 34 4 0 -108.328646513515 -77.24764597326889 -38.67496927262189 0 0 -2
359 34 4 0 -108.69660635468917 -73.97351017833913 -43.72799953935779 0 0 -2
551 53 4 0 -98.89247340579624 -88.24522722806951 -107.22033170531829 1 1 2
358 34 3 0 -109.75051584462709 -71.39903502366487 -48.94895959735693 0 0 -2
1194 118 3 0 -82.96806860801763 -59.57077829940489 -50.36788147389822 -1 0 -1
40 2 1 0 -82.08802763637068 -66.62026281192924 -38.7752943596522 0 0 0
42 2 2 0 -88.8646529022646 -73.5502506864245 -43.73235349565035 0 0 0
41 2 3 0 -87.18413673758317 -68.16617610557526 -41.29430929906645 0 0 0
1193 118 3 0 -78.49853553829237 -60.70596190524582 -46.59104409230875 -1 0 -1
172 15 4 0 -19.890103723229952 -54.16831729598727 -48.64501434660477 2 1 0
171 15 4 0 -15.176686121621408 -53.08986148914197 -50.93018259737874 2 1 0
783 77 3 0 -98.98800228954414 -19.9886260152062 -40.67306203430429 3 -2 -2
787 77 4 0 -92.72696757281226 -4.907503397373035 -52.53028547344361 3 -2 -2
785 77 3 0 -94.87172734964427 -14.637459234548645 -49.30511724962426 3 -2 -2
784 77 3 0 -98.55711851230895 -17.950259865579454 -46.1349806632532 3 -2 -2
786 77 2 0 -92.93477343961185 -9.112484830586336 -48.77730450597868 3 -2 -2
788 77 3 0 -89.26660180552679 -1.052370638804274 -55.31495541384328 3 -2 -2
1313 130 3 0 -65.31206377684141 -17.299183095806992 -49.995363591424585 1 0 0
1187 117 4 0 -66.1511892506942 -2.5454422248036446 -53.77839730195297 -1 -1 -1
1185 117 3 0 -57.07105907154002 -2.006174433735291 -47.24175520950518 -1 -1 -1
1186 117 2 0 -61.92957162591829 -0.4710409171745262 -50.30270430966928 -1 -1 -1
1184 117 3 0 -51.940272077282344 -4.912094350685301 -46.40018725677453 -1 -1 -1
1183 117 3 0 -46.61628916791833 -6.507569359431704 -43.32156464328949 -1 -1 -1
1429 141 4 0 -8.601667358611552 -12.507444155606219 -40.44341617122321 2 -3 2
1426 141 2 0 -12.399483018402558 -9.931353400886358 -55.10278615642811 2 -3 2
1427 141 4 0 -9.924130265630202 -7.307899962333041 -50.13176161948996 2 -3 2
1428 141 3 0 -9.881935793991433 -8.107485748392003 -44.21742242522791 2 -3 2
1980 196 4 0 -109.1240596801364 -109.49428835116623 -30.667760468486204 0 -1 -2
1979 196 4 0 -107.2456355479579 -104.5248660441976 -27.830394441043676 0 -1 -2
1978 196 3 0 -107.19485379393312 -98.40864383061655 -27.80751103117414 0 -1 -2
225 21 3 0 -69.36183153076621 -99.08066160655288 -0.6901639986561354 0 0 0
38 2 4 0 -76.55360682595041 -71.72756044251429 -30.55351267343601 0 0 0
397 38 4 0 -82.32182668570765 -71.30550309431419 -21.514305697287366 4 2 0
39 2 2 0 -79.78853483946027 -70.28694416306402 -34.85483721931265 0 0 0
37 2 3 0 -72.37568400342789 -68.99728209014685 -27.374929729818877 0 0 0
393 38 3 0 -83.42826036372341 -57.45301176727916 -34.28454972136477 4 2 0
394 38 3 0 -87.65556701096268 -59.57336620545299 -30.825367813488462 4 2 0
396 38 2 0 -85.8643657877046 -68.32577254319473 -25.01285766028659 4 2 0
395 38 3 0 -88.58716669239143 -64.69495714752823 -28.20855502048268 4 2 0
35 2 1 0 -72.41032277968529 -61.857376223514265 -19.109875056041744 0 0 0
36 2 1 0 -70.36293180534165 -64.58724491158337 -23.653397445272038 0 0 0
619 60 4 0 -58.791485853493995 -61.56843326477604 -21.32042935245765 3 -2 -2
620 60 4 0 -60.44643569774061 -58.36682958493452 -25.814557956244904 3 -2 -2
621 60 4 0 -61.27250474231027 -56.53128673226759 -31.443516143866734 3 -2 -2
618 60 3 0 -54.71792634378068 -65.8257395677197 -20.449203485123864 3 -2 -2
622 60 4 0 -60.21848568758041 -51.24417382870632 -33.630020177260675 3 -2 -2
616 60 2 0 -44.337848037631915 -62.50149883338712 -21.191761280809487 3 -2 -2
617 60 4 0 -49.07694198678352 -65.78748903337886 -20.162315216063767 3 -2 -2
723 71 3 0 -46.18941970279617 -53.21381025061062 -32.93916953710363 0 0 0
1793 178 3 0 -92.74287183658582 -41.31848274004624 -21.500842044393956 3 0 2
726 71 2 0 -54.51543513287416 -52.244474421359904 -18.782395843523542 0 0 0
724 71 3 0 -49.35390957114159 -50.62833894788833 -28.65739815090906 0 0 0
725 71 3 0 -51.44347300167612 -50.276805087497294 -23.433292580857042 0 0 0
1823 181 3 0 -64.87992215654718 -20.85162634734146 -17.082436325877296 -1 -1 0
1430 141 4 0 -3.923348957532537 -12.208444097574308 -37.421852434108544 2 -3 2
1037 102 4 0 -109.07625223714786 -103.80899629533292 -14.327194966779595 2 1 0
1038 102 3 0 -104.59048555298024 -100.37426559789104 -16.016715274739155 2 1 0
1039 102 4 0 -103.0005319767881 -94.86180152317938 -17.318671103054182 2 1 0
326 31 2 0 -76.94361341684932 -109.7621194788469 -5.872168978545693 3 -1 -1
325 31 3 0 -77.24618295321035 -109.01399415636796 -11.330043259135596 3 -1 -1
224 21 3 0 -73.94481064294587 -95.24076518432378 -1.1338872921141316 0 0 0
232 21 4 0 -46.37297225323354 -104.49546518401654 -6.98101186359772 0 0 0
327 31 4 0 -80.15151793481175 -107.77079167025533 -1.599330753845427 3 -1 -1
1041 102 4 0 -105.66130584138381 -84.8258968687377 -12.549895821561252 2 1 0
1040 102 4 0 -103.10969101556641 -89.8465977695808 -14.428806693716497 2 1 0
223 21 3 0 -74.79885962476868 -89.56330798861718 -3.5036652973953095 0 0 0
1276 126 2 0 -105.49664986707165 -66.71483661528588 -10.57630246381521 2 -1 1
1275 126 3 0 -100.62300266668767 -69.01634706814836 -13.356560614635681 2 -1 1
1274 126 3 0 -95.00944326064956 -69.02415719107447 -15.219534951876328 2 -1 1
1798 178 3 0 -91.59073561988284 -57.931336801656606 -4.457023277446551 3 0 2
1273 126 3 0 -89.56888823317578 -71.37133443574507 -15.100408085305371 2 -1 1
398 38 3 0 -78.93951434771037 -71.28639694269265 -17.225989902208443 4 2 0
399 38 4 0 -75.22954024360797 -70.61064203315722 -12.758908614147863 4 2 0
31 2 1 0 -80.68832131003818 -59.4448560130792 -1.511647082819888 0 0 0
32 2 1 0 -80.16778330796681 -58.65405206162587 -7.157486847360896 0 0 0
33 2 1 0 -78.48187754813989 -56.3001894476141 -12.683373642865499 0 0 0
34 2 1 0 -73.97937428562929 -57.396142531443154 -16.2427524209944 0 0 0
400 38 4 0 -72.59108883561595 -68.66807709266573 -8.131847956216697 4 2 0
1682 166 4 0 -100.32281829295941 -107.60572601908248 -67.56899536342465 1 0 2
401 38 4 0 -72.87390245485413 -66.55367644323522 -2.4263873139623104 4 2 0
615 60 3 0 -40.68246009085471 -59.10024248691126 -18.0000219515283 3 -2 -2
614 60 3 0 -34.73616457822518 -58.63958290523249 -17.899095091035164 3 -2 -2
613 60 3 0 -32.0021586080927 -61.29140047309615 -13.221364911179343 3 -2 -2
1797 178 4 0 -90.79446820513343 -52.76758373624292 -7.4243011643490116 3 0 2
1794 178 3 0 -88.27559722422038 -42.8979513663104 -17.81315076921727 3 0 2
1796 178 2 0 -89.24634382239135 -46.96927927651845 -8.54893513600354 3 0 2
1795 178 3 0 -87.66757908164257 -42.432010577349644 -11.815857067489468 3 0 2
728 71 3 0 -55.98002007569454 -54.65008294081769 -7.430022543336767 0 0 0
729 71 4 0 -59.11640383892863 -52.66640215785668 -2.969146518530597 0 0 0
727 71 4 0 -54.63594586490011 -54.367983397369315 -13.133886089226179 0 0 0
704 69 3 0 -45.82218141713803 -42.29448673509995 -2.6645213307406648 0 2 -1
703 69 3 0 -42.05426021524568 -41.444662898269485 -7.284144352874821 0 2 -1
623 61 3 0 -76.82643120048049 -30.719866924412646 -14.100826718251405 1 0 1
624 61 3 0 -80.30580825770816 -26.65283890873443 -12.557285456740015 1 0 1
625 61 3 0 -82.13636131975399 -20.613393227319833 -13.384658816987068 1 0 1
629 61 4 0 -77.1208621183012 -4.133214817096474 -4.230149037447026 1 0 1
628 61 3 0 -81.01689930342053 -7.875236662564556 -5.333459039118696 1 0 1
1826 181 2 0 -72.94995352758777 -19.211295381869895 -2.7228197299609755 -1 -1 0
626 61 2 0 -84.46081404063322 -15.33480826705351 -11.388816958845045 1 0 1
627 61 4 0 -84.96162476423159 -10.325081203093076 -8.73512545451073 1 0 1
1928 191 3 0 -93.08875918354495 -108.70484390800837 -38.27701931817613 0 0 0
1824 181 3 0 -69.49888155811256 -21.513918166262222 -13.204785744311845 -1 -1 0
1825 181 3 0 -69.61718141198278 -19.446329604822292 -7.413840962960444 -1 -1 0
79 6 4 0 -64.93841078485885 -1.0252899760121439 -78.94939796904308 0 3 -1
1057 104 4 0 -87.89200480514941 -109.03043958777515 -82.02363791645702 0 2 -1
1190 117 4 0 -61.73566791265024 -0.6057140355637176 -68.02142281186558 -1 -1 -1
1189 117 4 0 -66.64343280242466 -0.11179180665684886 -64.67027327105215 -1 -1 -1
1681 166 4 0 -104.38283983327779 -108.40413427410205 -63.26316037135819 1 0 2
1397 138 4 0 -5.806842991362326 -109.99007836614335 -61.09783927905233 2 0 3
226 21 2 0 -69.03061000031384 -104.88454453410309 -0.8400729837414527 0 0 0
386 37 2 0 -100.86136185984746 -49.33373651788563 -108.80820623586428 1 -1 -1
424 41 3 0 -100.26121962269727 -74.76531891458684 -109.87346920685924 0 2 1
552 53 4 0 -104.20282606383479 -88.86367239613293 -108.92441582718963 1 1 2
328 31 3 0 -79.2851337911384 -106.8328507370725 4.3664564207666725 3 -1 -1
329 31 4 0 -79.11792581887289 -102.75935065208662 8.137376884196678 3 -1 -1
330 31 4 0 -79.06682579060912 -102.00939657487613 14.199161415204248 3 -1 -1
1873 186 3 0 -29.236718246850614 -1.5356939890862868 107.6078442924699 2 0 0
227 21 4 0 -64.9938029316434 -109.34770433757839 0.2624559553851135 0 0 0
1392 137 4 0 -75.5137310823651 -0.2387641702828225 68.46329194892306 0 0 1
16 2 2 0 -109.25264910954245 -8.152866057869963 15.345631036252044 0 0 0
1434 142 3 0 -12.187495970994876 -105.40079776342186 15.112970996816946 0 1 2
1433 142 3 0 -8.2221701828075 -102.62740874667224 11.671887798598993 0 1 2
402 38 4 0 -70.19246236473167 -64.71917706625165 2.6245996069624464 4 2 0
1800 178 4 0 -91.97530482926811 -64.38182363055618 5.454491864705649 3 0 2
1799 178 4 0 -92.16853775594687 -60.61497825811402 0.9847788871915858 3 0 2
1801 178 4 0 -88.54180762859453 -66.29155653068482 9.903542490972175 3 0 2
1802 178 4 0 -87.23795565048364 -69.80159175482994 14.247408574343545 3 0 2
30 2 2 0 -80.69412649652503 -56.82747814207246 3.958918528660093 0 0 0
29 2 1 0 -82.44216544342805 -54.63456000903768 9.315717762296144 0 0 0
28 2 1 0 -84.86188431410575 -56.290682232339385 14.3670407125962 0 0 0
744 73 3 0 -97.66452060608798 -48.62464394776842 11.246419994395085 2 1 0
743 73 3 0 -93.28030986322348 -45.873267647851954 8.334461842474035 2 1 0
745 73 3 0 -100.90692047861755 -49.09600631274143 16.4034783115954 2 1 0
1382 136 4 0 -109.17242816110969 -41.458030480653726 0.6953551652577846 -1 1 0
1381 136 4 0 -107.2552386814157 -45.65789997062054 4.235749843555591 -1 1 0
709 69 4 0 -55.87789012839174 -51.0133941497116 20.800925404265318 0 2 -1
1413 140 3 0 -71.59716790147912 -38.62510813576527 14.483938877406953 1 2 0
708 69 3 0 -50.82624842160145 -49.82142130324927 17.897661406391823 0 2 -1
732 71 4 0 -70.41102336054696 -43.87022351185967 6.518814641355076 0 0 0
730 71 4 0 -62.05352057501573 -48.72176954997768 0.022953193574207886 0 0 0
731 71 4 0 -67.35609424637737 -46.60966699547343 1.7361643847057453 0 0 0
707 69 4 0 -49.69557237763226 -48.223144403129346 12.000129124473752 0 2 -1
706 69 2 0 -48.5932597473332 -45.817301427697394 6.582983579514965 0 2 -1
705 69 3 0 -49.97921633165878 -42.901555062185025 1.5343274139094536 0 2 -1
1435 142 3 0 -16.66986442137057 -109.35431077645039 13.857494883520333 0 1 2
1710 169 4 0 -104.60720068740835 -26.65827736496657 17.302884661366402 3 -2 0
700 68 4 0 -86.56744468424387 -38.15582985463272 16.74497162965028 0 2 -2
701 68 4 0 -85.08753263843207 -34.19562267890985 12.74701080981939 0 2 -2
702 68 4 0 -84.37283370208964 -31.231926691675465 7.6138259558901895 0 2 -2
1380 136 4 0 -108.3703236105133 -50.475416488511506 7.032428002480388 -1 1 0
1789 177 4 0 -83.3532740223682 -8.98556137317371 92.41365744449195 2 2 -1
1830 181 4 0 -82.36725428032292 -10.897443741120556 15.172569622482518 -1 -1 0
1829 181 4 0 -83.52852166097908 -13.257585249310534 9.764855576041045 -1 -1 0
1828 181 3 0 -81.04833130066348 -14.129242384007235 3.97265196615507 -1 -1 0
331 31 4 0 -80.19588550575516 -99.86189715163388 19.7467161611584 3 -1 -1
332 31 4 0 -81.5798374460178 -94.8140215694326 21.263755580640247 3 -1 -1
513 50 3 0 -70.00389273456055 -92.98651598296878 28.10316065414984 2 3 -1
514 50 3 0 -66.01670516760463 -96.87656213960261 31.083259834108294 2 3 -1
1143 113 3 0 -60.54383907946226 -107.35059851550655 25.853403640705753 2 0 0
1073 106 3 0 -98.68103041896399 -9.609401832283119 96.42498115167605 1 -1 -1
1642 162 4 0 -51.41536263845783 -97.0033185509637 21.440676471823448 0 1 0
1641 162 4 0 -47.09164997357488 -100.53153359576783 22.443032088408334 0 1 0
1640 162 4 0 -40.83388184252842 -100.54217846737971 22.05600669354134 0 1 0
1639 162 4 0 -35.39084728972432 -101.5509087166837 23.273791218386048 0 1 0
1638 162 3 0 -31.067159398778475 -102.03375769440089 26.911700425753846 0 1 0
1637 162 4 0 -28.355267769406257 -99.85886350547054 31.576121542627266 0 1 0
293 28 3 0 -96.57202601174284 -83.5040098422521 35.48925798334825 2 2 1
1636 162 2 0 -25.339167021747492 -94.61475416387047 31.04369684912089 0 1 0
1635 162 3 0 -21.66961527173988 -89.99299949021717 32.41409362841907 0 1 0
1634 162 3 0 -21.57491464944476 -84.26085235332532 34.61705096058251 0 1 0
26 2 2 0 -93.3913539669027 -53.95643073280238 21.89845766611728 0 0 0
27 2 1 0 -88.37773663941451 -55.07579695055117 19.073508420164252 0 0 0
710 69 4 0 -57.39183209809855 -56.67000394498145 22.972790732568743 0 2 -1
711 69 4 0 -57.07068110012758 -62.67576313594188 23.624996381027415 0 2 -1
712 69 4 0 -55.10406366432815 -68.2510131657361 22.929969209424847 0 2 -1
746 73 2 0 -105.81932635386721 -47.356668993123904 18.222319824059024 2 1 0
23 2 2 0 -100.70910276861427 -39.68786498334508 26.578737437218088 0 0 0
24 2 2 0 -98.79388991566401 -44.936059267707975 26.99186426527138 0 0 0
25 2 2 0 -96.5774012956461 -50.33254539896237 25.339300224723672 0 0 0
22 2 3 0 -105.41720160413934 -36.55307797207397 27.29441667614355 0 0 0
599 58 4 0 -94.32246345245152 -40.407935667760746 34.053775875740975 1 -1 2
698 68 3 0 -84.41680972918856 -44.040858630534025 26.28549424912601 0 2 -2
699 68 4 0 -86.32033621093018 -42.60416089474684 21.01678567029241 0 2 -2
697 68 4 0 -81.72137904052208 -41.90951681075152 31.438034277594618 0 2 -2
696 68 2 0 -78.47415489687216 -38.36683955057405 34.73819360844839 0 2 -2
1414 140 3 0 -72.96973889355642 -35.60159698406671 19.41172875702125 1 2 0
1711 169 4 0 -99.13718103165144 -27.27315624484296 18.83183807934559 3 -2 0
1712 169 4 0 -96.13345525530866 -26.381738526035882 23.75664029610025 3 -2 0
20 2 2 0 -109.24087675261578 -26.30337523092122 28.55528612081472 0 0 0
21 2 1 0 -107.61877821259043 -31.709866706963048 29.448310626661492 0 0 0
19 2 4 0 -108.37820615505981 -21.39422214806728 26.253698434471126 0 0 0
600 58 4 0 -95.08031078302757 -34.68348096921523 33.67069620799108 1 -1 2
1415 140 3 0 -77.02560038046296 -32.656510347442016 22.255800922211304 1 2 0
1416 140 2 0 -81.43750332833908 -31.415699726835136 26.20910166646995 1 2 0
1417 140 4 0 -83.9002071475138 -29.04916660214228 31.250870150986167 1 2 0
1418 140 3 0 -85.552145838192 -24.007793333694256 34.077825090606076 1 2 0
1419 140 4 0 -86.35822781784015 -20.14042383784912 38.11591463774713 1 2 0
18 2 4 0 -109.24305971446312 -18.277247244687633 20.898154137668914 0 0 0
1831 181 4 0 -85.86133503444609 -7.3674926368439335 17.807129378479686 -1 -1 0
1832 181 4 0 -89.04278928119717 -5.935387003703117 22.55408150185954 -1 -1 0
1221 120 4 0 -28.80655048664765 -3.855179825495301 23.27978386317539 -1 0 1
1222 120 4 0 -25.02885587564605 -2.66200628514081 27.23653438989956 -1 0 1
901 88 4 0 -105.44117184056007 -105.44270223953055 50.312687693393976 2 -1 -2
902 88 4 0 -103.72844621289268 -106.70635337983043 55.76431780753445 2 -1 -2
900 88 4 0 -109.25533971202866 -102.7286619391805 46.57242791193892 2 -1 -2
1541 152 4 0 -71.85723364276721 -98.35934079982717 39.31685998535777 2 1 0
1542 152 4 0 -76.18264823338622 -94.50581518224402 37.883327743714844 2 1 0