LAMMPS (29 Aug 2024)
  using 1 OpenMP thread(s) per MPI task
Reading data file ...
  orthogonal box = (-300 -300 -300) to (300 300 300)
  2 by 2 by 2 MPI processor grid
  reading atoms ...
  534 atoms
  scanning bonds ...
  1 = max bonds/atom
  scanning angles ...
  1 = max angles/atom
  orthogonal box = (-300 -300 -300) to (300 300 300)
  2 by 2 by 2 MPI processor grid
  reading bonds ...
  483 bonds
  reading angles ...
  432 angles
Finding 1-2 1-3 1-4 neighbors ...
  special bond factors lj:    0        0        1       
  special bond factors coul:  0        0        0       
     2 = max # of 1-2 neighbors
     2 = max # of 1-3 neighbors
     4 = max # of 1-4 neighbors
     6 = max # of special neighbors
  special bonds CPU = 0.000 seconds
  read_data CPU = 0.007 seconds

CITE-CITE-CITE-CITE-CITE-CITE-CITE-CITE-CITE-CITE-CITE-CITE-CITE

Your simulation uses code contributions which should be cited:
- Type Label Framework: https://doi.org/10.1021/acs.jpcb.3c08419
The log file lists these citations in BibTeX format.

CITE-CITE-CITE-CITE-CITE-CITE-CITE-CITE-CITE-CITE-CITE-CITE-CITE

Switching to 'neigh_modify every 1 delay 0 check yes' setting during minimization
Generated 0 of 6 mixed pair_coeff terms from geometric mixing rule
Neighbor list info ...
  update: every = 1 steps, delay = 0 steps, check = yes
  max neighbors/atom: 2000, page size: 100000
  master list distance cutoff = 33
  ghost atom cutoff = 33
  binsize = 16.5, bins = 37 37 37
  2 neighbor lists, perpetual/occasional/extra = 2 0 0
  (1) pair lj/cut, perpetual, trim from (2)
      attributes: half, newton on, cut 25
      pair build: trim
      stencil: none
      bin: none
  (2) pair base/rna, perpetual
      attributes: half, newton on
      pair build: half/bin/newton
      stencil: half/bin/3d
      bin: standard
Setting up cg style minimization ...
  Unit style    : real
  Current step  : 0
Per MPI rank memory allocation (min/avg/max) = 8.452 | 8.486 | 8.721 Mbytes
   Step          Temp          E_pair         E_mol          TotEng         Press     
         0   0              1069.4489      594.70163      1664.1505      1.5531719    
        78   0             -36.031272      553.92244      517.89117      0.00019729162
Loop time of 0.00649994 on 8 procs for 78 steps with 534 atoms

76.5% CPU use with 8 MPI tasks x 1 OpenMP threads

Minimization stats:
  Stopping criterion = energy tolerance
  Energy initial, next-to-last, final = 
      1664.15052093643   517.930551593885   517.891166098793
  Force two-norm initial, final = 1781.3548 1.5389417
  Force max component initial, final = 1049.2751 0.40806223
  Final line search alpha, max atom move = 0.23212681 0.094722185
  Iterations, force evaluations = 78 97

MPI task timing breakdown:
Section |  min time  |  avg time  |  max time  |%varavg| %total
---------------------------------------------------------------
Pair    | 0.0013866  | 0.0016941  | 0.0020726  |   0.5 | 26.06
Bond    | 8.733e-05  | 0.00022928 | 0.00039646 |   0.0 |  3.53
Neigh   | 0          | 0          | 0          |   0.0 |  0.00
Comm    | 0.0029997  | 0.0034205  | 0.0038666  |   0.5 | 52.62
Output  | 0          | 0          | 0          |   0.0 |  0.00
Modify  | 0          | 0          | 0          |   0.0 |  0.00
Other   |            | 0.001156   |            |       | 17.79

Nlocal:          66.75 ave         118 max          22 min
Histogram: 1 0 1 1 3 0 1 0 0 1
Nghost:         76.625 ave         106 max          55 min
Histogram: 2 1 0 2 0 0 1 1 0 1
Neighs:        124.375 ave         215 max          48 min
Histogram: 1 0 2 1 0 1 2 0 0 1

Total # of neighbors = 995
Ave neighs/atom = 1.8632959
Ave special neighs/atom = 4.8539326
Neighbor list builds = 0
Dangerous builds = 0
Generated 0 of 6 mixed pair_coeff terms from geometric mixing rule
Setting up Verlet run ...
  Unit style    : real
  Current step  : 0
  Time step     : 10
Per MPI rank memory allocation (min/avg/max) = 7.343 | 7.377 | 7.611 Mbytes
   Step         PotEng         KinEng         TotEng          Temp          Press         Density    
         0   517.89117      476.63153      994.52269      300            0.10106726     0.0013385235 
     10000   235.6942       453.25933      688.95353      285.28914      0.12273018     0.0013385235 
     20000   228.42284      510.72442      739.14726      321.45865     -0.0041946882   0.0013385235 
     30000   226.25681      442.46611      668.72292      278.4957      -0.020070492    0.0013385235 
     40000   224.80298      463.64173      688.44471      291.824       -0.028649658    0.0013385235 
     50000   251.09865      479.51856      730.6172       301.81715     -0.03776596     0.0013385235 
     60000   231.24065      460.67618      691.91683      289.95743      0.0015996258   0.0013385235 
     70000   271.89798      474.65582      746.5538       298.75646      0.084467684    0.0013385235 
     80000   241.56132      475.57216      717.13347      299.33321      0.045545451    0.0013385235 
     90000   241.65614      465.0232       706.67934      292.69352     -0.010488907    0.0013385235 
    100000   238.33953      478.02431      716.36384      300.87664      0.10524264     0.0013385235 
    110000   241.02848      484.12866      725.15714      304.71882      0.034158457    0.0013385235 
    120000   256.14645      432.97389      689.12034      272.52114      0.02343314     0.0013385235 
    130000   251.84489      472.93701      724.7819       297.67461     -0.052370424    0.0013385235 
    140000   232.39562      483.40977      715.8054       304.26634      0.033043971    0.0013385235 
    150000   238.53638      464.44122      702.97759      292.32721     -0.033777938    0.0013385235 
    160000   263.26915      472.48609      735.75524      297.39079     -0.035099341    0.0013385235 
    170000   239.04147      461.79265      700.83412      290.66016     -0.0085838877   0.0013385235 
    180000   236.98407      483.02938      720.01346      304.02692     -0.049500954    0.0013385235 
    190000   222.34906      475.71222      698.06129      299.42137      0.030367775    0.0013385235 
    200000   234.54894      469.85326      704.4022       295.73364      0.036548622    0.0013385235 
    210000   228.2655       474.84603      703.11153      298.87618      0.037485736    0.0013385235 
    220000   231.68222      466.24143      697.92365      293.4603      -0.05560468     0.0013385235 
    230000   243.59073      497.74033      741.33105      313.28624      0.0088718379   0.0013385235 
    240000   246.14195      453.79968      699.94164      285.62925      0.093272021    0.0013385235 
    250000   243.62612      492.87075      736.49687      310.22124      0.047651109    0.0013385235 
    260000   243.98508      475.99662      719.9817       299.60038      0.05313574     0.0013385235 
    270000   251.20422      469.84818      721.05239      295.73044     -0.027910971    0.0013385235 
    280000   258.64432      473.86983      732.51414      298.26174      0.016240241    0.0013385235 
    290000   237.27532      499.64747      736.92279      314.48663      0.026507614    0.0013385235 
    300000   256.41556      508.9987       765.41425      320.37245      0.01220797     0.0013385235 
    310000   237.81262      465.78471      703.59733      293.17283     -0.0096476922   0.0013385235 
    320000   241.28614      475.75302      717.03916      299.44705     -0.042460919    0.0013385235 
    330000   247.89069      452.29719      700.18789      284.68356     -0.02405501     0.0013385235 
    340000   239.95593      472.12113      712.07706      297.16108     -0.0057367192   0.0013385235 
    350000   258.92513      478.00507      736.93021      300.86453      0.022280184    0.0013385235 
    360000   216.71709      499.95751      716.6746       314.68177     -0.0048679498   0.0013385235 
    370000   236.1574       461.03139      697.18879      290.18101     -0.02983606     0.0013385235 
    380000   246.38759      524.50942      770.89701      330.13516      0.023787712    0.0013385235 
    390000   244.08308      486.88949      730.97257      306.45654     -0.016349446    0.0013385235 
    400000   232.13021      490.40638      722.53659      308.67012      0.048166441    0.0013385235 
    410000   247.09601      464.08573      711.18174      292.10346     -0.018171863    0.0013385235 
    420000   251.52684      483.03901      734.56586      304.03298     -0.017629603    0.0013385235 
    430000   234.72167      475.61876      710.34043      299.36255     -0.012795494    0.0013385235 
    440000   229.35463      459.6922       689.04684      289.3381      -0.018609562    0.0013385235 
    450000   252.07182      485.28093      737.35274      305.44408      0.060238797    0.0013385235 
    460000   228.65578      464.10635      692.76214      292.11644     -0.065150035    0.0013385235 
    470000   250.97358      507.80953      758.7831       319.62396      0.015446765    0.0013385235 
    480000   239.40726      487.06584      726.4731       306.56753      0.015362876    0.0013385235 
    490000   255.97086      519.00795      774.97881      326.67244     -0.0013702766   0.0013385235 
    500000   234.49553      499.399        733.89453      314.33024      0.028502225    0.0013385235 
    510000   248.43137      471.96081      720.39218      297.06017      0.062372371    0.0013385235 
    520000   245.40026      470.25085      715.65111      295.9839       0.022786287    0.0013385235 
    530000   235.93662      480.17782      716.11444      302.2321      -0.038231643    0.0013385235 
    540000   231.02109      473.59225      704.61335      298.08703      0.044085479    0.0013385235 
    550000   253.22607      459.92676      713.15283      289.48573     -0.013659682    0.0013385235 
    560000   259.44997      487.59235      747.04232      306.89893      0.0014652761   0.0013385235 
    570000   265.86537      485.13538      751.00075      305.35247      0.0094587538   0.0013385235 
    580000   215.83382      491.7321       707.56592      309.50456     -0.052509858    0.0013385235 
    590000   247.70738      482.44949      730.15687      303.66192      0.025318007    0.0013385235 
    600000   241.89787      455.71147      697.60935      286.83256     -0.0071031404   0.0013385235 
    610000   222.50676      497.18533      719.69209      312.93691      0.025256228    0.0013385235 
    620000   241.54526      473.98985      715.5351       298.33728      0.0010125423   0.0013385235 
    630000   261.59387      473.84831      735.44217      298.2482       0.029616677    0.0013385235 
    640000   262.37684      470.96725      733.34408      296.43481     -0.03113558     0.0013385235 
    650000   240.77415      476.24169      717.01584      299.75463     -0.024594321    0.0013385235 
    660000   236.89361      494.87139      731.76501      311.48048     -0.013844554    0.0013385235 
    670000   224.41573      496.83475      721.25049      312.71625      0.049371209    0.0013385235 
    680000   244.15802      482.9922       727.15022      304.00352      0.0043257448   0.0013385235 
    690000   251.10075      484.18802      735.28877      304.75619      0.036085382    0.0013385235 
    700000   254.30031      493.18117      747.48148      310.41663     -0.0092584325   0.0013385235 
    710000   237.79946      461.58436      699.38382      290.52906     -0.0076135673   0.0013385235 
    720000   241.22382      471.9353       713.15912      297.04411     -0.015232942    0.0013385235 
    730000   250.69004      488.45238      739.14243      307.44025      0.065937538    0.0013385235 
    740000   242.67494      478.99049      721.66542      301.48477     -0.059347091    0.0013385235 
    750000   254.95952      477.70847      732.66799      300.67785      0.062980911    0.0013385235 
    760000   237.18509      477.06395      714.24903      300.27217     -0.013679021    0.0013385235 
    770000   227.42446      469.74558      697.17003      295.66586      0.01093195     0.0013385235 
    780000   234.77842      494.74505      729.52347      311.40096      0.026635872    0.0013385235 
    790000   240.21996      478.13571      718.35567      300.94676     -0.04477499     0.0013385235 
    800000   231.256        481.56174      712.81774      303.10316     -0.0063876245   0.0013385235 
    810000   263.99468      475.26516      739.25984      299.13999      0.051751031    0.0013385235 
    820000   249.681        478.16421      727.84521      300.9647      -0.032732162    0.0013385235 
    830000   248.41876      483.95419      732.37295      304.60901      0.037035876    0.0013385235 
    840000   249.08906      471.38087      720.46993      296.69515     -0.040645667    0.0013385235 
    850000   230.49662      493.70121      724.19782      310.74395      0.015845917    0.0013385235 
    860000   243.88732      466.593        710.48033      293.68158     -0.0059257707   0.0013385235 
    870000   249.22165      507.29028      756.51192      319.29714      0.027590068    0.0013385235 
    880000   261.06413      468.05074      729.11487      294.59911      0.0087143881   0.0013385235 
    890000   247.32722      484.27938      731.60661      304.81369     -0.027955264    0.0013385235 
    900000   264.35273      457.16869      721.52142      287.74976      0.0032294479   0.0013385235 
    910000   235.03642      465.06246      700.09888      292.71823      0.092249498    0.0013385235 
    920000   246.7948       476.73215      723.52695      300.06333     -0.020155496    0.0013385235 
    930000   250.19405      478.44598      728.64004      301.14205      0.078249782    0.0013385235 
    940000   214.22884      445.26599      659.49484      280.258        0.042091203    0.0013385235 
    950000   264.59437      467.07445      731.66882      293.98461      0.028214027    0.0013385235 
    960000   242.55847      474.06388      716.62235      298.38388      0.0023299328   0.0013385235 
    970000   262.2975       548.78107      811.07857      345.41215      0.024261764    0.0013385235 
    980000   254.26804      473.54726      727.8153       298.05871      0.037497846    0.0013385235 
    990000   249.45687      473.63198      723.08885      298.11203     -0.06910454     0.0013385235 
   1000000   244.75026      489.7317       734.48197      308.24547      0.010584735    0.0013385235 
   1010000   252.7941       505.11087      757.90497      317.92538      0.017939129    0.0013385235 
   1020000   240.89562      507.2871       748.18272      319.29514      0.014379349    0.0013385235 
   1030000   254.21901      497.2662       751.48522      312.98782     -0.054687506    0.0013385235 
   1040000   268.01794      451.37161      719.38955      284.10098     -0.03354263     0.0013385235 
   1050000   247.0999       461.24821      708.34811      290.31748      0.088512642    0.0013385235 
   1060000   239.07593      483.84086      722.91678      304.53768     -0.045952171    0.0013385235 
   1070000   231.86385      506.40278      738.26663      318.73853      0.017304153    0.0013385235 
   1080000   243.42279      498.08036      741.50315      313.50026      0.094406614    0.0013385235 
   1090000   244.37012      473.44619      717.81631      297.99509     -0.0036172318   0.0013385235 
   1100000   251.54422      473.66676      725.21098      298.13393      0.036105157    0.0013385235 
   1110000   232.52318      498.96869      731.49187      314.05939      0.012741335    0.0013385235 
   1120000   244.67812      491.55064      736.22876      309.39034      0.092905282    0.0013385235 
   1130000   230.4912       482.40158      712.89278      303.63177     -0.027348464    0.0013385235 
   1140000   253.70986      466.81275      720.52261      293.81989      0.030924915    0.0013385235 
   1150000   234.03742      455.10085      689.13826      286.44822      0.03833471     0.0013385235 
   1160000   235.51608      445.8576       681.37368      280.63037     -0.004101994    0.0013385235 
   1170000   226.21207      460.4081       686.62017      289.7887       0.036866683    0.0013385235 
   1180000   248.53627      462.38885      710.92512      291.03542     -0.0049730005   0.0013385235 
   1190000   248.95989      489.8633       738.82319      308.3283       0.033666996    0.0013385235 
   1200000   242.03705      461.98634      704.02339      290.78207     -0.0484822      0.0013385235 
   1210000   228.34683      471.94264      700.28947      297.04873      0.081658028    0.0013385235 
   1220000   232.54981      477.90333      710.45314      300.8005      -0.0026230181   0.0013385235 
   1230000   236.08908      468.59371      704.6828       294.94086     -0.015424458    0.0013385235 
   1240000   231.4973       477.57635      709.07365      300.59469      0.020758446    0.0013385235 
   1250000   230.35157      492.87578      723.22735      310.22441     -0.097791395    0.0013385235 
   1260000   207.18993      491.45756      698.64749      309.33176      0.022823961    0.0013385235 
   1270000   224.43665      471.50108      695.93773      296.77081      0.024390472    0.0013385235 
   1280000   206.36721      479.24437      685.61158      301.64457      0.009024304    0.0013385235 
   1290000   217.09847      480.5408       697.63928      302.46057     -0.072039843    0.0013385235 
   1300000   217.54674      486.50298      704.04972      306.21326      0.040558029    0.0013385235 
   1310000   234.18323      481.22576      715.40899      302.89169     -0.0057573011   0.0013385235 
   1320000   221.77178      480.96264      702.73442      302.72608      0.051667917    0.0013385235 
   1330000   227.53451      485.35563      712.89014      305.4911       0.0010167384   0.0013385235 
   1340000   228.01111      474.56287      702.57399      298.69795      0.076631437    0.0013385235 
   1350000   252.44342      482.48533      734.92875      303.68448     -0.11460022     0.0013385235 
   1360000   256.52754      482.45763      738.98517      303.66705      0.038868074    0.0013385235 
   1370000   237.29219      477.81109      715.10328      300.74244      0.093844978    0.0013385235 
   1380000   220.61876      471.41277      692.03153      296.71522      0.054037402    0.0013385235 
   1390000   239.42797      480.01182      719.43979      302.12761      0.054713996    0.0013385235 
   1400000   223.58984      465.99122      689.58106      293.30281     -0.11907638     0.0013385235 
   1410000   238.28959      462.23244      700.52203      290.93697      0.045216049    0.0013385235 
   1420000   218.76323      476.17379      694.93702      299.71189     -0.032775921    0.0013385235 
   1430000   187.89888      492.88238      680.78127      310.22857      0.016931596    0.0013385235 
   1440000   235.0338       463.21636      698.25016      291.55627     -0.0073730469   0.0013385235 
   1450000   253.18081      484.3416       737.52241      304.85285      0.074750879    0.0013385235 
   1460000   224.05533      493.49936      717.55469      310.6169       0.058265009    0.0013385235 
   1470000   234.62756      487.04982      721.67738      306.55745     -0.035587053    0.0013385235 
   1480000   217.32386      470.7301       688.05395      296.28554      0.060907504    0.0013385235 
   1490000   218.3982       469.35289      687.75109      295.4187       0.034777087    0.0013385235 
   1500000   223.19871      474.52537      697.72408      298.67435      0.10906317     0.0013385235 
   1510000   242.18928      461.89362      704.0829       290.72371     -0.05242269     0.0013385235 
   1520000   227.04022      483.40808      710.4483       304.26528      0.11606306     0.0013385235 
   1530000   216.19069      460.28519      676.47588      289.71134     -0.0021266381   0.0013385235 
   1540000   235.19114      472.90345      708.09459      297.65349      0.025034249    0.0013385235 
   1550000   241.61188      477.50162      719.1135       300.54765      0.011038264    0.0013385235 
   1560000   209.53771      482.59849      692.13621      303.75571     -0.071346795    0.0013385235 
   1570000   222.58005      494.21229      716.79234      311.06563     -0.016757995    0.0013385235 
   1580000   265.88046      482.39952      748.27998      303.63047      0.037404622    0.0013385235 
   1590000   218.02197      466.47677      684.49874      293.60843      0.082657028    0.0013385235 
   1600000   237.57511      495.27074      732.84584      311.73184      0.047741589    0.0013385235 
   1610000   246.67229      470.87497      717.54726      296.37672      0.060068033    0.0013385235 
   1620000   209.39135      505.85003      715.24137      318.39062      0.028752905    0.0013385235 
   1630000   217.40744      481.96671      699.37415      303.35806      0.026315312    0.0013385235 
   1640000   221.14166      518.01621      739.15787      326.04822      0.030066557    0.0013385235 
   1650000   176.06546      461.41904      637.48451      290.425       -0.044831659    0.0013385235 
   1660000   216.87942      454.92182      671.80124      286.33554      0.082499972    0.0013385235 
   1670000   225.09978      474.60921      699.70898      298.72712      0.0010913713   0.0013385235 
   1680000   248.57362      452.1657       700.73932      284.60079      0.021103493    0.0013385235 
   1690000   228.20436      493.99024      722.19459      310.92587      0.019584988    0.0013385235 
   1700000   234.38861      504.44429      738.83289      317.50582     -0.0017944388   0.0013385235 
   1710000   251.79371      459.93123      711.72494      289.48855     -0.025280217    0.0013385235 
   1720000   223.22001      460.58092      683.80093      289.89747     -0.028540081    0.0013385235 
   1730000   215.93839      482.60283      698.54123      303.75844     -0.026745645    0.0013385235 
   1740000   228.60238      481.30279      709.90517      302.94018      0.049323911    0.0013385235 
   1750000   251.3291       450.1052       701.43431      283.30388      0.047697765    0.0013385235 
   1760000   220.43813      475.45478      695.89291      299.25933     -0.091659178    0.0013385235 
   1770000   193.09292      486.5167       679.60961      306.22189      0.088096631    0.0013385235 
   1780000   236.47769      487.50762      723.98531      306.8456      -0.050598728    0.0013385235 
   1790000   237.56035      464.36304      701.92339      292.278        0.041554372    0.0013385235 
   1800000   235.88964      486.26414      722.15378      306.06293     -0.05661368     0.0013385235 
   1810000   221.38143      468.65191      690.03335      294.97749     -3.9789295e-05  0.0013385235 
   1820000   247.9239       497.68078      745.60468      313.24876      0.020640097    0.0013385235 
   1830000   249.71196      465.37636      715.08831      292.9158       0.018535285    0.0013385235 
   1840000   233.71377      460.18498      693.89876      289.64826      0.024626167    0.0013385235 
   1850000   213.32104      476.75957      690.08061      300.08059     -0.018967531    0.0013385235 
   1860000   215.52468      490.49795      706.02263      308.72777      0.013888691    0.0013385235 
   1870000   217.91836      490.66075      708.57911      308.83023     -0.068246323    0.0013385235 
   1880000   230.57577      460.66713      691.2429       289.95174      0.031152086    0.0013385235 
   1890000   244.63728      482.97303      727.61031      303.99145     -0.088724709    0.0013385235 
   1900000   196.8116       455.57856      652.39016      286.7489      -0.017263065    0.0013385235 
   1910000   228.81509      501.83703      730.65212      315.86477     -0.0094089271   0.0013385235 
   1920000   237.94611      448.94634      686.89245      282.57447      0.070725728    0.0013385235 
   1930000   235.77174      479.59625      715.36799      301.86605     -0.016604937    0.0013385235 
   1940000   225.2211       501.57516      726.79626      315.69995      0.016493043    0.0013385235 
   1950000   238.58083      475.09834      713.67917      299.03499      0.022127436    0.0013385235 
   1960000   217.44708      529.35386      746.80094      333.18433     -0.042612971    0.0013385235 
   1970000   230.10442      487.5976       717.70202      306.90223      0.00089885546  0.0013385235 
   1980000   253.82205      519.85873      773.68078      327.20794      0.11930077     0.0013385235 
   1990000   244.08172      483.31351      727.39523      304.20575      0.013084267    0.0013385235 
   2000000   236.79105      491.92324      728.7143       309.62487     -0.059436722    0.0013385235 
   2010000   194.67779      489.00706      683.68485      307.78937     -0.0068572309   0.0013385235 
   2020000   200.89927      491.62537      692.52464      309.43738      0.010381998    0.0013385235 
   2030000   226.53087      479.67517      706.20603      301.91572      0.0209614      0.0013385235 
   2040000   215.47029      448.03831      663.5086       282.00294      0.038136549    0.0013385235 
   2050000   207.34057      489.86838      697.20895      308.3315      -0.005350833    0.0013385235 
   2060000   226.36314      492.04115      718.40429      309.69908     -0.0031613142   0.0013385235 
   2070000   225.25983      451.62917      676.88901      284.26309      0.046193681    0.0013385235 
   2080000   219.43094      474.84008      694.27102      298.87243     -0.105557       0.0013385235 
   2090000   206.46674      477.49621      683.96295      300.54425     -0.057787603    0.0013385235 
   2100000   229.45831      514.07272      743.53104      323.56613     -0.020742464    0.0013385235 
   2110000   223.61451      455.8812       679.49571      286.93939      0.0033945265   0.0013385235 
   2120000   212.40652      474.59374      687.00027      298.71738      0.020277571    0.0013385235 
   2130000   228.38838      454.55095      682.93933      286.10211     -0.045411585    0.0013385235 
   2140000   224.29642      469.05268      693.34911      295.22975     -0.018223729    0.0013385235 
   2150000   246.16805      454.60183      700.76988      286.13413     -0.023631067    0.0013385235 
   2160000   204.75453      490.80666      695.56118      308.92207     -0.017864053    0.0013385235 
   2170000   232.53602      469.89695      702.43297      295.76114      0.011564544    0.0013385235 
   2180000   224.05406      491.57162      715.62568      309.40355      0.0076681775   0.0013385235 
   2190000   212.62293      522.39968      735.0226       328.80725      0.028993761    0.0013385235 
   2200000   227.84428      495.63176      723.47604      311.95907      0.013186946    0.0013385235 
   2210000   204.17358      495.62161      699.79519      311.95268      0.023028379    0.0013385235 
   2220000   222.89942      459.53741      682.43683      289.24067     -0.023653886    0.0013385235 
   2230000   216.27177      447.09495      663.36672      281.40917      0.072435536    0.0013385235 
   2240000   225.21803      446.32483      671.54287      280.92445     -0.025038311    0.0013385235 
   2250000   253.30479      461.41361      714.7184       290.42159     -0.035099014    0.0013385235 
   2260000   236.15087      451.14541      687.29629      283.95861     -0.030026497    0.0013385235 
   2270000   234.43198      473.71684      708.14882      298.16545     -0.066422889    0.0013385235 
   2280000   227.09089      484.51736      711.60825      304.96348      0.033398243    0.0013385235 
   2290000   234.55227      503.99731      738.54958      317.22449     -0.0082614933   0.0013385235 
   2300000   203.60096      468.89106      672.49202      295.12802      0.016462641    0.0013385235 
   2310000   236.7473       471.70054      708.44784      296.89635      0.020718412    0.0013385235 
   2320000   221.25056      451.00013      672.25068      283.86716     -0.084536833    0.0013385235 
   2330000   222.51363      479.78615      702.29977      301.98557     -0.015223097    0.0013385235 
   2340000   203.46329      487.50524      690.96853      306.8441       0.012116979    0.0013385235 
   2350000   207.3543       483.20769      690.56199      304.13915      0.13428484     0.0013385235 
   2360000   228.96427      487.60751      716.57178      306.90847     -0.025904491    0.0013385235 
   2370000   240.76482      462.8578       703.62262      291.33058      0.046425132    0.0013385235 
   2380000   213.25672      468.76252      682.01924      295.04711      0.085202768    0.0013385235 
   2390000   214.00232      467.01369      681.01601      293.94637     -0.014179063    0.0013385235 
   2400000   201.30532      462.58304      663.88836      291.15764      0.023123845    0.0013385235 
   2410000   203.25243      473.77866      677.03109      298.20436     -0.063796612    0.0013385235 
   2420000   232.0643       493.20466      725.26896      310.43142      0.04908611     0.0013385235 
   2430000   226.36717      456.13967      682.50683      287.10207      0.024667369    0.0013385235 
   2440000   222.8918       491.78379      714.6756       309.53709      0.016305583    0.0013385235 
   2450000   209.89286      485.41827      695.31113      305.53053     -0.026123237    0.0013385235 
   2460000   235.97477      464.47014      700.44492      292.34542      0.00036572663  0.0013385235 
   2470000   224.84134      480.56199      705.40333      302.4739       0.026251345    0.0013385235 
   2480000   241.25453      478.7997       720.05423      301.36468     -0.030773612    0.0013385235 
   2490000   223.24592      477.44343      700.68935      300.51103     -0.062070371    0.0013385235 
   2500000   228.54595      501.54018      730.08613      315.67793      0.01880345     0.0013385235 
   2510000   207.19082      472.99726      680.18808      297.71253     -0.088995527    0.0013385235 
   2520000   227.96212      441.33406      669.29618      277.78318     -0.015476596    0.0013385235 
   2530000   230.58129      486.4086       716.98989      306.15386      0.034576032    0.0013385235 
   2540000   228.33171      503.12294      731.45464      316.67414      0.0034407456   0.0013385235 
   2550000   255.16057      514.26257      769.42315      323.68562      0.032678591    0.0013385235 
   2560000   208.87406      469.16003      678.0341       295.29731      0.047689189    0.0013385235 
   2570000   219.09204      493.30294      712.39498      310.49327     -0.033605038    0.0013385235 
   2580000   238.83877      485.91689      724.75566      305.84436     -0.051514053    0.0013385235 
   2590000   213.34591      471.21305      684.55896      296.58952      0.0079968582   0.0013385235 
   2600000   218.75783      483.94979      702.70762      304.60624      0.056235699    0.0013385235 
   2610000   236.05977      467.62938      703.68915      294.33389     -0.036099211    0.0013385235 
   2620000   225.90073      458.98453      684.88525      288.89268     -0.080076975    0.0013385235 
   2630000   216.94075      476.7484       693.68915      300.07356     -0.012627099    0.0013385235 
   2640000   222.44025      482.56377      705.00402      303.73385      0.0033747179   0.0013385235 
   2650000   221.90208      480.92572      702.8278       302.70284      0.016279354    0.0013385235 
   2660000   210.9378       470.0281       680.9659       295.84369      0.020204707    0.0013385235 
   2670000   215.73854      479.79815      695.53669      301.99313      0.039664073    0.0013385235 
   2680000   238.41431      481.36237      719.77668      302.97768     -0.035168719    0.0013385235 
   2690000   201.53137      503.41783      704.9492       316.85976      0.058105268    0.0013385235 
   2700000   226.98473      497.60575      724.59048      313.20153      0.063613586    0.0013385235 
   2710000   222.49372      495.2174       717.71112      311.69827     -0.042194701    0.0013385235 
   2720000   223.66052      497.44333      721.10385      313.0993       0.026213147    0.0013385235 
   2730000   250.94375      483.30714      734.25089      304.20175     -0.036646828    0.0013385235 
   2740000   228.14991      460.14482      688.29473      289.62298      0.050209114    0.0013385235 
   2750000   220.1628       461.96763      682.13044      290.77029     -0.0562433      0.0013385235 
   2760000   189.32831      489.07134      678.39966      307.82983      0.10546308     0.0013385235 
   2770000   230.90695      462.206        693.11295      290.92033     -0.046653003    0.0013385235 
   2780000   233.86823      457.4421       691.31033      287.92184      0.0316547      0.0013385235 
   2790000   223.73123      486.58947      710.3207       306.2677      -0.013707182    0.0013385235 
   2800000   234.87263      463.37801      698.25064      291.65801      0.029996255    0.0013385235 
   2810000   239.98931      497.0471       737.03641      312.84991     -0.023027697    0.0013385235 
   2820000   220.38092      502.10003      722.48094      316.03031      0.054470606    0.0013385235 
   2830000   244.65716      502.42477      747.08194      316.23471      0.046562178    0.0013385235 
   2840000   247.10054      477.57989      724.68042      300.59691      0.023446846    0.0013385235 
   2850000   238.86699      481.59978      720.46678      303.12711     -0.0030180206   0.0013385235 
   2860000   230.12899      461.9565       692.08549      290.76329     -0.024995593    0.0013385235 
   2870000   221.92695      479.78136      701.70831      301.98256     -0.0049003127   0.0013385235 
   2880000   223.88323      477.22487      701.1081       300.37346      0.054928202    0.0013385235 
   2890000   214.21788      459.37727      673.59516      289.13988     -0.0051893332   0.0013385235 
   2900000   227.07816      474.45792      701.53608      298.6319       0.089084683    0.0013385235 
   2910000   203.22136      500.52403      703.7454       315.03835      0.071064193    0.0013385235 
   2920000   230.99784      519.18092      750.17876      326.78131      0.045587283    0.0013385235 
   2930000   226.92528      453.77574      680.70101      285.61418      0.038364938    0.0013385235 
   2940000   231.28319      491.51111      722.7943       309.36546      0.0096332546   0.0013385235 
   2950000   253.96547      456.20076      710.16623      287.14053     -0.098535914    0.0013385235 
   2960000   232.20145      472.36178      704.56323      297.31255      0.0095684503   0.0013385235 
   2970000   220.06043      498.47707      718.5375       313.74996      0.0080242729   0.0013385235 
   2980000   213.62463      444.73852      658.36315      279.926        0.010411761    0.0013385235 
   2990000   208.70232      439.5669       648.26922      276.67089     -0.0038154085   0.0013385235 
   3000000   228.72824      467.53915      696.26739      294.2771       0.047038683    0.0013385235 
   3010000   237.98078      484.8049       722.78568      305.14446      0.023015412    0.0013385235 
   3020000   229.68654      489.61172      719.29826      308.16996     -0.045589729    0.0013385235 
   3030000   204.68343      472.91024      677.59367      297.65776      0.038323109    0.0013385235 
   3040000   248.99222      467.81795      716.81017      294.45258      0.033955704    0.0013385235 
   3050000   220.63768      474.80554      695.44322      298.85069      0.084155752    0.0013385235 
   3060000   199.83272      475.84624      675.67896      299.50573     -0.015723262    0.0013385235 
   3070000   211.05144      470.67194      681.72338      296.24893      0.0017107622   0.0013385235 
   3080000   227.03971      500.95912      727.99883      315.3122      -0.038934264    0.0013385235 
   3090000   207.7931       478.05205      685.84515      300.8941       0.015812149    0.0013385235 
   3100000   215.09407      454.18474      669.2788       285.87161      0.045640069    0.0013385235 
   3110000   240.19405      471.28799      711.48203      296.63669     -0.01138735     0.0013385235 
   3120000   251.53503      439.57209      691.10712      276.67416     -0.061489153    0.0013385235 
   3130000   235.79061      466.88019      702.6708       293.86234      0.024330306    0.0013385235 
   3140000   212.91409      465.20436      678.11845      292.80755      0.088013618    0.0013385235 
   3150000   190.05868      508.94332      699.00199      320.33759     -0.0016866695   0.0013385235 
   3160000   215.16448      453.43791      668.6024       285.40154     -0.0074006618   0.0013385235 
   3170000   222.46386      480.70865      703.1725       302.56621      0.014760428    0.0013385235 
   3180000   251.69181      488.58181      740.27362      307.52171      0.11013775     0.0013385235 
   3190000   232.10575      480.72028      712.82602      302.57353      0.019313785    0.0013385235 
   3200000   226.08139      482.53478      708.61617      303.71561      0.049631511    0.0013385235 
   3210000   203.62924      470.29835      673.9276       296.01379      0.064789405    0.0013385235 
   3220000   218.7139       485.87866      704.59256      305.8203       0.047358884    0.0013385235 
   3230000   236.25334      482.77963      719.03297      303.86972      0.0058170915   0.0013385235 
   3240000   226.47772      489.39319      715.87091      308.03241     -0.034878806    0.0013385235 
   3250000   223.20437      485.06984      708.27421      305.31122     -0.010781682    0.0013385235 
   3260000   238.5918       439.74764      678.33944      276.78465      0.020902648    0.0013385235 
   3270000   215.67874      467.86365      683.54238      294.48135     -0.042943255    0.0013385235 
   3280000   212.49676      486.9214       699.41816      306.47662     -0.011380508    0.0013385235 
   3290000   227.1366       459.98329      687.11989      289.52132      0.0083380344   0.0013385235 
   3300000   226.22143      463.77285      689.99428      291.90653      0.019536816    0.0013385235 
   3310000   219.99041      490.13924      710.12965      308.50199     -0.081550537    0.0013385235 
   3320000   201.9125       433.76984      635.68234      273.02212      0.044395815    0.0013385235 
   3330000   218.87381      478.21911      697.09292      300.99925      0.046158504    0.0013385235 
   3340000   208.62085      493.59781      702.21866      310.67887      0.017988494    0.0013385235 
   3350000   252.28898      478.33819      730.62717      301.07421     -0.0068443228   0.0013385235 
   3360000   219.97031      472.8635       692.83381      297.62834     -0.028710391    0.0013385235 
   3370000   212.70603      458.14488      670.85092      288.36419     -0.045817958    0.0013385235 
   3380000   224.26695      497.9083       722.17525      313.39197     -0.064521763    0.0013385235 
   3390000   223.03534      489.81742      712.85277      308.29943      0.00530963     0.0013385235 
   3400000   218.6749       487.17525      705.85015      306.6364       0.023346573    0.0013385235 
   3410000   240.87209      488.58441      729.4565       307.52335     -0.048823696    0.0013385235 
   3420000   222.73531      518.88149      741.6168       326.59285     -0.043020277    0.0013385235 
   3430000   238.34402      491.2032       729.54722      309.17166      0.013517793    0.0013385235 
   3440000   245.51051      483.95337      729.46388      304.60849      0.012621608    0.0013385235 
   3450000   231.85826      460.46419      692.32245      289.824        0.063402021    0.0013385235 
   3460000   240.22009      472.32867      712.54877      297.29171      0.026565849    0.0013385235 
   3470000   231.80982      500.42473      732.23455      314.97585      0.053266321    0.0013385235 
   3480000   220.80036      466.04828      686.84864      293.33872      0.014332061    0.0013385235 
   3490000   232.31105      476.81112      709.12217      300.11304      0.024495161    0.0013385235 
   3500000   224.62055      453.1893       677.80985      285.24506      0.035960192    0.0013385235 
   3510000   216.63375      483.79437      700.42812      304.50841      0.034362846    0.0013385235 
   3520000   230.26104      481.4955       711.75654      303.06147      0.057886801    0.0013385235 
   3530000   236.30717      466.20039      702.50756      293.43447      0.026075889    0.0013385235 
   3540000   206.73471      481.18423      687.91894      302.86555     -0.025493011    0.0013385235 
   3550000   239.60081      490.78351      730.38433      308.9075       0.082923435    0.0013385235 
   3560000   217.21253      472.59136      689.8039       297.45705      0.00044783075  0.0013385235 
   3570000   240.17321      451.69879      691.872        284.30691      0.031770824    0.0013385235 
   3580000   197.61647      484.43274      682.04921      304.91022     -0.063179238    0.0013385235 
   3590000   197.50846      473.27642      670.78487      297.88824      0.015662893    0.0013385235 
   3600000   227.06396      494.78571      721.84967      311.42655      0.029605106    0.0013385235 
   3610000   207.7006       475.1932       682.8938       299.09469     -0.058745055    0.0013385235 
   3620000   205.31296      488.03903      693.35198      307.18008      0.035423062    0.0013385235 
   3630000   228.96002      494.56706      723.52708      311.28893      0.0028921968   0.0013385235 
   3640000   204.88349      470.9513       675.83479      296.42477     -0.028517946    0.0013385235 
   3650000   217.87142      487.26575      705.13717      306.69336      0.048118682    0.0013385235 
   3660000   209.96799      514.35485      724.32284      323.7437       0.047392176    0.0013385235 
   3670000   206.10863      468.96296      675.07159      295.17327      0.066718235    0.0013385235 
   3680000   196.47894      485.76096      682.2399       305.74622      0.075405402    0.0013385235 
   3690000   198.52056      457.10407      655.62463      287.70909     -0.020906617    0.0013385235 
   3700000   216.48803      497.55983      714.04786      313.17263      0.049589729    0.0013385235 
   3710000   222.4249       473.2809       695.7058       297.89106     -0.019217783    0.0013385235 
   3720000   228.52397      484.96607      713.49004      305.2459       0.0013306318   0.0013385235 
   3730000   233.69824      455.34384      689.04208      286.60116     -0.0088218959   0.0013385235 
   3740000   242.27527      462.75159      705.02686      291.26373     -0.03717861     0.0013385235 
   3750000   228.59226      499.28953      727.88179      314.26133      0.066605327    0.0013385235 
   3760000   221.72905      468.22268      689.95173      294.70733      0.054116214    0.0013385235 
   3770000   213.53044      486.14159      699.67203      305.9858       0.034312811    0.0013385235 
   3780000   197.69263      469.37282      667.06545      295.43124      0.053205175    0.0013385235 
   3790000   211.23878      472.00601      683.24479      297.08862     -0.073702628    0.0013385235 
   3800000   203.34837      468.88053      672.22889      295.12139      0.01325055     0.0013385235 
   3810000   229.30864      461.16243      690.47106      290.26348      0.085711779    0.0013385235 
   3820000   217.83936      465.92043      683.75979      293.25825      0.038355922    0.0013385235 
   3830000   181.83924      485.06187      666.9011       305.3062       0.028809398    0.0013385235 
   3840000   218.64744      490.62544      709.27288      308.80801      0.025633742    0.0013385235 
   3850000   217.11336      447.14277      664.25613      281.43927     -0.021165359    0.0013385235 
   3860000   217.17757      468.45389      685.63146      294.85286      0.049193047    0.0013385235 
   3870000   183.10034      490.14552      673.24586      308.50594      0.005734934    0.0013385235 
   3880000   207.31324      497.88764      705.20088      313.37896     -0.016351237    0.0013385235 
   3890000   220.51601      478.03547      698.55148      300.88366      0.073498326    0.0013385235 
   3900000   212.28372      478.73303      691.01675      301.32272     -0.0043895877   0.0013385235 
   3910000   201.93345      496.57537      698.50882      312.553        0.0052025908   0.0013385235 
   3920000   210.01107      490.61457      700.62565      308.80117      0.016609617    0.0013385235 
   3930000   216.63179      462.75789      679.38968      291.2677      -0.040428614    0.0013385235 
   3940000   192.75484      466.03964      658.79448      293.33329     -0.041218604    0.0013385235 
   3950000   189.76692      461.07888      650.8458       290.2109       0.0055090253   0.0013385235 
   3960000   208.20264      460.23055      668.4332       289.67695     -0.08114722     0.0013385235 
   3970000   233.13755      495.14338      728.28093      311.65168      0.017527572    0.0013385235 
   3980000   238.60452      468.33172      706.93624      294.77596     -0.029686751    0.0013385235 
   3990000   177.60139      515.53339      693.13477      324.48549      0.079839953    0.0013385235 
   4000000   226.3806       493.00038      719.38098      310.30283      0.01092885     0.0013385235 
   4010000   205.55068      479.89434      685.44502      302.05367     -0.022413856    0.0013385235 
   4020000   207.06917      471.40097      678.47014      296.7078      -0.035246357    0.0013385235 
   4030000   174.7692       481.07418      655.84338      302.79628     -0.013174977    0.0013385235 
   4040000   186.75969      441.22803      627.98772      277.71644     -0.024513307    0.0013385235 
   4050000   196.15946      486.05355      682.21301      305.93038     -0.019779195    0.0013385235 
   4060000   196.65028      481.93928      678.58956      303.34079     -0.036565392    0.0013385235 
   4070000   174.02254      462.10388      636.12642      290.85605      0.08589028     0.0013385235 
   4080000   167.10716      448.63146      615.73862      282.37628      0.063691962    0.0013385235 
   4090000   193.53629      471.30692      664.84321      296.6486      -0.0095129211   0.0013385235 
   4100000   188.05227      468.58522      656.63749      294.93552      0.058018817    0.0013385235 
   4110000   205.95931      472.12432      678.08363      297.16309      0.024663069    0.0013385235 
   4120000   187.44531      477.87024      665.31555      300.77967      0.072411797    0.0013385235 
   4130000   195.9085       476.16128      672.06977      299.70402     -0.013399196    0.0013385235 
   4140000   195.69903      473.21207      668.91109      297.84773      0.036433666    0.0013385235 
   4150000   177.40861      467.9252       645.33381      294.52009      0.11863435     0.0013385235 
   4160000   183.75196      464.12981      647.88178      292.13121      0.03502066     0.0013385235 
   4170000   174.09945      471.70475      645.8042       296.899        0.036617699    0.0013385235 
   4180000   186.39469      467.98024      654.37492      294.55473      0.014031576    0.0013385235 
   4190000   162.85852      461.92237      624.78089      290.7418      -0.013417058    0.0013385235 
   4200000   186.27345      460.78355      647.057        290.02501      0.018113204    0.0013385235 
   4210000   223.79471      490.98803      714.78274      309.03623     -0.055188632    0.0013385235 
   4220000   177.17149      459.22334      636.39483      289.04299      0.012657979    0.0013385235 
   4230000   178.66653      487.59502      666.26155      306.90061      0.027441355    0.0013385235 
   4240000   183.5637       479.23525      662.79895      301.63883     -0.017782135    0.0013385235 
   4250000   189.83518      461.32087      651.15605      290.36321     -0.024379047    0.0013385235 
   4260000   185.07316      474.36764      659.4408       298.57507      0.034675662    0.0013385235 
   4270000   189.20625      506.06725      695.2735       318.52735     -0.033241521    0.0013385235 
   4280000   178.14513      463.12003      641.26516      291.49564      0.03214588     0.0013385235 
   4290000   189.06893      478.16982      667.23875      300.96823     -0.035001336    0.0013385235 
   4300000   158.48236      465.68544      624.1678       293.11034      0.043907135    0.0013385235 
   4310000   176.68226      485.69318      662.37545      305.70356      0.037073778    0.0013385235 
   4320000   166.34092      484.36828      650.70921      304.86965      0.071078986    0.0013385235 
   4330000   168.1627       475.24218      643.40488      299.12552      0.076302414    0.0013385235 
   4340000   143.4095       467.27185      610.68135      294.10886      0.012975581    0.0013385235 
   4350000   172.8697       472.70685      645.57655      297.52974      0.026677948    0.0013385235 
   4360000   160.67185      478.74165      639.4135       301.32815     -0.012646417    0.0013385235 
   4370000   212.80811      479.29825      692.10636      301.67848      0.050533143    0.0013385235 
   4380000   162.56381      450.30758      612.87139      283.43126     -0.0072660889   0.0013385235 
   4390000   166.50981      497.33641      663.84622      313.032       -0.019138123    0.0013385235 
   4400000   173.60979      439.67308      613.28287      276.73772      0.00097978253  0.0013385235 
   4410000   149.43312      523.37415      672.80728      329.4206       0.13205339     0.0013385235 
   4420000   174.14596      479.61637      653.76233      301.87871     -0.035707553    0.0013385235 
   4430000   169.46062      476.60629      646.0669       299.98411      0.0020162707   0.0013385235 
   4440000   170.61787      468.44486      639.06273      294.84717     -0.011235699    0.0013385235 
   4450000   163.64855      492.36629      656.01484      309.90373      0.047414702    0.0013385235 
   4460000   158.64886      490.02509      648.67395      308.43014      0.0028466575   0.0013385235 
   4470000   159.23538      463.92991      623.16529      292.00539      0.051203904    0.0013385235 
   4480000   180.63042      471.71902      652.34944      296.90799     -0.0062743292   0.0013385235 
   4490000   172.54339      474.08351      646.62689      298.39623      0.020959041    0.0013385235 
   4500000   195.54397      507.57074      703.11471      319.47367     -0.071366715    0.0013385235 
   4510000   162.34778      445.76768      608.11546      280.57377     -0.010871414    0.0013385235 
   4520000   170.17964      482.01108      652.19072      303.38598     -0.025154883    0.0013385235 
   4530000   186.82395      489.33579      676.15974      307.99628     -0.0238782      0.0013385235 
   4540000   187.42025      481.24621      668.66646      302.90456     -0.07952135     0.0013385235 
   4550000   156.9527       478.64974      635.60245      301.2703       0.021926474    0.0013385235 
   4560000   132.7482       475.57986      608.32806      299.33806     -0.00099796389  0.0013385235 
   4570000   125.89121      485.27315      611.16436      305.43919      0.00588957     0.0013385235 
   4580000   150.8624       448.0861       598.9485       282.03302      0.014019308    0.0013385235 
   4590000   135.89867      487.16617      623.06484      306.63068     -0.017251055    0.0013385235 
   4600000   117.39518      487.70509      605.10027      306.96989      0.016857645    0.0013385235 
   4610000   144.6461       493.72223      638.36833      310.75718     -0.03367455     0.0013385235 
   4620000   135.17383      453.28088      588.45471      285.3027       0.048678489    0.0013385235 
   4630000   150.25538      474.60369      624.85906      298.72364     -0.01050779     0.0013385235 
   4640000   139.62288      504.67645      644.29934      317.65196      0.068655567    0.0013385235 
   4650000   157.48245      481.42907      638.91152      303.01965     -0.023940048    0.0013385235 
   4660000   147.88486      453.51961      601.40448      285.45297     -0.045022133    0.0013385235 
   4670000   158.10199      478.64733      636.74932      301.26878      0.071865891    0.0013385235 
   4680000   129.53996      502.52947      632.06943      316.30061      0.039023519    0.0013385235 
   4690000   153.43237      461.60104      615.03341      290.53955      0.036887397    0.0013385235 
   4700000   148.2428       493.03656      641.27935      310.32561      0.028790072    0.0013385235 
   4710000   139.88693      487.13621      627.02314      306.61182     -0.029353014    0.0013385235 
   4720000   156.70562      466.94568      623.6513       293.90356      0.022042472    0.0013385235 
   4730000   136.41914      481.98242      618.40156      303.36794      0.050194011    0.0013385235 
   4740000   161.12559      476.7404       637.86599      300.06853      0.0098154473   0.0013385235 
   4750000   166.04214      492.84784      658.88998      310.20682      0.041089703    0.0013385235 
   4760000   152.12716      459.59607      611.72323      289.27759     -0.053594616    0.0013385235 
   4770000   173.96342      436.515        610.47843      274.74998      0.0062515576   0.0013385235 
   4780000   161.23971      463.31538      624.55509      291.61859     -0.084774665    0.0013385235 
   4790000   154.61128      479.55342      634.1647       301.83909     -0.057863357    0.0013385235 
   4800000   139.25476      507.69021      646.94497      319.54887      0.011589078    0.0013385235 
   4810000   121.19967      487.94486      609.14454      307.12081      0.008259039    0.0013385235 
   4820000   150.9776       487.42043      638.39803      306.79072     -0.0095293153   0.0013385235 
   4830000   135.2221       465.50133      600.72343      292.99447     -0.0059937935   0.0013385235 
   4840000   123.71594      485.92866      609.6446       305.85178     -0.062165963    0.0013385235 
   4850000   125.28156      486.64394      611.9255       306.30198      0.026555735    0.0013385235 
   4860000   130.28466      481.21665      611.50131      302.88595      0.023917462    0.0013385235 
   4870000   125.24412      503.40651      628.65063      316.85263      0.043272434    0.0013385235 
   4880000   128.76965      480.49195      609.2616       302.42982     -0.055240673    0.0013385235 
   4890000   141.88641      473.01783      614.90424      297.72548     -0.0042067735   0.0013385235 
   4900000   139.1053       492.54581      631.6511       310.01672      0.02040584     0.0013385235 
   4910000   150.40835      456.5904       606.99875      287.38577     -0.058417019    0.0013385235 
   4920000   141.82039      491.96096      633.78135      309.64861      0.02596455     0.0013385235 
   4930000   123.60215      502.15018      625.75233      316.06187      0.024066914    0.0013385235 
   4940000   125.27713      456.5272       581.80434      287.346       -0.0097976987   0.0013385235 
   4950000   143.09831      493.55221      636.65052      310.65016      0.06530698     0.0013385235 
   4960000   168.52844      472.05497      640.58341      297.11944     -0.039159646    0.0013385235 
   4970000   156.8326       493.75563      650.58824      310.7782      -0.039886335    0.0013385235 
   4980000   116.75403      449.98364      566.73767      283.22737     -0.033986609    0.0013385235 
   4990000   142.24434      461.87489      604.11922      290.71192     -0.0039278941   0.0013385235 
   5000000   154.2286       491.48676      645.71535      309.35013     -0.023330227    0.0013385235 
Loop time of 192.307 on 8 procs for 5000000 steps with 534 atoms

Performance: 22464.065 ns/day, 0.001 hours/ns, 26000.075 timesteps/s, 13.884 Matom-step/s
99.3% CPU use with 8 MPI tasks x 1 OpenMP threads

MPI task timing breakdown:
Section |  min time  |  avg time  |  max time  |%varavg| %total
---------------------------------------------------------------
Pair    | 41.214     | 55.066     | 75.441     | 146.8 | 28.63
Bond    | 6.9435     | 10.978     | 16.188     |  90.4 |  5.71
Neigh   | 0.36778    | 0.3948     | 0.42158    |   4.0 |  0.21
Comm    | 88.291     | 116.69     | 134.58     | 138.4 | 60.68
Output  | 0.04282    | 0.054661   | 0.12206    |  10.9 |  0.03
Modify  | 4.6388     | 6.9727     | 9.9516     |  67.3 |  3.63
Other   |            | 2.147      |            |       |  1.12

Nlocal:          66.75 ave         129 max          34 min
Histogram: 3 1 0 1 1 0 1 0 0 1
Nghost:         63.375 ave          91 max          46 min
Histogram: 2 0 1 1 1 2 0 0 0 1
Neighs:        196.875 ave         475 max          53 min
Histogram: 3 1 0 1 0 1 0 1 0 1

Total # of neighbors = 1575
Ave neighs/atom = 2.9494382
Ave special neighs/atom = 4.8539326
Neighbor list builds = 9570
Dangerous builds = 0
Generated 0 of 6 mixed pair_coeff terms from geometric mixing rule
Setting up Verlet run ...
  Unit style    : real
  Current step  : 5000000
  Time step     : 10
Per MPI rank memory allocation (min/avg/max) = 8.608 | 8.742 | 8.878 Mbytes
   Step         PotEng         KinEng         TotEng          Temp          Press         Density    
   5000000   154.2286       491.48676      645.71535      309.35013     -0.023330227    0.0013385235 
   5010000   139.82924      502.32835      642.15759      316.17402      0.0066009831   0.0013385235 
   5020000   162.64115      463.89589      626.53703      291.98397      0.066970829    0.0013385235 
   5030000   120.44252      523.66357      644.10609      329.60277     -0.0477391      0.0013385235 
   5040000   143.08478      489.57963      632.66441      308.14975      0.090888425    0.0013385235 
   5050000   122.46201      486.25535      608.71736      306.0574       0.093083604    0.0013385235 
   5060000   156.34177      498.49698      654.83875      313.76249     -0.048216919    0.0013385235 
   5070000   170.48238      472.68627      643.16865      297.51679      0.039419404    0.0013385235 
   5080000   157.34125      488.9053       646.24655      307.72532     -0.0052420323   0.0013385235 
   5090000   125.88769      473.29114      599.17883      297.8975      -0.064232575    0.0013385235 
   5100000   149.31767      490.65622      639.97389      308.82738     -0.029407177    0.0013385235 
   5110000   148.88123      527.93069      676.81192      332.28857      0.032456275    0.0013385235 
   5120000   163.30241      464.61405      627.91645      292.43599     -0.10352679     0.0013385235 
   5130000   155.59722      474.62103      630.21825      298.73456      0.040327684    0.0013385235 
   5140000   145.65111      468.28168      613.93279      294.74446      0.045468868    0.0013385235 
   5150000   124.31468      451.76951      576.0842       284.35143      0.01208668     0.0013385235 
   5160000   129.93635      481.81694      611.75328      303.26378     -0.025306837    0.0013385235 
   5170000   127.27266      459.97708      587.24973      289.51741     -0.039072827    0.0013385235 
   5180000   111.47464      479.24478      590.71943      301.64483      0.023452306    0.0013385235 
   5190000   121.96162      507.61624      629.57786      319.5023      -0.019593984    0.0013385235 
   5200000   131.92707      479.11679      611.04386      301.56427     -0.0078565813   0.0013385235 
   5210000   130.91312      455.61591      586.52903      286.77241      0.061841232    0.0013385235 
   5220000   108.85757      477.97721      586.83477      300.84699     -0.032395481    0.0013385235 
   5230000   109.98317      470.66486      580.64803      296.24448      0.027101894    0.0013385235 
   5240000   109.05348      447.5503       556.60378      281.69578     -0.019433176    0.0013385235 
   5250000   131.6955       477.7246       609.42009      300.688       -0.078969445    0.0013385235 
   5260000   134.52329      475.64727      610.17056      299.38049     -0.019525269    0.0013385235 
   5270000   166.77468      454.94421      621.71889      286.34963     -0.063156019    0.0013385235 
   5280000   135.70126      468.27619      603.97745      294.74101      0.0967244      0.0013385235 
   5290000   102.45674      467.13795      569.59469      294.02458     -0.035647908    0.0013385235 
   5300000   147.34681      500.68198      648.02879      315.13776     -0.069990448    0.0013385235 
   5310000   146.943        469.31471      616.25771      295.39467      0.05189481     0.0013385235 
   5320000   164.55013      486.93332      651.48344      306.48412      0.052036409    0.0013385235 
   5330000   157.86116      493.8235       651.68466      310.82092      0.00041501427  0.0013385235 
   5340000   137.82123      501.97479      639.79602      315.95148      0.071232517    0.0013385235 
   5350000   168.21621      481.46923      649.68545      303.04494     -0.0026890904   0.0013385235 
   5360000   160.46991      503.09317      663.56308      316.65541      0.035722279    0.0013385235 
   5370000   147.29057      489.91204      637.20261      308.35898      0.018199572    0.0013385235 
   5380000   134.53912      456.42587      590.96499      287.28222      0.071729162    0.0013385235 
   5390000   152.31288      492.48241      644.79529      309.97682      0.02690429     0.0013385235 
   5400000   160.49731      484.33622      644.83352      304.84946     -0.0016118399   0.0013385235 
   5410000   166.71107      493.64597      660.35703      310.70918     -0.053119096    0.0013385235 
   5420000   135.45216      517.88755      653.33972      325.96724     -0.046964874    0.0013385235 
   5430000   126.91223      465.70293      592.61516      293.12136      0.024504727    0.0013385235 
   5440000   136.59364      481.6924       618.28604      303.1854       0.061553976    0.0013385235 
   5450000   127.7642       469.2725       597.0367       295.3681      -0.020412036    0.0013385235 
   5460000   139.33026      482.52093      621.85119      303.70689     -0.038539023    0.0013385235 
   5470000   145.97274      484.56957      630.54231      304.99634      0.087414529    0.0013385235 
   5480000   141.55681      474.1459       615.70271      298.4355      -0.0089046184   0.0013385235 
   5490000   139.418        445.58894      585.00695      280.46127      0.049911255    0.0013385235 
   5500000   139.4091       472.9487       612.3578       297.68197     -0.030282629    0.0013385235 
   5510000   136.8265       475.39811      612.2246       299.22366      0.030011963    0.0013385235 
   5520000   134.05683      489.68038      623.73721      308.21317      0.044508801    0.0013385235 
   5530000   152.23493      488.89832      641.13324      307.72093     -0.0065935353   0.0013385235 
   5540000   122.2317       485.33279      607.56449      305.47672      0.059344888    0.0013385235 
   5550000   133.33976      484.39318      617.73294      304.88531      0.015842504    0.0013385235 
   5560000   123.92152      486.34477      610.26629      306.11368      0.11489944     0.0013385235 
   5570000   142.72196      477.44428      620.16624      300.51156     -0.045073488    0.0013385235 
   5580000   167.20332      461.65817      628.86149      290.57551     -0.032582145    0.0013385235 
   5590000   170.11551      473.55551      643.67102      298.0639      -0.026966459    0.0013385235 
   5600000   156.32495      475.26813      631.59308      299.14185      0.057146889    0.0013385235 
   5610000   157.5457       456.36937      613.91507      287.24665      0.095201654    0.0013385235 
   5620000   169.55112      491.69417      661.24529      309.48068      0.047827636    0.0013385235 
   5630000   131.69813      474.95614      606.65426      298.94548      0.0038061436   0.0013385235 
   5640000   173.99866      515.87105      689.8697       324.69802     -0.077215047    0.0013385235 
   5650000   148.74745      469.41099      618.15843      295.45527      0.014485111    0.0013385235 
   5660000   154.43214      482.06433      636.49647      303.4195       0.05415082     0.0013385235 
   5670000   146.93053      491.58881      638.51935      309.41437      0.018193341    0.0013385235 
   5680000   120.35073      495.96476      616.31549      312.16866      0.0090978282   0.0013385235 
   5690000   143.45309      493.1425       636.59559      310.39229      0.029688161    0.0013385235 
   5700000   128.88526      471.35297      600.23823      296.67759      0.047456376    0.0013385235 
   5710000   112.7054       480.22116      592.92656      302.25938      0.08900838     0.0013385235 
   5720000   142.04571      468.78693      610.83264      295.06248     -0.053491154    0.0013385235 
   5730000   115.81932      475.16918      590.9885       299.07957      0.06280062     0.0013385235 
   5740000   157.49439      473.41753      630.91192      297.97705     -0.022212334    0.0013385235 
   5750000   121.54686      480.70632      602.25317      302.56474      0.082116089    0.0013385235 
   5760000   121.645        485.15359      606.79859      305.36393     -0.01717129     0.0013385235 
   5770000   110.95817      523.97413      634.93231      329.79824     -0.10946633     0.0013385235 
   5780000   104.98924      478.80037      583.78961      301.36511      0.023469618    0.0013385235 
   5790000   128.64512      479.77054      608.41566      301.97575     -0.069870886    0.0013385235 
   5800000   128.62786      499.81226      628.44012      314.59035     -0.028573217    0.0013385235 
   5810000   138.30095      499.44825      637.74919      314.36123     -0.025856617    0.0013385235 
   5820000   141.30992      465.6054       606.91532      293.05997     -0.018580903    0.0013385235 
   5830000   145.66673      459.44433      605.11106      289.18208      0.0019704059   0.0013385235 
   5840000   131.49069      456.84378      588.33448      287.54526      0.064002279    0.0013385235 
   5850000   119.14226      486.81827      605.96053      306.41171      0.027432816    0.0013385235 
   5860000   121.32786      476.14334      597.4712       299.69273     -0.01885183     0.0013385235 
   5870000   154.91476      463.49733      618.41208      291.73311     -0.030751991    0.0013385235 
   5880000   127.03545      441.14042      568.17587      277.66129      0.020959585    0.0013385235 
   5890000   139.22274      468.39879      607.62153      294.81818      0.001920851    0.0013385235 
   5900000   112.94667      468.94835      581.89502      295.16408      0.036051271    0.0013385235 
   5910000   139.17093      476.48782      615.65875      299.90955     -0.064630045    0.0013385235 
   5920000   162.42452      477.76421      640.18873      300.71293     -0.017511318    0.0013385235 
   5930000   137.85226      487.16837      625.02063      306.63207      0.00036130047  0.0013385235 
   5940000   113.19793      488.81139      602.00932      307.66621      0.0047729547   0.0013385235 
   5950000   91.644647      488.84667      580.49132      307.68842      0.01678642     0.0013385235 
   5960000   133.20099      456.38899      589.58998      287.259       -0.014369867    0.0013385235 
   5970000   153.0415       487.37265      640.41414      306.76064     -0.00020463604  0.0013385235 
   5980000   100.75378      511.57366      612.32745      321.99318      0.038998021    0.0013385235 
   5990000   150.86322      481.74864      632.61186      303.2208      -0.017860904    0.0013385235 
   6000000   101.60619      476.15703      577.76322      299.70135     -0.0045160202   0.0013385235 
   6010000   129.83796      481.15282      610.99078      302.84578      0.075282962    0.0013385235 
   6020000   110.10221      470.7457       580.84791      296.29536     -0.038143377    0.0013385235 
   6030000   134.78631      464.69144      599.47775      292.4847       0.026287339    0.0013385235 
   6040000   138.99665      483.50776      622.5044       304.32802     -0.072983555    0.0013385235 
   6050000   129.40317      459.57748      588.98065      289.26589     -0.033209953    0.0013385235 
   6060000   135.01333      488.07164      623.08497      307.2006       0.038039714    0.0013385235 
   6070000   144.68889      421.09912      565.78801      265.04696      0.054943195    0.0013385235 
   6080000   139.57576      495.90176      635.47752      312.12901      0.045798312    0.0013385235 
   6090000   154.615        473.44259      628.05759      297.99283     -0.02200974     0.0013385235 
   6100000   161.76421      481.24016      643.00437      302.90075     -0.0010368523   0.0013385235 
   6110000   116.66346      474.32595      590.98941      298.54883     -0.014721024    0.0013385235 
   6120000   146.09176      494.83804      640.9298       311.45949     -0.0095087939   0.0013385235 
   6130000   107.11886      489.95258      597.07143      308.38449      0.020183754    0.0013385235 
   6140000   105.35777      449.33117      554.68894      282.81669     -0.038919982    0.0013385235 
   6150000   133.61156      457.13929      590.75085      287.73126      0.035443482    0.0013385235 
   6160000   167.27407      470.4748       637.74887      296.12485     -0.045991008    0.0013385235 
   6170000   122.96143      475.70367      598.6651       299.41599      0.065436695    0.0013385235 
   6180000   120.16627      479.16138      599.32765      301.59233     -0.086042843    0.0013385235 
   6190000   134.24527      462.11971      596.36498      290.86601     -0.026482339    0.0013385235 
   6200000   135.64508      480.13573      615.78081      302.2056       0.072371514    0.0013385235 
   6210000   127.81047      467.93131      595.74178      294.52394     -0.00026255562  0.0013385235 
   6220000   144.4491       483.93346      628.38256      304.59596     -0.02830423     0.0013385235 
   6230000   149.63704      484.72833      634.36537      305.09626      0.013633898    0.0013385235 
   6240000   160.04988      449.51832      609.5682       282.93448      0.028289964    0.0013385235 
   6250000   155.5104       494.05453      649.56492      310.96633      0.0057231214   0.0013385235 
   6260000   158.5515       461.40348      619.95498      290.41521      0.080627581    0.0013385235 
   6270000   144.76065      461.49085      606.2515       290.4702       0.037832745    0.0013385235 
   6280000   142.81145      485.86328      628.67473      305.81062      0.036014717    0.0013385235 
   6290000   131.95441      450.11225      582.06666      283.30832     -0.013209443    0.0013385235 
   6300000   149.3026       475.3126       624.6152       299.16984     -0.025957191    0.0013385235 
   6310000   140.51808      481.71021      622.22829      303.19661     -0.089419718    0.0013385235 
   6320000   120.55297      481.45165      602.00462      303.03387      0.10551149     0.0013385235 
   6330000   157.81307      484.26226      642.07533      304.80291     -0.05851733     0.0013385235 
   6340000   144.41482      466.47519      610.89         293.60743      0.081472108    0.0013385235 
   6350000   115.07526      460.81577      575.89103      290.04529      0.028024927    0.0013385235 
   6360000   147.25751      498.79373      646.05124      313.94927     -0.022783853    0.0013385235 
   6370000   101.64657      448.49782      550.14439      282.29217      0.048841153    0.0013385235 
   6380000   147.11369      477.38003      624.49372      300.47112     -0.0034422446   0.0013385235 
   6390000   118.71124      464.29995      583.01119      292.23829      0.029372089    0.0013385235 
   6400000   131.72882      480.69922      612.42804      302.56027      0.058647729    0.0013385235 
   6410000   130.89619      468.51036      599.40655      294.8884       0.043220547    0.0013385235 
   6420000   146.25499      483.90329      630.15828      304.57697      0.023305198    0.0013385235 
   6430000   152.47216      485.98511      638.45726      305.8873       0.042908217    0.0013385235 
   6440000   121.9679       481.05394      603.02184      302.78354      0.010812634    0.0013385235 
   6450000   121.80781      514.06056      635.86837      323.55847     -0.025804414    0.0013385235 
   6460000   142.95079      487.7954       630.7462       307.02673     -0.02187269     0.0013385235 
   6470000   131.98775      467.70112      599.68887      294.37905      0.054905635    0.0013385235 
   6480000   136.07906      449.03812      585.11718      282.63224      0.039078727    0.0013385235 
   6490000   139.85198      486.15707      626.00905      305.99554     -0.0082035327   0.0013385235 
   6500000   143.17577      473.80968      616.98544      298.22388     -0.087457545    0.0013385235 
   6510000   114.35552      473.82641      588.18192      298.23441      0.034287619    0.0013385235 
   6520000   122.09952      450.13114      572.23065      283.3202       0.10082013     0.0013385235 
   6530000   123.16628      458.17949      581.34577      288.38597     -0.017029433    0.0013385235 
   6540000   116.7851       451.53203      568.31713      284.20195      0.013332129    0.0013385235 
   6550000   145.36126      488.35115      633.71241      307.37653     -0.027941292    0.0013385235 
   6560000   107.18585      437.4084       544.59426      275.3123       0.00047091455  0.0013385235 
   6570000   130.02753      482.76449      612.79203      303.86019     -0.006880666    0.0013385235 
   6580000   125.19354      486.89338      612.08693      306.45899      0.063440727    0.0013385235 
   6590000   139.5798       496.84313      636.42294      312.72153      0.079688077    0.0013385235 
   6600000   116.45793      478.65294      595.11087      301.27231     -0.065982361    0.0013385235 
   6610000   135.30094      455.50109      590.80204      286.70015      0.076454509    0.0013385235 
   6620000   124.51303      479.25625      603.76928      301.65205      0.11711462     0.0013385235 
   6630000   151.15309      487.50984      638.66293      306.84699      0.14414143     0.0013385235 
   6640000   133.13775      493.97329      627.11104      310.9152      -0.0095979979   0.0013385235 
   6650000   114.54566      479.59532      594.14098      301.86546      0.0028299017   0.0013385235 
   6660000   142.70457      484.13851      626.84308      304.72503     -0.023932583    0.0013385235 
   6670000   130.29967      461.54499      591.84466      290.50428      0.016764053    0.0013385235 
   6680000   121.72105      473.57807      595.29913      298.0781       0.015591187    0.0013385235 
   6690000   148.56311      483.55669      632.1198       304.35881      0.0093024933   0.0013385235 
   6700000   125.15299      476.34301      601.496        299.8184      -0.045540056    0.0013385235 
   6710000   143.17368      472.29387      615.46755      297.26981      0.065844592    0.0013385235 
   6720000   109.35893      487.8308       597.18973      307.04901     -0.027064921    0.0013385235 
   6730000   119.84125      517.58805      637.4293       325.77873      0.0027034693   0.0013385235 
   6740000   142.06192      477.18299      619.24492      300.3471      -0.083737181    0.0013385235 
   6750000   157.32197      484.42257      641.74454      304.90382      0.041512584    0.0013385235 
   6760000   111.73308      517.37492      629.10799      325.64458     -0.019124142    0.0013385235 
   6770000   174.59548      467.77308      642.36856      294.42434     -0.042643712    0.0013385235 
   6780000   131.57081      495.91344      627.48425      312.13637      0.036254992    0.0013385235 
   6790000   131.62922      457.90812      589.53734      288.21517      0.059462569    0.0013385235 
   6800000   148.63926      484.54771      633.18697      304.98258      0.014937609    0.0013385235 
   6810000   137.10033      461.10807      598.2084       290.22927     -0.016500097    0.0013385235 
   6820000   159.77962      476.08808      635.8677       299.65794     -0.025748092    0.0013385235 
   6830000   159.92677      479.46746      639.39423      301.78498     -0.061614576    0.0013385235 
   6840000   150.75754      462.33862      613.09617      291.0038      -0.10692049     0.0013385235 
   6850000   134.89621      498.63022      633.52643      313.84635      0.014370382    0.0013385235 
   6860000   139.63348      472.04481      611.67829      297.11304     -0.01630248     0.0013385235 
   6870000   118.31016      495.67272      613.98288      311.98485      0.050896044    0.0013385235 
   6880000   161.02068      469.94816      630.96884      295.79338      0.066435599    0.0013385235 
   6890000   140.48252      471.87646      612.35898      297.00708     -0.078786191    0.0013385235 
   6900000   147.56056      502.91908      650.47964      316.54583      0.049862183    0.0013385235 
   6910000   143.97592      487.37217      631.34809      306.76034      0.073421711    0.0013385235 
   6920000   108.22854      464.7491       572.97763      292.521        0.0051554257   0.0013385235 
   6930000   121.53381      492.86433      614.39814      310.2172      -0.026804766    0.0013385235 
   6940000   139.53566      499.65545      639.19111      314.49165     -0.054759344    0.0013385235 
   6950000   115.90979      490.03832      605.94811      308.43846     -0.010662464    0.0013385235 
   6960000   134.56803      465.20154      599.76957      292.80577      0.15960416     0.0013385235 
   6970000   132.12554      460.1221       592.24765      289.60869      0.047391401    0.0013385235 
   6980000   110.38877      494.09931      604.48807      310.99452      0.030309961    0.0013385235 
   6990000   98.438776      456.07708      554.51585      287.06268      0.12781963     0.0013385235 
   7000000   110.17404      480.73839      590.91243      302.58493     -0.14395408     0.0013385235 
   7010000   120.41746      514.45462      634.87209      323.8065      -0.055706383    0.0013385235 
   7020000   81.617102      478.90945      560.52655      301.43376      0.033081931    0.0013385235 
   7030000   91.293055      492.37898      583.67203      309.91171     -0.029369864    0.0013385235 
   7040000   105.53275      481.78545      587.31819      303.24396      0.085409618    0.0013385235 
   7050000   97.373229      481.963        579.33623      303.35572      0.044867098    0.0013385235 
   7060000   75.27794       504.59713      579.87507      317.60203      0.079777394    0.0013385235 
   7070000   72.380956      473.3926       545.77355      297.96136     -0.032389383    0.0013385235 
   7080000   118.24073      461.55179      579.79252      290.50856      0.036142738    0.0013385235 
   7090000   77.743898      452.48995      530.23385      284.80488     -0.099240856    0.0013385235 
   7100000   63.433627      474.20694      537.64057      298.47392     -0.011681758    0.0013385235 
   7110000   84.826132      475.6005       560.42663      299.35105      0.059652064    0.0013385235 
   7120000   64.197991      485.0846       549.28259      305.32051      0.038618408    0.0013385235 
   7130000   68.918516      489.71837      558.63689      308.23708     -0.068029713    0.0013385235 
   7140000   101.81402      476.84328      578.65731      300.13328     -0.004126133    0.0013385235 
   7150000   46.972205      473.13462      520.10683      297.79899     -0.0090027577   0.0013385235 
   7160000   76.814956      490.43659      567.25154      308.68914      0.030737053    0.0013385235 
   7170000   74.120776      467.87214      541.99292      294.48669     -0.022106961    0.0013385235 
   7180000   61.394956      480.60923      542.00418      302.50363      0.032587432    0.0013385235 
   7190000   63.81379       494.81702      558.63081      311.44626      0.015445141    0.0013385235 
   7200000   56.229326      454.36683      510.59616      285.98622      0.042673162    0.0013385235 
   7210000   42.149642      459.74143      501.89107      289.36908     -0.036844103    0.0013385235 
   7220000   49.263585      475.04597      524.30956      299.00203      0.050269149    0.0013385235 
   7230000   63.820507      514.98421      578.80472      324.13983     -0.035979547    0.0013385235 
   7240000   57.528569      487.73665      545.26522      306.98975      0.011892153    0.0013385235 
   7250000   76.374867      482.14318      558.51805      303.46913     -0.02662815     0.0013385235 
   7260000   68.775315      490.66249      559.43781      308.83133      0.010098632    0.0013385235 
   7270000   64.641879      492.71806      557.35994      310.12514     -0.062507893    0.0013385235 
[...]
 103190000  -137.08114      475.67326      338.59212      299.39685      0.045358719    0.0013385235 
 103200000  -118.16062      478.75998      360.59936      301.33968      0.039219679    0.0013385235 
 103210000  -133.52566      435.47894      301.95328      274.09786      0.04065366     0.0013385235 
 103220000  -106.19428      464.47173      358.27745      292.34642      0.1118523      0.0013385235 
 103230000  -112.38028      490.41953      378.03924      308.6784       0.0054465974   0.0013385235 
 103240000  -83.956302      452.81382      368.85752      285.00873      0.07274552     0.0013385235 
 103250000  -121.9706       485.32542      363.35482      305.47208      0.017619385    0.0013385235 
 103260000  -93.902247      499.28269      405.38045      314.25703      0.0074272052   0.0013385235 
 103270000  -86.963427      464.69041      377.72698      292.48406     -0.095033321    0.0013385235 
 103280000  -101.69344      466.10423      364.41079      293.37394      0.089161512    0.0013385235 
 103290000  -133.43522      473.37443      339.93921      297.94993     -0.041578202    0.0013385235 
 103300000  -86.064755      463.36025      377.29549      291.64683     -0.044098836    0.0013385235 
 103310000  -75.628968      486.5976       410.96864      306.27282      0.045885925    0.0013385235 
 103320000  -86.430461      487.8351       401.40464      307.05172     -0.11659986     0.0013385235 
 103330000  -124.64503      492.64569      368.00066      310.07959      0.049355882    0.0013385235 
 103340000  -135.54893      480.4975       344.94857      302.43331     -0.14677776     0.0013385235 
 103350000  -104.21167      506.97063      402.75896      319.09595     -0.045325426    0.0013385235 
 103360000  -138.38844      481.52675      343.13831      303.08114     -0.084151383    0.0013385235 
 103370000  -101.17477      470.89585      369.72108      296.38987      0.11229144     0.0013385235 
 103380000  -110.56128      489.25092      378.68964      307.94286     -0.016375248    0.0013385235 
 103390000  -102.90956      462.00171      359.09215      290.79175     -0.0080082623   0.0013385235 
 103400000  -103.1083       476.48251      373.37421      299.90621     -0.018207908    0.0013385235 
 103410000  -94.462899      475.37188      380.90898      299.20715     -0.066239298    0.0013385235 
 103420000  -70.963641      485.5695       414.60586      305.62571     -0.0016983986   0.0013385235 
 103430000  -97.566816      444.10794      346.54113      279.5291       0.004731943    0.0013385235 
 103440000  -162.04387      457.65169      295.60782      288.05377      0.061670595    0.0013385235 
 103450000  -98.099915      494.30896      396.20905      311.12648      0.017863866    0.0013385235 
 103460000  -99.546754      487.39169      387.84494      306.77263      0.0010354179   0.0013385235 
 103470000  -105.96507      458.28613      352.32106      288.45309     -0.0092667497   0.0013385235 
 103480000  -116.82498      474.73823      357.91325      298.80833      0.014871606    0.0013385235 
 103490000  -105.28093      468.95625      363.67532      295.16905      0.0049907883   0.0013385235 
 103500000  -103.49737      478.41923      374.92186      301.12521      0.06897098     0.0013385235 
 103510000  -141.39939      490.36412      348.96472      308.64353      0.035177266    0.0013385235 
 103520000  -135.9973       455.93313      319.93584      286.97208     -0.0045935635   0.0013385235 
 103530000  -143.25929      474.03739      330.7781       298.36721      0.012846568    0.0013385235 
 103540000  -131.28019      483.28511      352.00492      304.18788      0.049885415    0.0013385235 
 103550000  -152.09203      469.30381      317.21177      295.38781      0.0062296381   0.0013385235 
 103560000  -102.27002      455.77969      353.50967      286.8755       0.10336611     0.0013385235 
 103570000  -119.31181      459.49944      340.18763      289.21678      0.0062472362   0.0013385235 
 103580000  -126.16095      483.4897       357.32875      304.31665      0.022603216    0.0013385235 
 103590000  -118.93486      489.59854      370.66368      308.16166      0.061396948    0.0013385235 
 103600000  -141.41223      506.10307      364.69085      318.54989     -0.013768106    0.0013385235 
 103610000  -98.835789      503.32068      404.48489      316.7986       0.11631939     0.0013385235 
 103620000  -102.02753      490.43775      388.41022      308.68987     -0.055914458    0.0013385235 
 103630000  -110.77542      467.86518      357.08976      294.48231     -0.027598848    0.0013385235 
 103640000  -127.06491      482.26242      355.19751      303.54418      0.05970549     0.0013385235 
 103650000  -104.57951      470.71073      366.13122      296.27335     -0.0027963359   0.0013385235 
 103660000  -103.12289      471.51127      368.38839      296.77723     -0.004850364    0.0013385235 
 103670000  -115.77082      471.72745      355.95663      296.91329     -0.10700102     0.0013385235 
 103680000  -142.62412      447.72311      305.09899      281.80455      0.0088474691   0.0013385235 
 103690000  -142.98484      454.51771      311.53288      286.08119     -0.036600608    0.0013385235 
 103700000  -91.158368      470.14724      378.98887      295.91868      0.064887543    0.0013385235 
 103710000  -114.49775      494.31964      379.82189      311.1332       0.076759202    0.0013385235 
 103720000  -107.32143      469.15983      361.8384       295.29719     -0.058879047    0.0013385235 
 103730000  -137.83887      456.27664      318.43777      287.18829      0.018992369    0.0013385235 
 103740000  -115.76871      466.42975      350.66103      293.57883      0.037541738    0.0013385235 
 103750000  -126.71333      487.09304      360.37971      306.58465     -0.015640229    0.0013385235 
 103760000  -85.337155      468.0261       382.68894      294.5836      -0.040653593    0.0013385235 
 103770000  -107.93938      442.10337      334.16399      278.26739     -0.094682892    0.0013385235 
 103780000  -112.06027      466.53516      354.47488      293.64517      0.070679177    0.0013385235 
 103790000  -125.10568      471.94744      346.84176      297.05176      0.070517504    0.0013385235 
 103800000  -137.48829      482.82213      345.33383      303.89647      0.054962693    0.0013385235 
 103810000  -135.35936      478.66922      343.30986      301.28256     -0.00285084     0.0013385235 
 103820000  -116.00185      453.22658      337.22473      285.26853     -0.0080016494   0.0013385235 
 103830000  -108.46334      440.68733      332.22399      277.37611      0.0055281041   0.0013385235 
 103840000  -102.65232      470.34613      367.69381      296.04387     -0.013723769    0.0013385235 
 103850000  -123.68686      474.12912      350.44226      298.42494      0.0068504502   0.0013385235 
 103860000  -122.51086      461.60064      339.08979      290.53931      0.040515889    0.0013385235 
 103870000  -107.43231      461.24317      353.81086      290.31431      0.002432699    0.0013385235 
 103880000  -98.85101       457.09602      358.24501      287.70402      0.02738862     0.0013385235 
 103890000  -74.02278       491.13834      417.11556      309.13083      0.055796787    0.0013385235 
 103900000  -74.649424      474.06614      399.41672      298.3853      -0.084411337    0.0013385235 
 103910000  -84.382805      482.36361      397.98081      303.60787     -0.060365254    0.0013385235 
 103920000  -110.03364      480.86402      370.83038      302.664        0.00074619786  0.0013385235 
 103930000  -102.33559      469.57825      367.24267      295.56055     -0.078958701    0.0013385235 
 103940000  -104.49255      494.93504      390.44249      311.52054     -0.062957859    0.0013385235 
 103950000  -100.80896      458.073        357.26405      288.31895     -0.032141704    0.0013385235 
 103960000  -112.57111      495.08185      382.51075      311.61295      0.052113789    0.0013385235 
 103970000  -101.81906      467.18543      365.36638      294.05447      0.026973547    0.0013385235 
 103980000  -100.57663      472.65949      372.08286      297.49993     -0.03843259     0.0013385235 
 103990000  -97.068035      471.29956      374.23152      296.64397     -0.010966044    0.0013385235 
 104000000  -91.995883      470.7411       378.74522      296.29247     -0.010443657    0.0013385235 
 104010000  -80.465564      455.21942      374.75385      286.52285      0.025306913    0.0013385235 
 104020000  -87.800025      478.32755      390.52752      301.0675       0.039306599    0.0013385235 
 104030000  -111.35829      487.91465      376.55636      307.10179      0.11513801     0.0013385235 
 104040000  -112.40718      485.67614      373.26896      305.69283      0.090200846    0.0013385235 
 104050000  -90.568834      500.73801      410.16918      315.17303      0.025362101    0.0013385235 
 104060000  -76.205794      439.33501      363.12921      276.52493     -0.024026964    0.0013385235 
 104070000  -99.192908      481.45541      382.2625       303.03623      0.052529745    0.0013385235 
 104080000  -97.550656      460.54128      362.99063      289.87253      0.015165741    0.0013385235 
 104090000  -74.296508      500.91128      426.61477      315.28209      0.036922751    0.0013385235 
 104100000  -74.973425      491.02537      416.05194      309.05973     -0.026929407    0.0013385235 
 104110000  -99.37854       498.47192      399.09338      313.74672      0.019823974    0.0013385235 
 104120000  -58.380232      470.76328      412.38305      296.30643     -0.076351638    0.0013385235 
 104130000  -74.279753      480.36231      406.08255      302.34822     -0.0033697773   0.0013385235 
 104140000  -62.205114      500.62096      438.41585      315.09936     -0.059643104    0.0013385235 
 104150000  -66.815868      465.36844      398.55258      292.91082     -0.059829662    0.0013385235 
 104160000  -74.316134      476.91237      402.59623      300.17676      0.0022451909   0.0013385235 
 104170000  -120.7605       505.10696      384.34646      317.92292      0.0075684569   0.0013385235 
 104180000  -80.454868      477.60012      397.14525      300.60965     -0.030498417    0.0013385235 
 104190000  -60.515184      465.79095      405.27577      293.17676     -0.042423304    0.0013385235 
 104200000  -76.428452      468.53609      392.10764      294.90459      0.00131986     0.0013385235 
 104210000  -112.76053      476.6467       363.88617      300.00955      0.039520283    0.0013385235 
 104220000  -77.717627      503.13872      425.4211       316.68408      0.066315691    0.0013385235 
 104230000  -90.819277      466.0677       375.24842      293.35095      0.0043278994   0.0013385235 
 104240000  -97.754098      477.03394      379.27984      300.25328      0.11732536     0.0013385235 
 104250000  -98.789407      519.55302      420.76362      327.01552     -0.075342264    0.0013385235 
 104260000  -107.10759      481.12002      374.01244      302.82514      0.074804248    0.0013385235 
 104270000  -74.133346      467.81366      393.68031      294.44988      0.02443013     0.0013385235 
 104280000  -101.73861      488.70492      386.96631      307.5992       0.027692761    0.0013385235 
 104290000  -97.32976       502.77176      405.442        316.45311      0.090322428    0.0013385235 
 104300000  -103.57233      497.36879      393.79646      313.05238      0.038352774    0.0013385235 
 104310000  -45.537654      492.9389       447.40124      310.26414     -0.064876615    0.0013385235 
 104320000  -65.0939        488.8688       423.7749       307.70235     -0.073251885    0.0013385235 
 104330000  -72.680171      457.43703      384.75685      287.91865     -0.029864437    0.0013385235 
 104340000  -64.208321      477.97254      413.76422      300.84406      0.032556981    0.0013385235 
 104350000  -112.66267      463.72267      351.06001      291.87495     -0.014784786    0.0013385235 
 104360000  -98.796305      478.78511      379.98881      301.3555       0.08705672     0.0013385235 
 104370000  -109.04282      476.02351      366.98068      299.6173      -0.059594702    0.0013385235 
 104380000  -129.35895      500.34767      370.98872      314.92734     -0.088913412    0.0013385235 
 104390000  -78.66379       492.20194      413.53815      309.80028      0.044442589    0.0013385235 
 104400000  -103.46868      485.68819      382.21952      305.70042     -0.064343169    0.0013385235 
 104410000  -86.527283      491.9087       405.38141      309.61571      0.025089395    0.0013385235 
 104420000  -126.24091      470.68885      344.44794      296.25958     -0.13209122     0.0013385235 
 104430000  -128.3984       475.01864      346.62024      298.98482     -0.035096371    0.0013385235 
 104440000  -82.452254      477.72505      395.27279      300.68828      0.063739502    0.0013385235 
 104450000  -112.99967      458.30569      345.30602      288.46541      0.063303296    0.0013385235 
 104460000  -78.028225      487.90387      409.87565      307.09501      0.068112955    0.0013385235 
 104470000  -106.82127      487.99507      381.1738       307.15241      0.047633116    0.0013385235 
 104480000  -58.977593      471.79082      412.81323      296.95318      0.076421999    0.0013385235 
 104490000  -99.216585      469.07716      369.86057      295.24515     -0.014329729    0.0013385235 
 104500000  -124.19801      454.52569      330.32767      286.08621     -0.021041675    0.0013385235 
 104510000  -121.34633      482.47295      361.12662      303.67669     -0.033629637    0.0013385235 
 104520000  -60.556817      487.65508      427.09827      306.93841      0.00057291727  0.0013385235 
 104530000  -103.03256      462.92795      359.89539      291.37473      0.045080284    0.0013385235 
 104540000  -128.87683      461.93471      333.05788      290.74957      0.04878858     0.0013385235 
 104550000  -92.409293      464.02817      371.61888      292.06724      0.05754857     0.0013385235 
 104560000  -123.04587      502.65371      379.60784      316.3788      -0.060599502    0.0013385235 
 104570000  -110.88215      486.74703      375.86488      306.36687      0.066246106    0.0013385235 
 104580000  -81.850752      500.46788      418.61713      315.00301      0.16000312     0.0013385235 
 104590000  -105.2801       493.57311      388.29301      310.66332     -0.04288252     0.0013385235 
 104600000  -98.167766      475.00703      376.83926      298.97751      0.10432157     0.0013385235 
 104610000  -102.465        509.91972      407.45472      320.95215     -0.031150236    0.0013385235 
 104620000  -88.514577      457.03297      368.51839      287.66433     -0.051955688    0.0013385235 
 104630000  -71.090824      473.53661      402.44578      298.05201     -0.00035745246  0.0013385235 
 104640000  -105.96136      451.24761      345.28625      284.02293      0.07769912     0.0013385235 
 104650000  -108.25037      440.58721      332.33684      277.31309      0.021905047    0.0013385235 
 104660000  -82.466313      462.68782      380.2215       291.22359     -0.076456225    0.0013385235 
 104670000  -106.6443       442.73017      336.08587      278.66191     -0.054170191    0.0013385235 
 104680000  -133.39716      480.41628      347.01913      302.38219      0.12660458     0.0013385235 
 104690000  -80.823754      496.17303      415.34928      312.29976      0.0037900843   0.0013385235 
 104700000  -100.26882      469.33706      369.06824      295.40874      0.014571685    0.0013385235 
 104710000  -99.089581      474.29816      375.20858      298.53134     -0.057590707    0.0013385235 
 104720000  -111.29142      521.41522      410.1238       328.18762      0.023303267    0.0013385235 
 104730000  -91.628834      503.30745      411.67861      316.79028      0.079602614    0.0013385235 
 104740000  -76.313658      501.00591      424.69226      315.34165     -0.059317829    0.0013385235 
 104750000  -98.581194      482.62904      384.04785      303.77494      0.015367995    0.0013385235 
 104760000  -96.749038      473.09552      376.34648      297.77438     -0.0038048204   0.0013385235 
 104770000  -117.83596      467.4422       349.60624      294.21608      0.0074254035   0.0013385235 
 104780000  -74.465175      477.11629      402.65111      300.30512      0.0070987945   0.0013385235 
 104790000  -98.769253      476.53814      377.76888      299.94122     -0.010474457    0.0013385235 
 104800000  -85.315398      484.66861      399.35322      305.05868      0.038526723    0.0013385235 
 104810000  -129.17441      461.20541      332.031        290.29054      0.031249376    0.0013385235 
 104820000  -87.910997      499.77095      411.85995      314.56435      0.025754084    0.0013385235 
 104830000  -117.89389      492.06319      374.1693       309.71295     -0.023044173    0.0013385235 
 104840000  -119.83642      480.56278      360.72637      302.4744      -0.03157306     0.0013385235 
 104850000  -73.485202      491.86002      418.37481      309.58507     -0.0440443      0.0013385235 
 104860000  -87.152755      485.30489      398.15213      305.45916     -0.036757854    0.0013385235 
 104870000  -127.3718       459.69047      332.31867      289.33701      0.0067835489   0.0013385235 
 104880000  -84.396057      504.37551      419.97945      317.46253      0.14210864     0.0013385235 
 104890000  -56.062654      475.0587       418.99604      299.01003     -0.056601168    0.0013385235 
 104900000  -62.610004      455.20374      392.59373      286.51298     -0.0079928802   0.0013385235 
 104910000  -109.63608      477.0396       367.40352      300.25685     -0.05778381     0.0013385235 
 104920000  -91.489259      500.80943      409.32017      315.21798      0.028253459    0.0013385235 
 104930000  -80.475978      492.75605      412.28007      310.14905      0.047876075    0.0013385235 
 104940000  -121.94955      477.68308      355.73353      300.66186      0.033014187    0.0013385235 
 104950000  -109.84134      463.55431      353.71297      291.76898     -0.061126581    0.0013385235 
 104960000  -94.986932      495.7235       400.73657      312.01681      0.050868811    0.0013385235 
 104970000  -98.928672      467.22902      368.30035      294.0819      -0.023345662    0.0013385235 
 104980000  -88.240678      491.87301      403.63233      309.59325     -0.0700904      0.0013385235 
 104990000  -81.231127      452.98443      371.75331      285.11612      0.035093121    0.0013385235 
 105000000  -110.40532      465.83559      355.43027      293.20485      0.1904598      0.0013385235 
Loop time of 5880.11 on 8 procs for 100000000 steps with 534 atoms

Performance: 14693.597 ns/day, 0.002 hours/ns, 17006.479 timesteps/s, 9.081 Matom-step/s
99.3% CPU use with 8 MPI tasks x 1 OpenMP threads

MPI task timing breakdown:
Section |  min time  |  avg time  |  max time  |%varavg| %total
---------------------------------------------------------------
Pair    | 1575.3     | 2148.4     | 2868.3     | 907.0 | 36.54
Bond    | 167.84     | 220.77     | 287.04     | 266.8 |  3.75
Neigh   | 8.9406     | 9.3104     | 9.7275     |  11.7 |  0.16
Comm    | 2498.8     | 3310.7     | 3954.7     | 822.0 | 56.30
Output  | 0.88901    | 1.1126     | 2.3996     |  46.2 |  0.02
Modify  | 113.11     | 139.94     | 175.87     | 180.5 |  2.38
Other   |            | 49.96      |            |       |  0.85

Nlocal:          66.75 ave         115 max          36 min
Histogram: 1 1 0 2 2 1 0 0 0 1
Nghost:         54.375 ave         101 max          19 min
Histogram: 1 1 1 2 0 0 1 1 0 1
Neighs:        318.125 ave         700 max         129 min
Histogram: 2 1 1 1 1 1 0 0 0 1

Total # of neighbors = 2545
Ave neighs/atom = 4.7659176
Ave special neighs/atom = 4.8539326
Neighbor list builds = 183086
Dangerous builds = 0
System init for write_data ...
Generated 0 of 6 mixed pair_coeff terms from geometric mixing rule
Total wall time: 1:41:12
