LAMMPS data file via write_data, version 29 Aug 2024, timestep = 105000000, units = real

529 atoms
4 atom types
478 bonds
1 bond types
427 angles
1 angle types

-300 300 xlo xhi
-300 300 ylo yhi
-300 300 zlo zhi

Masses

1 329.2
2 305.2
3 345.2
4 306.2

Bond Coeffs # harmonic

1 7.5 5.9

Angle Coeffs # harmonic

1 5 150

Atoms # full

307 29 3 0 -234.9218097084618 -3.568743854539441 -190.91658132795268 1 0 0
308 29 2 0 -240.02210519935798 -6.496862664928559 -190.29402897462205 1 0 0
309 29 4 0 -243.78895280332424 -8.447870836132681 -186.42685969600225 1 0 0
3 1 2 0 -114.71650615507401 -210.68140786126457 -10.717923605795358 0 0 0
304 29 2 0 -221.26240819802942 -0.4707272485651995 -184.51949783283348 1 0 0
306 29 3 0 -230.4863069964083 -0.5613816539797225 -189.03938022351878 1 0 0
310 30 2 0 -127.84497545224443 -241.89826239411437 -137.54055957549227 0 1 1
311 30 4 0 -122.92352332253499 -241.28349759175703 -134.11880032714978 0 1 1
157 14 3 0 -6.093547972825327 -251.68804300699824 -124.39277484927393 0 1 -1
158 14 2 0 -8.47224782359193 -253.02524926438642 -119.05483656862825 0 1 -1
312 30 2 0 -121.94523405661141 -241.91332451828376 -128.65376536538912 0 1 1
313 30 2 0 -116.89516488957219 -242.90552037774262 -125.85141748249403 0 1 1
314 30 2 0 -111.01754953498653 -242.56157179416596 -125.62979263954685 0 1 1
315 30 1 0 -107.44391751775221 -239.34320767914474 -122.70347872172943 0 1 1
316 30 3 0 -103.91856677168835 -234.63521140455336 -123.92501183578953 0 1 1
181 17 4 0 -86.4810945322037 -238.40018208047692 -126.9417717965634 0 1 0
180 17 2 0 -84.85740363782678 -235.00948049687796 -131.14156215674757 0 1 0
182 17 2 0 -91.06762873080477 -239.24218855966393 -123.29328059400675 0 1 0
156 14 3 0 -4.330876510751043 -246.9332108013006 -127.26517773299669 0 1 -1
189 17 4 0 -118.00398163753437 -229.00316508726945 -121.52533392965536 0 1 0
188 17 2 0 -113.90212389992098 -231.92017173199363 -119.0118967630616 0 1 0
317 30 3 0 -100.88025278291491 -229.69350996929836 -124.21121893419827 0 1 1
318 30 2 0 -97.52820477523001 -227.22846419538814 -128.25192747996743 0 1 1
319 30 4 0 -95.53956398126681 -221.81616477068297 -128.21016410308223 0 1 1
159 14 4 0 -12.794841312895487 -256.4317866407947 -117.23757875090483 0 1 -1
187 17 3 0 -113.29829514981506 -235.70011085962844 -114.50452977821045 0 1 0
186 17 3 0 -109.2843542776816 -239.4896589798647 -112.32249410657772 0 1 0
185 17 1 0 -103.68939014355568 -239.678653802203 -112.39592429819503 0 1 0
183 17 2 0 -93.48680074200452 -239.98402180895508 -117.98657361191792 0 1 0
184 17 2 0 -98.22890900909009 -239.42713466637562 -114.57578805609555 0 1 0
10 1 4 0 -101.15593671636361 -193.66299075523625 -37.737225311250846 0 0 0
6 1 1 0 -101.85570887234793 -206.45779435624254 -19.250650459365115 0 0 0
8 1 3 0 -104.00589418416628 -200.2949055350653 -28.625535143626976 0 0 0
7 1 3 0 -103.477369947481 -202.13190979691703 -23.102363731070827 0 0 0
9 1 2 0 -103.63640129034584 -196.33692280824158 -33.15299631356682 0 0 0
1 1 2 0 -123.91489891380694 -215.62465299651214 -6.525433076651958 0 0 0
2 1 4 0 -118.8012054591231 -212.69924932460114 -7.117941782792872 0 0 0
5 1 2 0 -105.49664936653711 -209.22238423495224 -15.348417422173188 0 0 0
4 1 2 0 -110.573100725454 -212.53776039008306 -14.57665341540849 0 0 0
303 29 2 0 -215.48426955498843 -1.1133817977034277 -182.95935842743881 1 0 0
419 40 4 0 -131.25021695259937 -252.75431307969146 33.75646600875327 0 1 0
359 34 4 0 -151.1468506934551 -280.7861699526895 36.37145298432696 0 0 0
358 34 2 0 -149.6451836661409 -275.654268338086 38.02885420577708 0 0 0
357 34 3 0 -146.59558477624176 -271.08457799537956 40.31636026561537 0 0 0
414 40 2 0 -137.4429938110974 -273.9596289559345 46.68592572865069 0 1 0
356 34 3 0 -147.61858592085295 -265.78324526420295 42.52029679470108 0 0 0
416 40 3 0 -135.44478651665585 -266.75648681340664 38.86835306865519 0 1 0
415 40 1 0 -134.70497990842486 -269.7023038871688 44.07705293272897 0 1 0
355 34 1 0 -145.04056572956762 -260.8993194844844 43.99085069621005 0 0 0
354 34 2 0 -141.33143063937544 -257.0747526622129 46.5470958246708 0 0 0
353 34 2 0 -136.0655457361522 -255.3117333519561 46.70596815522124 0 0 0
417 40 3 0 -136.2073779782085 -262.77470720898975 34.658434872782564 0 1 0
418 40 2 0 -135.24629957442377 -257.2890084902751 34.11663466333106 0 1 0
350 34 2 0 -123.63374940483807 -264.73868449799727 47.67414048669866 0 0 0
352 34 2 0 -130.47025159887448 -255.261691631116 45.34864244659724 0 0 0
351 34 4 0 -126.42050261392022 -259.57718276432337 47.001423255977116 0 0 0
262 25 2 0 -79.89242253852373 -188.01415361278396 285.997668692499 0 -1 -1
225 21 1 0 -0.5274806550885387 -240.59075487281237 35.861258547487246 0 0 0
410 40 2 0 -152.81755519146182 -276.06345661303607 61.972924067564165 0 1 0
413 40 2 0 -141.8452023476743 -275.5246371355019 50.786944941594065 0 1 0
412 40 2 0 -143.04125409561763 -273.9551785910147 56.73024734061294 0 1 0
411 40 4 0 -147.2718353400584 -274.2216113533549 60.431171946443975 0 1 0
379 36 4 0 -144.3378215654454 -98.31394388018828 105.07679598640402 1 0 0
378 36 2 0 -140.80413900957814 -93.70257253214616 105.40164583335927 1 0 0
377 36 3 0 -137.0723768373208 -90.09736527015026 107.09641184481762 1 0 0
376 36 3 0 -134.93383585681312 -87.7488955995012 111.46426872400333 1 0 0
374 36 2 0 -131.00808549351493 -77.11893086820078 114.48213984655318 1 0 0
375 36 1 0 -133.89350971033505 -82.34412489738708 113.57506601915446 1 0 0
373 36 2 0 -131.8616129437646 -71.57123056980174 116.42923503226154 1 0 0
372 36 2 0 -133.79726936972605 -69.17238200100716 121.30107507616272 1 0 0
371 36 4 0 -131.274052955107 -64.78591170270283 123.95570181743014 1 0 0
370 36 2 0 -133.04963771089257 -61.8534413667521 128.79182013308755 1 0 0
369 35 4 0 -146.65136804628187 -228.32769794139455 156.24406069127386 0 1 0
368 35 2 0 -145.70231796758182 -222.6696523960834 155.3946205789244 0 1 0
367 35 3 0 -147.39801622881996 -217.34217454905587 156.93562826214995 0 1 0
360 35 2 0 -168.9461529881196 -210.57734380594025 162.39697821796676 0 1 0
361 35 4 0 -165.53593412254062 -206.34089126056 164.7299796581394 0 1 0
362 35 2 0 -159.47379423931199 -206.42134082540542 164.64419912946013 0 1 0
366 35 3 0 -150.5827451742876 -216.4099648603115 161.42199141014433 0 1 0
365 35 1 0 -149.53599266871495 -211.26912373062 164.8114168825945 0 1 0
363 35 2 0 -155.0601623951084 -205.18994910876603 167.8183572909789 0 1 0
364 35 2 0 -149.82206839267275 -205.8125198516308 166.34667117729273 0 1 0
519 50 4 0 -7.97419437188718 -246.06364171389336 219.26718374957437 -1 0 0
518 50 2 0 -5.86117994399514 -245.0581813306164 225.12338070415169 -1 0 0
517 50 3 0 -4.368685314392226 -240.40947652455554 228.64225078408074 -1 0 0
516 50 3 0 -5.30346691671134 -239.21824502412443 234.5233030359014 -1 0 0
515 50 1 0 -6.606737800172413 -234.90215142381882 238.48718160910775 -1 0 0
514 50 2 0 -8.783113525782063 -229.93529761113973 240.10962525679562 -1 0 0
513 50 2 0 -9.888815760971752 -224.28595598380113 238.66871820072453 -1 0 0
512 50 2 0 -8.972249468550208 -218.8301117619061 236.40673976242994 -1 0 0
511 50 4 0 -7.652806848875889 -213.21880808527095 238.6037958423294 -1 0 0
510 50 2 0 -5.150564282264367 -207.66337769130328 238.1720517428091 -1 0 0
498 48 2 0 -122.5579969038103 -142.43714478122268 253.99775914075957 0 0 0
499 48 4 0 -123.40444786936023 -147.63232662952993 250.99691482210434 0 0 0
497 48 3 0 -119.4056273731879 -137.98288413681104 255.7439113667363 0 0 0
495 48 1 0 -108.49620725172362 -134.78848832525966 252.73878069849104 0 0 0
496 48 3 0 -114.30642852289367 -135.3378883656339 254.1520778534602 0 0 0
494 48 2 0 -103.02011392551353 -133.55329410039425 255.21622008015393 0 0 0
493 48 2 0 -98.5737669866944 -134.06713890570677 258.328827157305 0 0 0
492 48 2 0 -95.74497912202969 -130.69742242984273 262.7040416761019 0 0 0
264 25 2 0 -72.07776149411866 -181.81532336362417 280.32428006477573 0 -1 -1
265 25 1 0 -67.44979504852726 -178.143658335343 279.6546815762324 0 -1 -1
266 25 3 0 -62.43546743291271 -175.63374392913377 278.1073334040674 0 -1 -1
267 25 3 0 -59.10610785180599 -170.95787058403445 277.95257232085794 0 -1 -1
268 25 2 0 -53.81074665829484 -169.03249371120742 278.520234018203 0 -1 -1
269 25 4 0 -51.68496164332368 -163.6698256297733 276.98877019940386 0 -1 -1
491 48 4 0 -94.41169421594304 -124.81126992654609 262.7318094637402 0 0 0
490 48 2 0 -91.9330620762811 -120.47172650932764 265.0003278411143 0 0 0
261 25 4 0 -81.99474270874882 -192.56040806271966 288.8763187326998 0 -1 -1
260 25 2 0 -83.50882640764989 -193.7492911354215 294.80519458419343 0 -1 -1
263 25 2 0 -74.39935473444149 -186.135347806864 283.9490598675273 0 -1 -1
226 21 3 0 -0.2466955688727858 -244.28654000471144 31.296158023176723 0 0 0
175 16 1 0 -206.73371329327713 277.86268227301093 -288.8841413157273 1 0 1
174 16 2 0 -204.88626742840384 273.14591961827085 -286.2225205109095 1 0 1
176 16 3 0 -206.19924196283793 281.3189437170134 -293.5834716529949 1 0 1
170 16 2 0 -202.51176287982702 257.23858935695625 -273.07500357039225 1 0 1
171 16 4 0 -199.527147505984 262.5606343970257 -274.1048708759071 1 0 1
173 16 2 0 -203.50536605916153 269.0788975958668 -282.00817319950505 1 0 1
172 16 2 0 -199.46238582418437 266.45380305021666 -278.28075547494075 1 0 1
177 16 3 0 -206.03054951747606 286.9647608339698 -296.64859200018816 1 0 1
302 29 2 0 -210.44621798481572 0.28686940355065477 -179.55932891586107 1 0 0
301 29 4 0 -204.86701556550295 2.561121313053386 -179.24425113505814 1 0 0
300 29 2 0 -200.90370875719591 5.671364132371657 -182.1276087382615 1 0 0
458 44 2 0 -139.6765209465598 33.637757514188415 -183.22186751453938 -1 0 0
459 44 4 0 -135.38713433451832 30.323539938055475 -185.47150351710016 -1 0 0
452 44 2 0 -166.4823294123164 49.26289202227956 -173.85315370058805 -1 0 0
451 44 4 0 -171.85612877076957 50.75819185679059 -171.4054647897031 -1 0 0
453 44 2 0 -164.5082438832447 46.392353961744256 -178.6730780874127 -1 0 0
454 44 2 0 -159.13363446522217 44.672075943618445 -181.05849575325163 -1 0 0
455 44 1 0 -153.77438655989803 42.40924685918199 -179.9528675634005 -1 0 0
456 44 3 0 -149.9697194870488 39.44003804563726 -182.73809889882486 -1 0 0
457 44 3 0 -144.3558914048543 37.44227009675507 -184.28014691925597 -1 0 0
193 18 2 0 -101.62986877967987 182.35229105997985 -167.44207996640196 0 -1 0
190 18 2 0 -109.07186915638881 194.02843665523426 -176.15206437204893 0 -1 0
191 18 4 0 -105.51872529293315 190.4604727999171 -174.21112677564034 0 -1 0
192 18 2 0 -102.78387745164062 185.79351431583854 -172.0366846714016 0 -1 0
450 44 2 0 -175.042180925913 53.15088136762398 -167.16976404594914 -1 0 0
198 18 2 0 -92.064178296695 167.34607727723275 -152.5530691462904 0 -1 0
199 18 4 0 -90.24309344630511 162.0180079827403 -152.75494114253377 0 -1 0
194 18 2 0 -103.32153210956277 180.2957209766056 -162.0612613179858 0 -1 0
195 18 1 0 -104.3470904380004 175.98870276222496 -158.15262456998747 0 -1 0
196 18 3 0 -102.3283674762093 171.72808747243855 -154.60889329803678 0 -1 0
197 18 3 0 -97.05809206667205 170.36207507705112 -153.29832569226363 0 -1 0
527 51 3 0 -36.07003779803952 46.48833183847878 -73.37951625033834 1 0 0
528 51 2 0 -41.65636129673525 45.22040956208004 -74.48745782505677 1 0 0
529 51 4 0 -46.1347214165316 43.41860175097139 -77.46906073257684 1 0 0
526 51 3 0 -34.16378451239623 46.61048678496612 -68.08893621576946 1 0 0
523 51 2 0 -31.488226634316913 47.17359785908763 -51.35066580814452 1 0 0
525 51 1 0 -32.71760399156135 47.353877197872265 -62.24147363222171 1 0 0
524 51 2 0 -32.71383335531419 48.95826557361872 -56.50808536484016 1 0 0
521 51 4 0 -37.439160390146775 46.71675921524398 -41.8399988327299 1 0 0
522 51 2 0 -32.80418048346601 47.26157671398997 -45.498854145266876 1 0 0
520 51 2 0 -42.69287530610066 48.50498068843375 -40.782000582191024 1 0 0
305 29 1 0 -226.45860562058462 1.4107469063855367 -185.56008469645926 1 0 0
178 16 2 0 -204.1940195499772 291.60179675268677 -299.5728815350494 1 0 1
80 7 2 0 -190.84238445602782 58.34320416693026 55.24564355504296 0 0 0
81 7 4 0 -190.72562685119874 62.994807697267184 59.30617081985081 0 0 0
82 7 2 0 -194.92470383073658 67.02015240833094 61.289561787891124 0 0 0
84 7 2 0 -195.1168179472864 77.41147912856718 63.36361726668475 0 0 0
83 7 2 0 -194.56088768476687 72.57537856338772 60.84221582201004 0 0 0
341 33 4 0 -46.65463511353702 43.540682366414984 76.1404069982761 -1 0 1
342 33 2 0 -49.32761143535335 40.28637427645941 80.46645549230769 -1 0 1
438 42 2 0 -36.887862137049915 40.783436490289404 82.03390148923161 0 1 2
340 33 2 0 -46.47224265137928 47.69751487918162 71.98052330884373 -1 0 1
439 42 4 0 -34.129116219386646 37.081768520675396 78.66221121687501 0 1 2
89 7 4 0 -203.52297753973932 65.14773144483655 81.50637254976516 0 0 0
88 7 2 0 -202.2279689684934 69.64278230700387 78.16378714512663 0 0 0
87 7 3 0 -201.96618610138955 75.61087572872529 77.06568629237296 0 0 0
86 7 3 0 -198.55916591784884 78.00436627234524 73.3020422047856 0 0 0
85 7 1 0 -196.56100094484094 79.67175590330389 68.34433100522037 0 0 0
399 38 4 0 -83.30871283644615 152.35017938573105 80.15809287268266 1 -1 -1
343 33 2 0 -48.049243766204285 36.210233700223384 84.62485619327799 -1 0 1
344 33 2 0 -46.575049762999924 35.22285359889397 90.51714826010678 -1 0 1
437 42 3 0 -37.508656929500646 44.71677937768183 86.21784493693599 0 1 2
345 33 1 0 -47.09390579697117 39.22315239576858 94.64514984034662 -1 0 1
346 33 3 0 -45.877072233089095 44.11619920929173 97.6502633599294 -1 0 1
436 42 3 0 -41.61002464674915 48.11174827390677 88.0600260974026 0 1 2
432 42 2 0 -57.74935777725751 51.52369407122915 97.31786230821159 0 1 2
433 42 2 0 -54.75983434835899 53.977011864928734 93.08986942078661 0 1 2
434 42 2 0 -49.80327666373842 55.2924545107486 90.35543841285376 0 1 2
435 42 1 0 -44.745181779389014 52.47166672561173 89.82895580946526 0 1 2
349 33 4 0 -50.873977405371264 58.729020936746586 103.35269728963483 -1 0 1
398 38 2 0 -83.22863088364336 156.99399845262377 83.62421379327108 1 -1 -1
397 38 3 0 -81.09474501311847 159.84109668064585 87.72366944337307 1 -1 -1
396 38 3 0 -77.42594258459894 160.49129244999386 92.31470084357773 1 -1 -1
395 38 1 0 -71.62429086840174 161.4221639705619 93.87692607675497 1 -1 -1
394 38 2 0 -68.59266134648053 161.17682971451882 98.88353849747466 1 -1 -1
430 42 2 0 -55.83095260132774 50.50814706550433 108.73886976770929 0 1 2
347 33 3 0 -45.43267360635354 48.838094157319205 101.0465698194737 -1 0 1
431 42 4 0 -58.6535578015051 51.27956622678741 103.58041881034136 0 1 2
348 33 2 0 -47.34348966810647 54.49873851518611 101.40856901585737 -1 0 1
393 38 2 0 -65.42185020135928 164.7845696194439 102.54617794454363 1 -1 -1
392 38 2 0 -59.89424367966446 165.2339794390391 104.40129846782474 1 -1 -1
390 38 2 0 -51.46111352770235 172.977868047336 102.92091261201757 1 -1 -1
391 38 4 0 -56.160636534750104 169.93201389715912 105.06127082032665 1 -1 -1
145 13 1 0 -33.123685092044475 38.11859280353733 169.9637254722983 0 0 -1
146 13 3 0 -31.66126621308535 43.6778113562246 169.23236724385498 0 0 -1
147 13 3 0 -30.719107854213433 49.1542107036708 167.3224875638507 0 0 -1
148 13 2 0 -32.77116522252437 53.001313894509806 163.20597468433957 0 0 -1
149 13 4 0 -36.45680534643516 56.51060339656429 160.20171928245708 0 0 -1
140 13 2 0 -39.12510667364651 13.80590435094438 173.99277171718546 0 0 -1
144 13 2 0 -37.58795638435715 34.684954413000064 168.75755674850524 0 0 -1
141 13 4 0 -40.197740788982905 19.69749345473619 173.46214479742102 0 0 -1
142 13 2 0 -39.54010885517814 23.581997555105232 168.65448632435204 0 0 -1
143 13 2 0 -37.07877118727494 29.12067268005031 167.29060761427516 0 0 -1
426 41 3 0 -56.322416290769716 26.554658305359556 211.32835944259014 0 1 -1
427 41 3 0 -53.34848797019378 29.578764210173464 207.30121905425597 0 1 -1
428 41 2 0 -51.57870164402313 34.97122983222655 206.53038209275252 0 1 -1
429 41 4 0 -46.9698130948873 37.824562950229264 204.42331648071445 0 1 -1
202 19 2 0 -269.1354960568931 246.87855685883096 209.35562858284842 2 0 0
208 19 2 0 -289.13568604665437 262.0263834116099 215.694853453563 2 0 0
209 19 4 0 -292.8555277599352 257.50484026883066 214.7830062524123 2 0 0
207 19 3 0 -283.61303703673997 263.20604796056335 217.49466991779093 2 0 0
206 19 3 0 -277.76035188074707 262.3127547541154 217.79128407802477 2 0 0
201 19 4 0 -264.8974402698893 246.32598603100396 205.2864792495387 2 0 0
200 19 2 0 -261.18513143699425 249.91336701448807 203.2671799535623 2 0 0
421 41 4 0 -79.82208761603016 32.68840924078262 226.7908294674837 0 1 -1
422 41 2 0 -74.61320590858647 31.528683801801144 225.01383754555536 0 1 -1
423 41 2 0 -70.5168394954189 31.083820715771623 220.55554131561163 0 1 -1
425 41 1 0 -60.608086739688545 27.560155156092833 215.51498505813137 0 1 -1
424 41 2 0 -64.62950041681975 29.88837661071561 219.43580989734306 0 1 -1
420 41 2 0 -84.60136946874474 29.562945819715114 226.75771039643874 0 1 -1
203 19 2 0 -269.47054745699785 251.48737497907675 213.13513617097854 2 0 0
205 19 1 0 -274.83189487064726 257.2948541108508 219.49619295215146 2 0 0
204 19 2 0 -270.1564235429047 253.7025552526095 218.3074641024136 2 0 0
468 45 2 0 -78.2808638470506 34.293992564018495 249.69926261970554 0 0 -1
467 45 3 0 -73.21103355712648 36.83344367682445 247.90584248492533 0 0 -1
466 45 3 0 -71.28556511422472 41.907929777433665 246.8376593109802 0 0 -1
503 49 2 0 -144.98493393903556 134.2986834613185 235.8583125181507 0 -1 0
505 49 1 0 -143.40316301564604 126.87719204833341 243.28584865425643 0 -1 0
504 49 2 0 -146.9752562427459 129.41764098652817 239.05057643511267 0 -1 0
506 49 3 0 -139.90341377009008 129.24769602496565 247.17622318770935 0 -1 0
502 49 2 0 -139.86269695046082 137.6655340960105 235.73954647651777 0 -1 0
501 49 4 0 -136.33665842536388 140.49161557748215 239.44556013435474 0 -1 0
500 49 2 0 -135.84499679773495 144.4437368647626 243.93999828116253 0 -1 0
24 2 2 0 -68.28321536159496 32.5869604152419 256.5867024180165 0 0 -1
23 2 2 0 -72.42685750450963 32.261047541186606 261.10511692903384 0 0 -1
469 45 4 0 -83.53453647439743 36.01679417930826 251.773064313997 0 0 -1
465 45 1 0 -69.24862968508893 46.600459873174444 249.61921287574168 0 0 -1
464 45 2 0 -69.18153178866183 49.18603512701202 254.52501906685384 0 0 -1
20 2 3 0 -81.4531093714293 46.19816862923972 259.28884474129126 0 0 -1
22 2 3 0 -76.5947991813057 35.941037924633655 263.1935429177723 0 0 -1
21 2 1 0 -79.72289362107414 40.99885282291955 261.7107053455453 0 0 -1
462 45 2 0 -66.17836377662837 49.84341901636354 265.1579066815131 0 0 -1
25 2 4 0 -64.05028087434015 35.25265233147965 253.08289807870705 0 0 -1
26 2 3 0 -59.55541056743123 39.34449554296468 254.03962579031645 0 0 -1
27 2 3 0 -56.649114214660734 44.33595247907813 252.2721802894536 0 0 -1
28 2 3 0 -56.67348872245624 49.43064012528165 255.2837217481706 0 0 -1
19 2 4 0 -84.66607393242477 50.85603895146297 257.2026507579516 0 0 -1
18 2 2 0 -85.63189827106906 56.03619396298455 260.6356394749081 0 0 -1
463 45 2 0 -67.48503010288978 48.502222079357594 260.01880409975803 0 0 -1
17 2 4 0 -83.13398369267212 60.801755710722716 263.88857571561897 0 0 -1
16 2 1 0 -78.23055024375208 63.808590714122666 264.6665119596422 0 0 -1
31 2 2 0 -67.75408384392291 62.74918677710788 256.34609782265375 0 0 -1
29 2 1 0 -57.86949067578476 55.575653133032596 256.4237250372229 0 0 -1
30 2 3 0 -63.13280493919224 58.9371570472587 256.1056067476821 0 0 -1
32 2 4 0 -71.7173537882383 66.68069690853581 254.9833488434463 0 0 -1
33 2 2 0 -75.93413021803194 70.72130459584726 256.06665605562335 0 0 -1
34 2 4 0 -77.97382412391576 74.7024239592124 260.04757056276446 0 0 -1
35 2 2 0 -77.26153673307627 77.84804160591968 265.0417299181336 0 0 -1
507 49 3 0 -135.86769348888404 130.71532421244189 250.9289220919959 0 -1 0
508 49 2 0 -132.00878151629723 135.37949961756516 253.45945135414846 0 -1 0
509 49 4 0 -131.3255335040741 140.07964098607505 256.74853130459746 0 -1 0
15 2 3 0 -74.00968539130743 64.71613874833469 268.6494226348331 0 0 -1
461 45 4 0 -61.95776678833548 48.63722773306918 269.5641899546125 0 0 -1
460 45 2 0 -57.97500234855388 49.20815561123568 274.29031210901684 0 0 -1
36 2 4 0 -77.9284705808461 79.5010592956011 270.7037956906874 0 0 -1
14 2 1 0 -70.42339132328439 67.63214189922039 272.14512867154997 0 0 -1
38 2 2 0 -72.92313276353826 76.89552698053006 281.2830299962354 0 0 -1
37 2 3 0 -76.27755593346106 79.69197148541713 276.7430282947731 0 0 -1
13 2 2 0 -65.65781873844823 71.0215116196679 274.27502438785336 0 0 -1
12 2 3 0 -61.472073771088745 75.27409887099923 273.5245709785125 0 0 -1
11 2 3 0 -56.54939524530707 76.0859208990508 276.8499079290024 0 0 -1
39 2 2 0 -67.77928657318617 76.25600916450551 284.5090374502839 0 0 -1
179 16 4 0 -202.29180359910177 291.7508623015778 294.9559983891387 1 0 0
297 28 3 0 4.938118822782827 -86.1922730217468 -201.8701384699 0 0 0
298 28 2 0 8.51764831639273 -83.89929070107314 -206.29819936324304 0 0 0
299 28 4 0 9.066054603855703 -79.32274386020597 -210.1315788196732 0 0 0
63 5 2 0 188.57667427123943 -297.8798949168022 -186.77029442593178 -1 0 0
62 5 2 0 194.0325644821877 -298.8638552907165 -188.9811714344914 -1 0 0
106 9 3 0 198.11248925843174 -298.80419340324005 -21.41112520257501 0 -1 0
104 9 2 0 198.14264301191955 -290.80903320485305 -29.38826526433116 0 -1 0
293 28 2 0 2.6605068840581962 -103.11819294176797 -187.4583895666554 0 0 0
292 28 2 0 4.14672272600414 -103.65044318938662 -181.60245687550199 0 0 0
294 28 2 0 2.681045213258456 -99.84796631282535 -192.3269819807542 0 0 0
296 28 3 0 5.512132152332723 -90.21868525433443 -197.2494405320887 0 0 0
295 28 1 0 6.532519372276392 -95.61538147449741 -194.7459886955478 0 0 0
120 11 2 0 76.03486210209688 -90.29543951991398 -182.66817062770073 0 0 1
121 11 4 0 81.91494103473484 -91.04525020256963 -183.81198149287192 0 0 1
122 11 2 0 86.62395394426258 -93.90854518981209 -185.04526737423285 0 0 1
123 11 2 0 91.60922818148796 -92.78863132305206 -188.70776483130086 0 0 1
124 11 2 0 97.34511707708018 -90.70516872053034 -189.01201760854542 0 0 1
127 11 3 0 113.22872738965017 -85.97893359014756 -190.69212292888815 0 0 1
126 11 3 0 107.10027559973759 -86.56129730225315 -190.95974794334413 0 0 1
125 11 1 0 102.63097210247136 -88.52614576993992 -187.986217405638 0 0 1
128 11 2 0 118.43097741324443 -87.59083108991129 -188.32678999274492 0 0 1
129 11 4 0 122.54754840591836 -91.27533147175039 -186.538785457979 0 0 1
68 5 2 0 168.98897822504597 -296.0648202379908 -168.6336512616338 -1 0 0
105 9 1 0 198.63080463470493 -296.09368534329104 -26.27800232709771 0 -1 0
65 5 1 0 180.20381518414342 -299.38697361951694 -179.78839011641656 -1 0 0
67 5 3 0 171.41142261792695 -297.5815303927591 -174.03883209995456 -1 0 0
103 9 2 0 193.488624985726 -287.0880260658988 -29.85433688746969 0 -1 0
291 28 4 0 6.975594562820392 -101.09562968647752 -176.89328891106993 0 0 0
290 28 2 0 12.271628720623536 -100.53804158832338 -174.29517275570143 0 0 0
69 5 4 0 166.08718479504464 -296.4615231396948 -163.14344924861464 -1 0 0
151 14 4 0 16.965500791151054 -254.04307529219335 -136.14293106951254 0 1 -1
150 14 2 0 21.144737598557477 -251.41161282594197 -139.11444759586786 0 1 -1
409 39 4 0 99.61116929347622 -289.5157761768306 -117.58761270630565 0 1 0
154 14 2 0 7.182058352106254 -245.7073021727113 -126.8618531224034 0 1 -1
155 14 1 0 1.5243585268992013 -245.17330141068047 -126.57238932809075 0 1 -1
153 14 2 0 12.525320691860745 -246.77515059273486 -128.93018735977034 0 1 -1
152 14 2 0 14.556591758994843 -251.333556941589 -131.60796138706192 0 1 -1
233 22 2 0 264.6025885308904 -70.73803760475094 -123.68821783235535 0 -1 0
235 22 1 0 266.6597560958507 -81.06706258654924 -120.30497598352567 0 -1 0
234 22 2 0 264.8016723409126 -76.62381115140559 -123.7807530202151 0 -1 0
230 22 2 0 252.4240367452339 -61.992491045239596 -127.18584444794666 0 -1 0
231 22 4 0 257.5356604888789 -63.2475842715855 -124.45178481642732 0 -1 0
232 22 2 0 262.29118746079934 -65.6265131499474 -123.2291500281229 0 -1 0
405 39 1 0 83.12865461410048 -289.91169263663045 -105.0631374916231 0 1 0
404 39 2 0 77.64246038982496 -288.2695719436977 -105.93302467713558 0 1 0
403 39 2 0 71.95529649047717 -289.7410108691234 -103.64388985606914 0 1 0
402 39 2 0 69.28102660306048 -294.0704864298097 -100.84483397974171 0 1 0
406 39 3 0 87.9675356244669 -287.6770120618389 -106.57850907094608 0 1 0
407 39 3 0 92.7284354198323 -286.1544051039411 -109.39833509783534 0 1 0
408 39 2 0 97.41869430961833 -288.2017590880311 -112.3978586396756 0 1 0
238 22 2 0 264.85981318951633 -92.83653571585589 -108.79023556888843 0 -1 0
239 22 4 0 261.587136105195 -97.13513028343044 -105.72543377774402 0 -1 0
237 22 3 0 265.0382215548512 -89.89510547746953 -113.6879639288127 0 -1 0
236 22 3 0 264.47898555120724 -85.83454221692755 -117.79927180483281 0 -1 0
72 6 2 0 154.2814831742197 -172.90019254592983 -84.88479741675411 0 -1 1
70 6 2 0 156.09121965766144 -163.2849712693776 -91.13017820981896 0 -1 1
71 6 4 0 156.1979824117123 -168.93477561174757 -89.07150545893228 0 -1 1
73 6 2 0 149.4490159676445 -173.71254715215488 -81.28049265175784 0 -1 1
74 6 2 0 145.80407571558354 -172.62984286621912 -76.63095405701688 0 -1 1
75 6 1 0 143.55073174414423 -167.87148498141414 -74.31683132954683 0 -1 1
78 6 2 0 131.71032177616956 -157.85115521933642 -67.87049187039248 0 -1 1
76 6 3 0 141.98484938046658 -163.32498750532665 -70.75521584419873 0 -1 1
77 6 3 0 137.1635012435776 -160.0609788002093 -69.6156004701332 0 -1 1
79 6 4 0 128.58477103631924 -155.28855081484178 -63.23155571620506 0 -1 1
100 9 2 0 178.53484068549648 -280.8812542284379 -34.850399651720885 0 -1 0
101 9 4 0 183.87946124219 -282.40404544517077 -32.613509609732596 0 -1 0
102 9 2 0 188.66877940045768 -285.8050740415367 -32.48696283595595 0 -1 0
401 39 4 0 66.70129185691444 -299.61754071210254 -99.69755019610227 0 1 0
64 5 2 0 185.789460273799 -298.9200382503113 -181.62618516383 -1 0 0
56 4 3 0 212.26194530359726 -185.03572379257935 11.011474513119357 -1 0 0
55 4 1 0 215.73134877016105 -185.63337530348696 6.6153216892271915 -1 0 0
54 4 2 0 220.83126831118926 -186.72054656958014 4.494983363959311 -1 0 0
53 4 2 0 226.45095429135282 -187.83278598322224 5.567994736458452 -1 0 0
52 4 2 0 232.1435641433953 -185.7426605884999 5.663562489994209 -1 0 0
51 4 4 0 235.12195661428987 -180.9578948153067 5.16897259374492 -1 0 0
50 4 2 0 238.28942520799535 -177.05581334198453 7.010817837714134 -1 0 0
229 21 4 0 0.7036750877729202 -238.11095968741432 20.444698433449403 0 0 0
278 26 2 0 265.2694260413234 -188.78981665317545 256.2232031311651 -1 0 0
227 21 3 0 2.713364267826539 -245.39821290812523 26.470805962689408 0 0 0
228 21 2 0 3.99011646182286 -242.82833122093638 21.619356602528704 0 0 0
57 4 3 0 208.71095663429665 -182.48802995815845 14.87910175329952 -1 0 0
59 4 4 0 199.62673514832701 -182.7205687294053 22.263671304074578 -1 0 0
58 4 2 0 204.46770394339754 -181.55884719746453 19.250722907853717 -1 0 0
220 21 2 0 17.877568245023824 -226.6959217238111 44.90498417367047 0 0 0
221 21 4 0 12.22284222217122 -226.14271034591738 42.79703174692559 0 0 0
222 21 2 0 6.385126783215265 -226.70303575905504 43.11852245655484 0 0 0
276 26 3 0 263.7563721150069 -178.26609961257546 254.82750120549866 -1 0 0
330 32 2 0 19.994679230849265 -150.90364267831515 68.62631448011072 0 0 -1
331 32 4 0 22.261494051931702 -146.95468223991932 71.97771225395576 0 0 -1
332 32 2 0 26.304272207975412 -143.13188281076577 74.20305381603026 0 0 -1
333 32 2 0 30.937394835740125 -140.30923605308107 72.78351898465894 0 0 -1
334 32 2 0 36.62058994379744 -139.11630955767578 73.92315269141646 0 0 -1
335 32 1 0 40.093058405500074 -134.5458024041777 76.38643507956657 0 0 -1
336 32 3 0 43.666268365628966 -129.94472607174922 74.58041430970283 0 0 -1
337 32 3 0 44.32255091352368 -124.26433248166484 75.09860457128478 0 0 -1
338 32 2 0 43.68537452442935 -119.7170018472054 78.00874926731892 0 0 -1
339 32 4 0 41.776946034008574 -115.837221722123 81.96641292771353 0 0 -1
280 27 2 0 189.33862835251136 -6.258267697638891 133.01087230997723 1 -1 0
281 27 4 0 194.03853176896746 -2.646182554144241 132.95120927171396 1 -1 0
118 10 2 0 143.35750723685354 -151.46289591435246 185.72403590632703 0 -1 -1
117 10 3 0 141.5418326253072 -156.9264654769096 186.6620125061067 0 -1 -1
116 10 3 0 141.70868403883023 -162.79200860196985 186.6161359033513 0 -1 -1
115 10 1 0 141.9305700384657 -167.33402427592108 190.15430560247916 0 -1 -1
114 10 2 0 143.40945690719374 -168.47054357162955 195.67702043303998 0 -1 -1
113 10 2 0 149.0555865304471 -169.06583094256774 195.98716787281387 0 -1 -1
110 10 2 0 155.97044490699065 -160.08354381292583 184.5914831201162 0 -1 -1
111 10 4 0 156.02746712854312 -163.27168599605417 189.48801776968037 0 -1 -1
112 10 2 0 152.9863788443255 -166.74100893091318 192.551454606902 0 -1 -1
119 10 4 0 148.0008164906495 -148.45350177844725 184.21586955606824 0 -1 -1
138 12 2 0 73.60263171328437 -194.8718380491253 238.2196778075744 -1 1 -1
270 26 2 0 267.16736733681364 -152.88096313784533 234.45981885202923 -1 0 0
139 12 4 0 72.18351062506947 -200.29685875658942 239.68536725461593 -1 1 -1
137 12 3 0 72.67108051664847 -189.18887232058015 239.0126001052363 -1 1 -1
136 12 3 0 73.1983214705997 -183.5581764960921 240.51916156902251 -1 1 -1
130 12 2 0 97.70907310670248 -195.34311737223328 242.09075487397797 -1 1 -1
132 12 2 0 92.14296164732023 -186.1417217673199 244.63193950426484 -1 1 -1
131 12 4 0 94.64585263990837 -191.569022748817 245.27703649913423 -1 1 -1
135 12 1 0 77.43180293022897 -179.3245793118738 241.8557292486116 -1 1 -1
133 12 2 0 88.36982679656296 -181.77313063196402 244.58153656142912 -1 1 -1
134 12 2 0 83.00866835813251 -179.8073699112402 243.3904903392545 -1 1 -1
275 26 1 0 261.9585765167085 -175.42071963152867 249.86226956139532 -1 0 0
274 26 2 0 263.11970343957745 -173.58724996902197 244.34346980474822 -1 0 0
273 26 2 0 266.620027283175 -169.1160355443559 242.2055280608887 -1 0 0
272 26 2 0 266.9474684577146 -163.296317427958 239.84677935032988 -1 0 0
271 26 4 0 265.88890445357356 -158.48885463585088 236.2965210658335 -1 0 0