
# --- Force field -------------------------------------------------
bond_style  harmonic
bond_coeff  1 7.5 5.9

angle_style harmonic
angle_coeff 1 5.0 150.0

pair_style  hybrid/overlay lj/cut 10.0 base/rna 18.0
pair_modify shift yes

pair_coeff * * lj/cut 2.0 8.9089871814

pair_coeff 1 1 base/rna 0.00000 3.0 13.8 1.5 0.5 1.8326 0.9425 1.8326 1.1345
pair_coeff 1 2 base/rna 0.00000 3.0 13.8 1.5 0.5 1.8326 0.9425 1.8326 1.1345
pair_coeff 1 3 base/rna 0.00000 3.0 13.8 1.5 0.5 1.8326 0.9425 1.8326 1.1345
pair_coeff 1 4 base/rna 3.33333 3.0 13.8 1.5 0.5 1.8326 0.9425 1.8326 1.1345
pair_coeff 2 2 base/rna 0.00000 3.0 13.8 1.5 0.5 1.8326 0.9425 1.8326 1.1345
pair_coeff 2 3 base/rna 5.00000 3.0 13.8 1.5 0.5 1.8326 0.9425 1.8326 1.1345
pair_coeff 2 4 base/rna 0.00000 3.0 13.8 1.5 0.5 1.8326 0.9425 1.8326 1.1345
pair_coeff 3 3 base/rna 0.00000 3.0 13.8 1.5 0.5 1.8326 0.9425 1.8326 1.1345
pair_coeff 3 4 base/rna 3.33333 3.0 13.8 1.5 0.5 1.8326 0.9425 1.8326 1.1345
pair_coeff 4 4 base/rna 0.00000 3.0 13.8 1.5 0.5 1.8326 0.9425 1.8326 1.1345

# --- Minimization ------------------------------------------------
minimize 1.0e-4 1.0e-6 1000 10000

CITE-CITE-CITE-CITE-CITE-CITE-CITE-CITE-CITE-CITE-CITE-CITE-CITE

Your simulation uses code contributions which should be cited:

- Type Label Framework: https://doi.org/10.1021/acs.jpcb.3c08419

@Article{Gissinger24,
 author = {Jacob R. Gissinger, Ilia Nikiforov, Yaser Afshar, Brendon Waters, Moon-ki Choi, Daniel S. Karls, Alexander Stukowski, Wonpil Im, Hendrik Heinz, Axel Kohlmeyer, and Ellad B. Tadmor},
 title = {Type Label Framework for Bonded Force Fields in LAMMPS},
 journal = {J. Phys. Chem. B},
 year =    2024,
 volume =  128,
 number =  13,
 pages =   {3282–-3297}
}

CITE-CITE-CITE-CITE-CITE-CITE-CITE-CITE-CITE-CITE-CITE-CITE-CITE

Switching to 'neigh_modify every 1 delay 0 check yes' setting during minimization
Generated 0 of 6 mixed pair_coeff terms from geometric mixing rule
Neighbor list info ...
  update: every = 1 steps, delay = 0 steps, check = yes
  max neighbors/atom: 2000, page size: 100000
  master list distance cutoff = 33
  ghost atom cutoff = 33
  binsize = 16.5, bins = 37 37 37
  2 neighbor lists, perpetual/occasional/extra = 2 0 0
  (1) pair lj/cut, perpetual, trim from (2)
      attributes: half, newton on, cut 25
      pair build: trim
      stencil: none
      bin: none
  (2) pair base/rna, perpetual
      attributes: half, newton on
      pair build: half/bin/newton
      stencil: half/bin/3d
      bin: standard
Per MPI rank memory allocation (min/avg/max) = 8.452 | 8.486 | 8.721 Mbytes
   Step          Temp          E_pair         E_mol          TotEng         Press     
         0   0              193.1527       610.69435      803.84704      0.36919732   
        86   0             -36.346338      540.43467      504.08833      0.0011939847 
Loop time of 0.0131848 on 8 procs for 86 steps with 529 atoms

89.0% CPU use with 8 MPI tasks x 1 OpenMP threads

Minimization stats:
  Stopping criterion = energy tolerance
  Energy initial, next-to-last, final = 
      803.847044483014   504.130386839698   504.088328192619
  Force two-norm initial, final = 478.1226 0.86516682
  Force max component initial, final = 343.43624 0.27387596
  Final line search alpha, max atom move = 0.19143218 0.052428673
  Iterations, force evaluations = 86 118

MPI task timing breakdown:
Section |  min time  |  avg time  |  max time  |%varavg| %total
---------------------------------------------------------------
Pair    | 0.0030001  | 0.0036243  | 0.0041669  |   0.6 | 27.49
Bond    | 0.0001097  | 0.00031015 | 0.00052458 |   0.0 |  2.35
Neigh   | 0          | 0          | 0          |   0.0 |  0.00
Comm    | 0.0059565  | 0.0065939  | 0.0074145  |   0.5 | 50.01
Output  | 0          | 0          | 0          |   0.0 |  0.00
Modify  | 0          | 0          | 0          |   0.0 |  0.00
Other   |            | 0.002657   |            |       | 20.15

Nlocal:         66.125 ave         114 max          22 min
Histogram: 1 0 0 2 2 1 1 0 0 1
Nghost:          72.25 ave         100 max          53 min
Histogram: 2 2 0 0 1 0 0 2 0 1
Neighs:          115.5 ave         152 max          63 min
Histogram: 1 0 1 0 1 1 1 0 1 2

Total # of neighbors = 924
Ave neighs/atom = 1.7466919
Ave special neighs/atom = 4.8431002
Neighbor list builds = 0
Dangerous builds = 0
reset_timestep 0

# --- Output setup ------------------------------------------------
dump d1 all custom 50000 outputs/${tag}.lammpstrj id mol type q xu yu zu
dump d1 all custom 50000 outputs/1ANR_aso_n50.lammpstrj id mol type q xu yu zu
dump_modify d1 sort id

thermo_style custom step pe ke etotal temp press density
thermo       10000
thermo_modify flush yes

variable vpe equal pe
variable vke equal ke
variable vT  equal temp
variable vE  equal etotal
variable vRg equal gyration(all)

fix favg all ave/time 10000 10 100000 v_vpe v_vke v_vT v_vE v_vRg     file outputs/thermo_${tag}_averaged.dat
fix favg all ave/time 10000 10 100000 v_vpe v_vke v_vT v_vE v_vRg     file outputs/thermo_1ANR_aso_n50_averaged.dat

# --- NVT equilibration (50 ns) -----------------------------------
velocity all create ${T_target} 49727 rot yes dist gaussian
velocity all create 300 49727 rot yes dist gaussian

fix fxlang all langevin ${T_target} ${T_target} 1000.0 43243
fix fxlang all langevin 300 ${T_target} 1000.0 43243
fix fxlang all langevin 300 300 1000.0 43243
fix fxnve  all nve
fix recenter all momentum 1000 linear 1 1 1

run 5000000
Generated 0 of 6 mixed pair_coeff terms from geometric mixing rule
Per MPI rank memory allocation (min/avg/max) = 7.343 | 7.377 | 7.611 Mbytes
   Step         PotEng         KinEng         TotEng          Temp          Press         Density    
         0   504.08833      472.16031      976.24864      300            0.1011177      0.001285786  
     10000   262.30218      463.53244      725.83461      294.51804     -0.0040135526   0.001285786  
     20000   243.16942      494.43153      737.60094      314.15063      0.040742438    0.001285786  
     30000   251.85248      492.02544      743.87791      312.62185     -0.0064471742   0.001285786  
     40000   255.70535      493.89115      749.59649      313.80728      0.053528697    0.001285786  
     50000   233.19206      492.72166      725.91372      313.06422     -0.01800023     0.001285786  
     60000   252.98311      470.13985      723.12296      298.71624      0.009833197    0.001285786  
     70000   225.49232      473.48441      698.97672      300.8413      -0.026044256    0.001285786  
     80000   264.8587       462.64968      727.50838      293.95716      0.051828981    0.001285786  
     90000   216.1127       484.72123      700.83393      307.98092     -0.00097176664  0.001285786  
    100000   217.22839      456.42988      673.65827      290.00524      0.021552966    0.001285786  
    110000   249.21432      513.1669       762.38123      326.05466      0.01867378     0.001285786  
    120000   259.10666      479.75396      738.86062      304.82483      0.045360593    0.001285786  
    130000   239.15119      473.88389      713.03509      301.09513      0.012054223    0.001285786  
    140000   261.06043      462.31046      723.37089      293.74163     -0.048664877    0.001285786  
    150000   230.37311      442.28693      672.66005      281.01913      0.011239484    0.001285786  
    160000   266.3548       476.93142      743.28623      303.03146      0.041306688    0.001285786  
    170000   240.73427      469.82951      710.56378      298.51906      0.024003888    0.001285786  
    180000   242.10669      492.93431      735.04101      313.19933     -0.022067448    0.001285786  
    190000   239.12081      461.30498      700.42579      293.10277     -0.093336631    0.001285786  
    200000   245.96759      473.93609      719.90368      301.12829      0.031435585    0.001285786  
    210000   246.68981      429.47235      676.16216      272.87703      0.027421278    0.001285786  
    220000   230.74163      483.20616      713.94779      307.01828      0.087883828    0.001285786  
    230000   236.54212      497.81305      734.35517      316.29917      0.033714769    0.001285786  
    240000   229.40948      480.61657      710.02605      305.37292      0.016099726    0.001285786  
    250000   243.22325      467.38802      710.61126      296.96779      0.043751657    0.001285786  
    260000   248.01347      498.91969      746.93316      317.0023      -0.018102104    0.001285786  
    270000   251.96547      485.70461      737.67009      308.60574      0.043518743    0.001285786  
    280000   262.00432      459.16473      721.16905      291.7429       0.060669561    0.001285786  
    290000   250.25382      467.6602       717.91402      297.14073      0.0048728744   0.001285786  
    300000   254.8864       482.15224      737.03864      306.34865      0.10871712     0.001285786  
    310000   234.33382      443.0896       677.42342      281.52912      0.035887108    0.001285786  
    320000   238.8368       479.25814      718.09494      304.5098      -0.042742501    0.001285786  
    330000   252.1828       503.18432      755.36712      319.71196      0.0075939483   0.001285786  
    340000   234.07413      472.56056      706.6347       300.25431     -0.026322688    0.001285786  
    350000   227.91904      486.60297      714.52201      309.17654      0.0051977177   0.001285786  
    360000   256.80763      466.90677      723.7144       296.66202      0.0028584745   0.001285786  
    370000   258.65111      480.77735      739.42845      305.47507      0.047258755    0.001285786  
    380000   256.20355      457.90232      714.10587      290.94079      0.030376682    0.001285786  
    390000   262.87232      480.35982      743.23213      305.20978     -0.05466104     0.001285786  
    400000   255.46359      471.1306       726.59419      299.34575     -0.11252464     0.001285786  
    410000   265.92841      476.09699      742.0254       302.50128      0.015618823    0.001285786  
    420000   258.1185       467.23611      725.35461      296.87127     -0.072586136    0.001285786  
    430000   268.37886      474.22771      742.60656      301.31358      0.031646888    0.001285786  
    440000   296.89993      475.26187      772.16181      301.97066      0.0416483      0.001285786  
    450000   260.54408      466.68523      727.2293       296.52125     -0.033945473    0.001285786  
    460000   252.42225      473.91232      726.33457      301.11318     -0.0069028687   0.001285786  
    470000   247.50434      465.93414      713.43848      296.04403      0.027670783    0.001285786  
    480000   233.3384       452.1145       685.4529       287.26334     -0.045372806    0.001285786  
    490000   253.98465      457.3616       711.34625      290.59723      0.020791397    0.001285786  
    500000   262.9083       502.7327       765.641        319.42501      0.0209732      0.001285786  
    510000   245.74265      485.34231      731.08496      308.37554     -0.010859599    0.001285786  
    520000   249.99732      482.96316      732.96048      306.86389     -0.012483223    0.001285786  
    530000   237.60207      488.80535      726.40742      310.57588     -0.028166716    0.001285786  
    540000   253.42882      501.84468      755.27349      318.86078      0.011190383    0.001285786  
    550000   254.18764      442.12957      696.3172       280.91914     -0.029827795    0.001285786  
    560000   229.63089      495.13564      724.76653      314.598       -0.03131075     0.001285786  
    570000   213.87533      490.55662      704.43195      311.6886      -0.014290711    0.001285786  
    580000   217.75258      477.85429      695.60687      303.61782      0.0059332195   0.001285786  
    590000   238.37402      477.35725      715.73128      303.30202      0.022770018    0.001285786  
    600000   262.16157      469.91122      732.07279      298.57098      0.011915365    0.001285786  
    610000   250.51829      482.44296      732.96124      306.53336     -0.011655806    0.001285786  
    620000   230.77313      459.31879      690.09192      291.84079     -0.061286539    0.001285786  
    630000   214.45914      475.65577      690.11491      302.22094      0.065841824    0.001285786  
    640000   238.13271      474.49554      712.62825      301.48375     -0.0027608628   0.001285786  
    650000   195.9769       446.88554      642.86244      283.94098      0.022351444    0.001285786  
    660000   216.21719      476.64128      692.85846      302.8471       0.07091568     0.001285786  
    670000   227.14222      477.09954      704.24176      303.13827     -0.016766513    0.001285786  
    680000   215.14502      478.98346      694.12848      304.33528      0.0099074137   0.001285786  
    690000   223.22126      467.47663      690.69789      297.02409      0.054994629    0.001285786  
    700000   233.10689      488.46244      721.56933      310.358       -0.010857512    0.001285786  
    710000   197.41649      466.06564      663.48213      296.12758      0.056321712    0.001285786  
    720000   199.35239      497.41768      696.77007      316.04796      0.0033518218   0.001285786  
    730000   208.10386      460.02086      668.12472      292.28687      0.090808584    0.001285786  
    740000   217.70937      487.2375       704.94687      309.5797      -0.0038779253   0.001285786  
    750000   239.4542       482.56913      722.02333      306.61353     -0.0036342254   0.001285786  
    760000   236.08475      466.60574      702.69048      296.47075      0.070204607    0.001285786  
    770000   256.52169      492.29078      748.81248      312.79045     -0.006000032    0.001285786  
    780000   243.13904      472.24503      715.38407      300.05383     -0.0044244954   0.001285786  
    790000   226.15416      480.51815      706.6723       305.31038      0.069732684    0.001285786  
    800000   211.56487      475.75412      687.31899      302.28342     -0.02837646     0.001285786  
    810000   234.12466      473.74221      707.86686      301.0051      -0.053704248    0.001285786  
    820000   206.39283      449.3138       655.70663      285.48384     -0.02805137     0.001285786  
    830000   204.20516      480.97905      685.18421      305.60323     -0.017941592    0.001285786  
    840000   202.92303      470.4196       673.34263      298.89399     -0.019348628    0.001285786  
    850000   225.01947      447.23456      672.25403      284.16274      0.037659139    0.001285786  
    860000   216.86831      472.05932      688.92763      299.93583     -0.011519485    0.001285786  
    870000   243.63123      453.01737      696.64861      287.83701     -0.035880288    0.001285786  
    880000   221.7761       469.95562      691.73172      298.59919     -0.028736186    0.001285786  
    890000   222.55975      468.46592      691.02567      297.65267      0.041654797    0.001285786  
    900000   193.15738      441.04468      634.20206      280.22983      0.010952298    0.001285786  
    910000   186.48604      462.94093      649.42697      294.14221     -0.007277243    0.001285786  
    920000   204.95084      443.37545      648.32629      281.71075      0.14807999     0.001285786  
    930000   216.0359       464.76116      680.79706      295.29874     -0.072175136    0.001285786  
    940000   199.28168      443.72935      643.01102      281.93561     -0.070598653    0.001285786  
    950000   230.42739      471.71572      702.14312      299.71752     -0.024842743    0.001285786  
    960000   209.16112      476.15176      685.31287      302.53607     -0.032611477    0.001285786  
    970000   209.38885      470.08574      679.47459      298.68187      0.017845357    0.001285786  
    980000   201.60753      508.60291      710.21044      323.1548       0.015946394    0.001285786  
    990000   191.63487      438.59974      630.23461      278.67637     -0.031984642    0.001285786  
   1000000   223.24468      446.64261      669.88729      283.78663      0.013486053    0.001285786  
   1010000   204.83443      465.13182      669.96625      295.53426     -0.076256766    0.001285786  
   1020000   195.98772      463.87049      659.85821      294.73284      0.068937137    0.001285786  
   1030000   192.13936      486.89522      679.03458      309.36223      0.086718541    0.001285786  
   1040000   210.87369      455.39473      666.26842      289.34753     -0.049709671    0.001285786  
   1050000   211.02353      478.8541       689.87764      304.25308      0.0071720164   0.001285786  
   1060000   180.12811      482.81891      662.94702      306.77223      0.044468505    0.001285786  
   1070000   194.98273      473.95883      668.94156      301.14274      0.06788928     0.001285786  
   1080000   187.24139      484.17768      671.41907      307.63556      0.011423409    0.001285786  
   1090000   180.80774      470.26405      651.07179      298.79516     -0.0071241886   0.001285786  
   1100000   184.33831      477.57949      661.9178       303.44322      0.128138       0.001285786  
   1110000   201.18793      457.42037      658.60831      290.63458     -0.044527734    0.001285786  
   1120000   265.89433      498.22143      764.11576      316.55865      0.043260897    0.001285786  
   1130000   195.04544      434.92608      629.97152      276.34221      0.005771493    0.001285786  
   1140000   204.49314      459.35908      663.85222      291.86639      0.035161965    0.001285786  
   1150000   217.42353      452.78549      670.20902      287.68967      0.013598751    0.001285786  
   1160000   172.93308      460.65986      633.59294      292.69287      0.017445057    0.001285786  
   1170000   182.44127      498.11882      680.56008      316.49345      0.01989145     0.001285786  
   1180000   202.53638      492.51936      695.05574      312.93568      0.03905138     0.001285786  
   1190000   168.75344      488.51218      657.26562      310.38961     -0.021174623    0.001285786  
   1200000   165.38753      462.97914      628.36667      294.16649     -0.043873707    0.001285786  
   1210000   201.43886      473.48272      674.92158      300.84023     -0.010600791    0.001285786  
   1220000   194.8171       461.02989      655.84699      292.92798      0.077007614    0.001285786  
   1230000   222.76952      483.23801      706.00753      307.03852      0.028725729    0.001285786  
   1240000   190.76084      488.2899       679.05074      310.24838      0.00087064436  0.001285786  
   1250000   165.6853       447.35471      613.04002      284.23908     -0.053878001    0.001285786  
   1260000   196.6841       463.36202      660.04612      294.40976     -0.0050438156   0.001285786  
   1270000   176.59884      466.47172      643.07057      296.3856      -0.0087176545   0.001285786  
   1280000   169.20526      460.66896      629.87422      292.69866     -0.044331061    0.001285786  
   1290000   158.04098      506.88694      664.92793      322.06452     -0.0045534789   0.001285786  
   1300000   189.14277      467.00202      656.14479      296.72254     -0.013478915    0.001285786  
   1310000   183.59916      492.37954      675.9787       312.84684      0.015131937    0.001285786  
   1320000   171.81357      474.22589      646.03947      301.31242      0.0093423649   0.001285786  
   1330000   167.72879      485.48884      653.21762      308.46864      0.0056870008   0.001285786  
   1340000   190.38248      482.60755      672.99003      306.63794      0.034848272    0.001285786  
   1350000   173.0089       467.99526      641.00416      297.35362      0.03550273     0.001285786  
   1360000   185.33535      466.09179      651.42713      296.1442       0.051269577    0.001285786  
   1370000   160.87539      495.79921      656.6746       315.01962     -0.01291953     0.001285786  
   1380000   163.786        484.31514      648.10113      307.7229      -0.0062098264   0.001285786  
   1390000   181.19728      466.57223      647.76951      296.44946     -0.033349854    0.001285786  
   1400000   176.09559      467.38563      643.48122      296.96628     -0.075577333    0.001285786  
   1410000   160.79969      481.38463      642.18433      305.86093     -0.071466322    0.001285786  
   1420000   177.72822      466.8683       644.59652      296.63758      0.10391075     0.001285786  
   1430000   177.60544      479.98763      657.59308      304.9733       0.026026957    0.001285786  
   1440000   146.29445      464.85815      611.1526       295.36037      0.061276827    0.001285786  
   1450000   145.40289      453.68678      599.08967      288.26233     -0.0075648213   0.001285786  
   1460000   164.83557      467.0198       631.85537      296.73383      0.039152093    0.001285786  
   1470000   179.12461      474.945        654.06961      301.76933      0.014591943    0.001285786  
   1480000   178.79464      478.13459      656.92923      303.79592      0.014514695    0.001285786  
   1490000   175.3933       448.44795      623.84125      284.9337       0.00068284665  0.001285786  
   1500000   181.95453      467.6645       649.61902      297.14346      0.080829642    0.001285786  
   1510000   176.545        490.66918      667.21418      311.76012     -0.010010388    0.001285786  
   1520000   156.58761      443.16438      599.752        281.57664     -0.028354645    0.001285786  
   1530000   178.85996      477.98537      656.84533      303.70111      0.12610172     0.001285786  
   1540000   201.53716      498.085        699.62216      316.47196      0.02000536     0.001285786  
   1550000   196.01103      456.17914      652.19017      289.84592      0.037271269    0.001285786  
   1560000   194.65004      465.11206      659.7621       295.5217      -0.0050812923   0.001285786  
   1570000   194.01604      443.43755      637.45359      281.75021     -0.010990426    0.001285786  
   1580000   192.05339      499.25972      691.31312      317.21835      0.01074706     0.001285786  
   1590000   185.05675      444.86229      629.91904      282.65545      0.014922442    0.001285786  
   1600000   182.31056      472.17997      654.49053      300.01249      0.070045507    0.001285786  
   1610000   165.77661      497.01957      662.79618      315.79501     -0.0070264877   0.001285786  
   1620000   213.42216      476.34291      689.76507      302.65753      0.026421057    0.001285786  
   1630000   201.51436      460.4486       661.96296      292.55864     -0.020151944    0.001285786  
   1640000   211.05315      481.28864      692.3418       305.79994     -0.0039734963   0.001285786  
   1650000   166.21228      456.81066      623.02294      290.24718     -0.031978177    0.001285786  
   1660000   188.45477      473.45484      661.90961      300.82251      0.012897729    0.001285786  
   1670000   183.65565      450.73527      634.39092      286.38701     -0.0030082939   0.001285786  
   1680000   196.99006      447.01604      644.0061       284.0239      -0.032244829    0.001285786  
   1690000   225.34935      492.4866       717.83595      312.91486      0.037079861    0.001285786  
   1700000   165.69541      484.08465      649.78006      307.57645     -9.269536e-05   0.001285786  
   1710000   206.98764      475.06899      682.05663      301.84811     -0.033543119    0.001285786  
   1720000   215.5062       470.53058      686.03678      298.9645      -0.027605243    0.001285786  
   1730000   203.13217      504.46582      707.59799      320.52619     -0.023791061    0.001285786  
   1740000   187.06267      482.15492      669.21759      306.35035      0.071620184    0.001285786  
   1750000   150.90535      470.21775      621.1231       298.76574      0.06191298     0.001285786  
   1760000   184.32182      452.74478      637.06659      287.66381      0.02718377     0.001285786  
   1770000   152.84911      494.14706      646.99616      313.96988      0.089655319    0.001285786  
   1780000   166.02829      447.42019      613.44848      284.28069      0.10614924     0.001285786  
   1790000   155.3166       479.18205      634.49864      304.46145     -0.040260748    0.001285786  
   1800000   167.70814      437.12516      604.83331      277.73946     -0.037154427    0.001285786  
   1810000   162.74978      451.27132      614.02111      286.72761      0.035427866    0.001285786  
   1820000   204.89471      491.46247      696.35718      312.26415      0.042441052    0.001285786  
   1830000   179.53775      470.88171      650.41946      299.1876      -0.057320306    0.001285786  
   1840000   187.78017      460.60539      648.38556      292.65826      0.029521679    0.001285786  
   1850000   200.39994      453.87729      654.27723      288.38338     -0.033245333    0.001285786  
   1860000   198.58549      470.88923      669.47473      299.19238      0.028510823    0.001285786  
   1870000   194.46346      459.24094      653.7044       291.79132     -0.031943589    0.001285786  
   1880000   185.80531      477.88358      663.68889      303.63643      0.016871448    0.001285786  
   1890000   212.00426      456.15416      668.15842      289.83005     -0.047325665    0.001285786  
   1900000   196.02261      474.61156      670.63417      301.55747     -0.0034255488   0.001285786  
   1910000   191.43873      455.94804      647.38677      289.69909     -0.080344393    0.001285786  
   1920000   186.94365      486.21716      673.16081      308.9314       0.079556146    0.001285786  
   1930000   181.80882      478.42175      660.23057      303.97838     -0.0016768988   0.001285786  
   1940000   195.85673      496.28153      692.13826      315.32608     -0.019066713    0.001285786  
   1950000   199.58084      443.15723      642.73807      281.5721      -0.030907082    0.001285786  
   1960000   177.6847       463.45502      641.13972      294.46886      0.031027888    0.001285786  
   1970000   200.91116      479.73083      680.64198      304.81013      0.046041601    0.001285786  
   1980000   204.22176      482.43097      686.65273      306.52574      0.034825522    0.001285786  
   1990000   213.08122      456.12203      669.20325      289.80964      0.061513116    0.001285786  
   2000000   194.56956      451.98578      646.55534      287.18156      0.034360395    0.001285786  
   2010000   213.38212      481.29296      694.67509      305.80268     -0.082915842    0.001285786  
   2020000   197.41057      428.46182      625.87239      272.23497     -0.10710645     0.001285786  
   2030000   201.18397      497.74808      698.93205      316.25789      0.04465126     0.001285786  
   2040000   200.18835      451.60371      651.79206      286.9388      -0.0085460327   0.001285786  
   2050000   175.90723      455.23025      631.13748      289.24302      0.035388321    0.001285786  
   2060000   224.83388      466.05817      690.89205      296.12284      0.026540116    0.001285786  
   2070000   219.82308      456.80321      676.62629      290.24245      0.055043736    0.001285786  
   2080000   206.54913      432.47608      639.02522      274.78554      0.055038048    0.001285786  
   2090000   191.99567      475.58633      667.58199      302.17681      0.016978798    0.001285786  
   2100000   172.51986      477.84029      650.36015      303.60893     -0.015278506    0.001285786  
   2110000   175.31941      473.2184       648.53781      300.67228      0.08196272     0.001285786  
   2120000   173.0532       461.73697      634.79017      293.37725     -0.0072270073   0.001285786  
   2130000   192.4009       497.32809      689.72899      315.99104      0.060543636    0.001285786  
   2140000   202.3191       469.59824      671.91734      298.37212      0.0061785072   0.001285786  
   2150000   185.49677      469.42954      654.92631      298.26493      0.060761832    0.001285786  
   2160000   208.1571       453.01666      661.17376      287.83656      0.022914045    0.001285786  
   2170000   171.94745      451.93254      623.87999      287.14773      0.057998531    0.001285786  
   2180000   181.70808      482.97869      664.68677      306.87375      0.014686808    0.001285786  
   2190000   175.29402      471.95671      647.25072      299.87063      0.048539533    0.001285786  
   2200000   162.00556      460.86347      622.86903      292.82224     -0.068922132    0.001285786  
   2210000   189.62407      454.42848      644.05255      288.73359      0.039186743    0.001285786  
   2220000   171.62215      462.76713      634.38928      294.03178      0.028603776    0.001285786  
   2230000   163.77213      478.82513      642.59726      304.23468      0.012996517    0.001285786  
   2240000   168.82221      471.99002      640.81223      299.8918      -0.023357349    0.001285786  
   2250000   182.32832      458.37606      640.70438      291.2418       0.062303407    0.001285786  
   2260000   209.09146      494.89233      703.98379      314.44341     -0.032113126    0.001285786  
   2270000   192.78141      477.41246      670.19386      303.3371       0.042723462    0.001285786  
   2280000   179.8737       477.28425      657.15795      303.25564      0.11657564     0.001285786  
   2290000   182.22236      466.35033      648.57269      296.30847      0.00027308725  0.001285786  
   2300000   171.26361      497.17831      668.44192      315.89587      0.058393765    0.001285786  
   2310000   190.78417      468.19555      658.97972      297.48088     -0.014810368    0.001285786  
   2320000   178.28462      492.2423       670.52693      312.75964     -0.015352012    0.001285786  
   2330000   201.28364      492.17605      693.45969      312.71755      0.012591629    0.001285786  
   2340000   203.94488      463.90718      667.85206      294.75615     -0.025070129    0.001285786  
   2350000   188.66597      481.17836      669.84433      305.72987      0.037825326    0.001285786  
   2360000   189.84904      478.65525      668.50429      304.12674      0.014893446    0.001285786  
   2370000   186.23105      508.92948      695.16053      323.3623       0.024980819    0.001285786  
   2380000   180.91158      498.09072      679.0023       316.4756       0.05009517     0.001285786  
   2390000   169.60011      449.14384      618.74395      285.37586      0.02204335     0.001285786  
   2400000   197.10689      472.2835       669.39039      300.07827      0.019560912    0.001285786  
   2410000   210.42586      485.23955      695.66541      308.31025     -0.044876146    0.001285786  
   2420000   168.73044      455.06179      623.79223      289.13599      0.054145752    0.001285786  
   2430000   192.34083      458.49924      650.84006      291.32006      0.0069485874   0.001285786  
   2440000   176.44172      498.14342      674.58514      316.50908     -0.044675881    0.001285786  
   2450000   196.22314      490.41665      686.63979      311.59966     -0.055205074    0.001285786  
   2460000   175.15012      470.32908      645.4792       298.83647     -0.0092991796   0.001285786  
   2470000   174.94932      468.41233      643.36165      297.61861     -0.026453675    0.001285786  
   2480000   194.8037       489.60286      684.40656      311.0826       0.0032580639   0.001285786  
   2490000   190.20682      468.30206      658.50888      297.54855      0.01529728     0.001285786  
   2500000   187.01447      463.80991      650.82437      294.69434     -0.03283882     0.001285786  
   2510000   199.67585      471.11682      670.79267      299.33699     -0.038406887    0.001285786  
   2520000   194.87502      466.6501       661.52512      296.49894      0.039445076    0.001285786  
   2530000   201.72696      485.78477      687.51173      308.65667     -0.061374912    0.001285786  
   2540000   204.5302       473.01068      677.54088      300.54031     -0.00030985615  0.001285786  
   2550000   186.97792      441.52509      628.50301      280.53507     -0.027317816    0.001285786  
   2560000   176.18536      452.21586      628.40122      287.32775      0.0083244047   0.001285786  
   2570000   180.37846      434.08017      614.45863      275.80474      0.062846987    0.001285786  
   2580000   169.79086      463.02465      632.81551      294.1954       0.015692844    0.001285786  
   2590000   178.26501      495.12556      673.39057      314.5916       0.080914178    0.001285786  
   2600000   185.38987      483.32408      668.71394      307.0932       0.083642537    0.001285786  
   2610000   185.0509       468.76119      653.81209      297.84027      0.041600636    0.001285786  
   2620000   178.03948      464.24377      642.28325      294.97001      0.044857596    0.001285786  
   2630000   173.22267      451.30319      624.52586      286.74785     -0.0056170393   0.001285786  
   2640000   171.90263      464.02513      635.92777      294.83109      0.011376441    0.001285786  
   2650000   185.94129      451.60611      637.5474       286.94032      0.034113129    0.001285786  
   2660000   185.44245      501.03618      686.47863      318.34707     -0.0030883723   0.001285786  
   2670000   157.12818      488.30764      645.43582      310.25965     -0.016240382    0.001285786  
   2680000   167.59384      467.43585      635.02969      296.99818      0.0050381839   0.001285786  
   2690000   183.69103      457.2511       640.94213      290.52702      0.038384331    0.001285786  
   2700000   164.06983      464.62071      628.69055      295.20951      0.011003075    0.001285786  
   2710000   175.83179      463.18475      639.01655      294.29713     -0.0053010939   0.001285786  
   2720000   177.08969      463.16232      640.252        294.28288      0.025503438    0.001285786  
   2730000   172.10441      491.05646      663.16087      312.00618      0.02660148     0.001285786  
   2740000   213.60816      473.39286      687.00102      300.78313     -0.01765654     0.001285786  
   2750000   186.37449      462.76731      649.14181      294.0319       0.0063976715   0.001285786  
   2760000   191.09995      456.14949      647.24944      289.82708      0.028635716    0.001285786  
   2770000   191.07454      496.02113      687.09567      315.16062     -0.079754246    0.001285786  
   2780000   196.63521      479.20038      675.83558      304.4731      -0.032568442    0.001285786  
   2790000   181.43462      474.49251      655.92713      301.48183      0.0089985867   0.001285786  
   2800000   152.22955      473.76784      625.99739      301.02139      0.025002177    0.001285786  
   2810000   186.50833      477.36788      663.87621      303.30877     -0.030098319    0.001285786  
   2820000   181.16078      483.95163      665.11242      307.49194      0.02068237     0.001285786  
   2830000   178.75726      460.78599      639.54325      292.77301     -0.043385522    0.001285786  
   2840000   186.16272      486.64527      672.80799      309.20342     -0.016705781    0.001285786  
   2850000   181.36064      463.01932      644.37996      294.19202     -0.02621632     0.001285786  
   2860000   187.86347      474.30867      662.17215      301.36502     -0.013569994    0.001285786  
   2870000   192.2781       470.29621      662.57431      298.81559     -0.0063431421   0.001285786  
   2880000   201.81945      487.80171      689.62116      309.93819     -0.027184143    0.001285786  
   2890000   178.48639      490.02766      668.51405      311.35251     -0.028034409    0.001285786  
   2900000   172.29538      459.0748       631.37018      291.68576     -0.011121016    0.001285786  
   2910000   155.18638      468.93507      624.12145      297.95076      0.024466591    0.001285786  
   2920000   177.63537      493.46825      671.10362      313.53858     -0.0023972011   0.001285786  
   2930000   187.18902      476.22602      663.41504      302.58326      0.085669074    0.001285786  
   2940000   163.73731      470.92856      634.66587      299.21737     -0.092333501    0.001285786  
   2950000   134.39411      460.8177       595.21181      292.79316     -0.047195796    0.001285786  
   2960000   174.63837      491.47118      666.10955      312.26969      0.00019467781  0.001285786  
   2970000   177.59018      462.98397      640.57414      294.16956      0.044564902    0.001285786  
   2980000   191.24543      449.55977      640.8052       285.64013     -0.057918475    0.001285786  
   2990000   186.71885      474.75556      661.47441      301.64896     -0.021519389    0.001285786  
   3000000   158.72115      492.21335      650.9345       312.74125      0.013757978    0.001285786  
   3010000   170.50702      493.2344       663.74142      313.39         0.0052435904   0.001285786  
   3020000   191.9498       466.1184       658.0682       296.16111      0.036305708    0.001285786  
   3030000   204.68247      474.20932      678.89178      301.30189     -0.03651772     0.001285786  
   3040000   194.24113      482.57107      676.8122       306.61476      0.034255206    0.001285786  
   3050000   177.18134      434.79632      611.97767      276.25976      0.036910715    0.001285786  
   3060000   156.59148      481.21597      637.80744      305.75376     -0.026397859    0.001285786  
   3070000   171.60222      467.96503      639.56725      297.33441      0.053402795    0.001285786  
   3080000   153.56864      472.12419      625.69283      299.97705      0.0076250057   0.001285786  
   3090000   174.54269      478.48246      653.02515      304.01695      0.015246953    0.001285786  
   3100000   156.51346      474.61705      631.13051      301.56096     -0.084644909    0.001285786  
   3110000   159.2098       476.74493      635.95473      302.91296      0.080307525    0.001285786  
   3120000   157.96005      483.6692       641.62925      307.31249     -0.010514743    0.001285786  
   3130000   187.42313      520.37706      707.80019      330.63583     -0.019686512    0.001285786  
   3140000   157.61501      480.51209      638.1271       305.30653      0.058027901    0.001285786  
   3150000   159.66052      465.55898      625.21951      295.80567     -0.046979174    0.001285786  
   3160000   211.38732      442.30649      653.69381      281.03155     -0.0016046494   0.001285786  
   3170000   163.0219       486.61669      649.63859      309.18526      0.046179814    0.001285786  
   3180000   186.66335      476.53229      663.19563      302.77785      0.028206894    0.001285786  
   3190000   179.44154      479.43085      658.87239      304.61953      0.010504489    0.001285786  
   3200000   162.54222      453.13307      615.67529      287.91052      0.13946369     0.001285786  
   3210000   174.45545      470.79371      645.24916      299.13169     -0.053698749    0.001285786  
   3220000   161.66855      490.28893      651.95747      311.51851     -0.0078741996   0.001285786  
   3230000   167.2587       470.05226      637.31096      298.66059      0.045188015    0.001285786  
   3240000   144.12918      446.68988      590.81906      283.81666      0.0077626105   0.001285786  
   3250000   169.49947      469.49078      638.99024      298.30384      0.014199165    0.001285786  
   3260000   140.16347      448.74601      588.90948      285.12308      0.079503744    0.001285786  
   3270000   177.48925      462.45709      639.94634      293.83479      0.038792617    0.001285786  
   3280000   172.68315      498.33623      671.01937      316.63158      0.013291884    0.001285786  
   3290000   184.73573      443.52279      628.25852      281.80436      0.0087330969   0.001285786  
   3300000   161.49798      476.98923      638.48721      303.06818      0.040033791    0.001285786  
   3310000   156.30058      493.52535      649.82593      313.57486     -0.036146327    0.001285786  
   3320000   175.44471      459.03171      634.47641      291.65838     -0.16530096     0.001285786  
   3330000   194.43774      476.89207      671.32981      303.00645      0.013139756    0.001285786  
   3340000   162.21118      479.4785       641.68968      304.64981     -0.016962189    0.001285786  
   3350000   203.1334       489.54552      692.67893      311.04617     -0.020531093    0.001285786  
   3360000   164.33159      489.44209      653.77369      310.98045      0.13362436     0.001285786  
   3370000   181.10136      468.39701      649.49838      297.60888     -0.1084559      0.001285786  
   3380000   159.29637      476.2536       635.54997      302.60078      0.050391467    0.001285786  
   3390000   140.33807      475.63272      615.97078      302.20629      0.0079146099   0.001285786  
   3400000   181.46934      481.36752      662.83686      305.85005     -0.017271626    0.001285786  
   3410000   198.17717      442.82048      640.99765      281.35813      0.016543175    0.001285786  
   3420000   185.75044      452.21657      637.96701      287.32819     -0.036409875    0.001285786  
   3430000   185.36118      473.03453      658.39571      300.55546     -0.014518361    0.001285786  
   3440000   176.34423      456.4468       632.79104      290.01599      0.027048842    0.001285786  
   3450000   231.95176      453.08398      685.03575      287.87933     -0.09683335     0.001285786  
   3460000   205.52173      449.571        655.09274      285.64726     -0.031897018    0.001285786  
   3470000   194.04214      490.46579      684.50793      311.63089      0.026505704    0.001285786  
   3480000   192.29712      439.02761      631.32472      278.94823      0.0060623618   0.001285786  
   3490000   211.32822      460.47669      671.80491      292.57649     -0.0081986609   0.001285786  
   3500000   160.79544      451.47813      612.27357      286.85901      0.054049292    0.001285786  
   3510000   186.42635      484.87377      671.30012      308.07784      0.086117206    0.001285786  
   3520000   207.48403      481.22382      688.70785      305.75875     -0.049897816    0.001285786  
   3530000   175.53717      473.3089       648.84608      300.72979     -0.007195388    0.001285786  
   3540000   190.27272      452.44666      642.71937      287.47439      0.025930027    0.001285786  
   3550000   205.01014      490.51538      695.52552      311.66239      0.032186027    0.001285786  
   3560000   161.26674      510.1538       671.42053      324.1402       0.037475221    0.001285786  
   3570000   183.28239      457.70855      640.99094      290.81768      0.026511428    0.001285786  
   3580000   191.03744      483.43082      674.46825      307.16102     -0.076493801    0.001285786  
   3590000   163.4934       482.40755      645.90095      306.51086      0.013779192    0.001285786  
   3600000   177.35763      448.91112      626.26875      285.22799     -0.089576422    0.001285786  
   3610000   175.67075      464.34326      640.01401      295.03322     -0.032204328    0.001285786  
   3620000   137.2141       462.0424       599.2565       293.57131     -0.035525588    0.001285786  
   3630000   165.45956      454.40856      619.86812      288.72094     -0.068324482    0.001285786  
   3640000   142.27228      502.02809      644.30038      318.97731     -0.020830093    0.001285786  
   3650000   173.43733      468.26401      641.70134      297.52438     -0.047058049    0.001285786  
   3660000   187.24703      482.47377      669.7208       306.55294     -0.071371034    0.001285786  
   3670000   179.96764      452.37099      632.33863      287.42631      0.078309644    0.001285786  
   3680000   172.0023       453.85961      625.86192      288.37215      0.024642267    0.001285786  
   3690000   202.73546      473.79649      676.53195      301.03959     -0.0038534739   0.001285786  
   3700000   169.86986      461.27699      631.14685      293.08498      0.006456282    0.001285786  
   3710000   156.37466      479.96984      636.3445       304.962        0.01960775     0.001285786  
   3720000   180.71024      496.29571      677.00595      315.33509      0.051317288    0.001285786  
   3730000   166.3227       465.70393      632.02662      295.89776      0.092254495    0.001285786  
   3740000   167.19707      458.47211      625.66918      291.30283     -0.031138269    0.001285786  
   3750000   165.05402      489.04136      654.09537      310.72584     -0.0035782198   0.001285786  
   3760000   168.42073      494.53226      662.95299      314.21463     -0.0011024428   0.001285786  
   3770000   181.87285      486.2836       668.15646      308.97362      0.058639979    0.001285786  
   3780000   198.5245       454.0158       652.5403       288.47138     -0.030406747    0.001285786  
   3790000   198.78898      465.07059      663.85956      295.49535     -0.075050656    0.001285786  
   3800000   161.68054      478.87783      640.55837      304.26816      0.0065603949   0.001285786  
   3810000   161.89758      448.93369      610.83127      285.24233      0.075344437    0.001285786  
   3820000   168.41935      462.02906      630.44841      293.56283      0.069351718    0.001285786  
   3830000   188.99517      466.1531       655.14827      296.18315     -0.067947098    0.001285786  
   3840000   183.70827      482.62358      666.33184      306.64812     -0.012680429    0.001285786  
   3850000   163.56735      486.09072      649.65807      308.85107      0.0016528524   0.001285786  
   3860000   192.6757       457.08901      649.76471      290.42404     -0.043269958    0.001285786  
   3870000   165.30675      509.66662      674.97337      323.83066      0.014149074    0.001285786  
   3880000   194.29014      475.50836      669.79849      302.12727      0.019554304    0.001285786  
   3890000   162.53199      462.41401      624.946        293.80742      0.018249511    0.001285786  
   3900000   159.55425      446.57193      606.12618      283.74172     -0.066586264    0.001285786  
   3910000   166.99716      480.60955      647.6067       305.36845     -0.05975673     0.001285786  
   3920000   186.03445      473.62164      659.65609      300.92849      0.07232365     0.001285786  
   3930000   194.81859      448.64975      643.46834      285.06192      0.017643587    0.001285786  
   3940000   194.57822      467.00292      661.58113      296.72311     -0.025170524    0.001285786  
   3950000   183.52062      490.05233      673.57295      311.36818      0.063705382    0.001285786  
   3960000   172.96442      481.64211      654.60653      306.02452     -0.017757427    0.001285786  
   3970000   168.00472      501.8443       669.84901      318.86053     -0.037797809    0.001285786  
   3980000   181.72729      469.90633      651.63362      298.56787     -0.022928545    0.001285786  
   3990000   153.48812      478.43699      631.92511      303.98806      0.0070915695   0.001285786  
   4000000   172.53469      448.38525      620.91994      284.89386      0.013974924    0.001285786  
   4010000   184.88487      488.87086      673.75573      310.6175      -0.014081837    0.001285786  
   4020000   199.06544      466.13915      665.2046       296.17429     -0.014784874    0.001285786  
   4030000   169.4014       494.7302       664.13161      314.3404       0.039836691    0.001285786  
   4040000   208.09822      466.79057      674.8888       296.58819     -0.07679496     0.001285786  
   4050000   196.52755      471.86266      668.39021      299.81088     -0.079478947    0.001285786  
   4060000   198.42236      444.93482      643.35717      282.70153      0.037830251    0.001285786  
   4070000   193.64423      511.95042      705.59465      325.28174      0.08521175     0.001285786  
   4080000   186.93785      469.1865       656.12435      298.11051     -0.010031009    0.001285786  
   4090000   188.88192      470.2677       659.14962      298.79748     -0.031289927    0.001285786  
   4100000   197.66607      502.46359      700.12965      319.25402      0.053287496    0.001285786  
   4110000   157.91594      490.74269      648.65863      311.80682     -0.011320004    0.001285786  
   4120000   165.33997      447.07315      612.41312      284.06018      0.00011695306  0.001285786  
   4130000   169.79579      482.64564      652.44143      306.66214      0.060145258    0.001285786  
   4140000   176.66317      496.78279      673.44596      315.64457      0.01845665     0.001285786  
   4150000   184.36653      449.74676      634.11329      285.75894      0.043503756    0.001285786  
   4160000   198.76978      469.0437       667.81348      298.01977      0.022329384    0.001285786  
   4170000   153.05569      491.96951      645.02519      312.58632     -0.018135397    0.001285786  
   4180000   156.09609      504.56648      660.66258      320.59015      0.0095263951   0.001285786  
   4190000   164.83143      471.05167      635.8831       299.29559     -0.0078731282   0.001285786  
   4200000   197.18751      475.11338      672.30089      301.87631     -0.0010471848   0.001285786  
   4210000   173.14185      458.6024       631.74425      291.38561      0.024508276    0.001285786  
   4220000   200.57125      465.98513      666.55638      296.07643     -0.031332598    0.001285786  
   4230000   188.81359      492.89162      681.70521      313.17221     -0.07915028     0.001285786  
   4240000   174.15014      469.63311      643.78325      298.39427     -0.011955127    0.001285786  
   4250000   142.63912      470.9114       613.55052      299.20647      0.033455842    0.001285786  
   4260000   164.76897      447.42676      612.19573      284.28486      0.028138921    0.001285786  
   4270000   157.76145      469.71831      627.47977      298.44841     -0.040308325    0.001285786  
   4280000   159.0512       490.8514       649.9026       311.8759      -0.010288362    0.001285786  
   4290000   164.59981      468.71546      633.31527      297.81122      0.039777178    0.001285786  
   4300000   167.26603      435.66357      602.9296       276.8108      -0.027790903    0.001285786  
   4310000   167.13418      478.5289       645.66308      304.04645     -0.0079556168   0.001285786  
   4320000   182.57969      479.36396      661.94366      304.57704     -0.0024434      0.001285786  
   4330000   226.92153      456.24997      683.17149      289.89093      0.0022779178   0.001285786  
   4340000   179.69935      484.3644       664.06375      307.7542       0.017584326    0.001285786  
   4350000   182.01853      461.18114      643.19967      293.02408      0.020181895    0.001285786  
   4360000   211.6562       451.68503      663.34123      286.99047     -0.052643101    0.001285786  
   4370000   189.3361       461.98473      651.32083      293.53467      0.008673879    0.001285786  
   4380000   196.74773      479.32362      676.07135      304.55141     -0.066455911    0.001285786  
   4390000   201.3335       446.72252      648.05603      283.8374      -0.029399627    0.001285786  
   4400000   173.37455      458.449        631.82356      291.28814      0.043858149    0.001285786  
   4410000   218.3749       470.69947      689.07437      299.07181      0.0073392185   0.001285786  
   4420000   190.56542      447.53756      638.10298      284.35526     -0.05191108     0.001285786  
   4430000   189.48821      493.20206      682.69027      313.36945     -0.095865027    0.001285786  
   4440000   187.77238      486.07252      673.8449       308.8395       0.041903202    0.001285786  
   4450000   178.09897      507.4862       685.58518      322.44527      0.056326362    0.001285786  
   4460000   175.18477      490.94967      666.13444      311.93833      0.052706936    0.001285786  
   4470000   198.13954      458.57797      656.71751      291.37009      0.010233369    0.001285786  
   4480000   158.39275      486.24736      644.64011      308.95059      0.0080591557   0.001285786  
   4490000   180.40255      470.4103       650.81286      298.88808      0.079460695    0.001285786  
   4500000   219.12292      453.28538      672.4083       288.00729      0.013519257    0.001285786  
   4510000   173.03748      473.12863      646.16611      300.61525      0.024821235    0.001285786  
   4520000   188.84871      453.08105      641.92976      287.87747      0.018310448    0.001285786  
   4530000   170.72628      457.06934      627.79562      290.41154     -0.048780675    0.001285786  
   4540000   168.81286      477.6101       646.42296      303.46267     -0.0065169761   0.001285786  
   4550000   177.27176      458.25371      635.52547      291.16406      0.0079213777   0.001285786  
   4560000   202.08106      489.91569      691.99675      311.28136     -0.032424908    0.001285786  
   4570000   209.60696      476.22811      685.83507      302.58459      0.059202965    0.001285786  
   4580000   221.90398      458.087        679.99098      291.05814     -0.094337535    0.001285786  
   4590000   198.65395      460.57334      659.22729      292.6379       0.018861547    0.001285786  
   4600000   207.13938      502.77241      709.91179      319.45024     -0.015332175    0.001285786  
   4610000   196.44804      488.12147      684.56951      310.14136      0.01815248     0.001285786  
   4620000   210.35917      464.32586      674.68504      295.02217     -0.0015549712   0.001285786  
   4630000   194.73161      476.48821      671.21982      302.74985     -0.046631431    0.001285786  
   4640000   201.31887      496.82923      698.1481       315.67407     -0.096509572    0.001285786  
   4650000   190.92153      440.96742      631.88895      280.18074     -0.012100468    0.001285786  
   4660000   190.50695      468.99212      659.49907      297.987        0.0022650031   0.001285786  
   4670000   196.91725      493.21719      690.13444      313.37907     -0.026352       0.001285786  
   4680000   200.43411      486.87819      687.3123       309.35141      0.036986197    0.001285786  
   4690000   184.09129      443.89566      627.98695      282.04128      0.0098738486   0.001285786  
   4700000   182.74133      460.92278      643.66411      292.85993     -0.0069900999   0.001285786  
   4710000   176.39745      457.72927      634.12672      290.83084     -0.032774648    0.001285786  
   4720000   212.09176      450.4131       662.50486      286.18231     -0.021539588    0.001285786  
   4730000   198.37623      472.67288      671.04911      300.32567      0.02206998     0.001285786  
   4740000   179.2849       465.07153      644.35643      295.49595      0.00010682827  0.001285786  
   4750000   174.08398      492.88438      666.96835      313.1676      -0.093744437    0.001285786  
   4760000   169.85491      489.40867      659.26358      310.95922      0.019719448    0.001285786  
   4770000   148.9779       468.44306      617.42096      297.63814     -0.00060365374  0.001285786  
   4780000   166.31142      478.76676      645.07818      304.19759      0.02670781     0.001285786  
   4790000   167.10384      467.43043      634.53426      296.99474     -0.0030342168   0.001285786  
   4800000   180.78836      478.90178      659.69014      304.28338      0.020541375    0.001285786  
   4810000   138.2243       494.9653       633.18961      314.48977      0.066020064    0.001285786  
   4820000   172.29828      446.48988      618.78816      283.68959      0.059887954    0.001285786  
   4830000   188.75229      487.02595      675.77825      309.44529     -0.026196931    0.001285786  
   4840000   188.95115      456.34895      645.3001       289.95382      0.06736966     0.001285786  
   4850000   187.98411      478.28118      666.26529      303.88906     -0.020735524    0.001285786  
   4860000   190.32706      444.99071      635.31777      282.73705      0.023261663    0.001285786  
   4870000   207.03996      438.24588      645.28584      278.45153      0.0053616812   0.001285786  
   4880000   196.88764      441.02686      637.9145       280.21851      0.040571115    0.001285786  
   4890000   201.18541      476.88323      678.06863      303.00083      0.046485873    0.001285786  
   4900000   214.25087      461.68156      675.93244      293.34204     -0.066972463    0.001285786  
   4910000   184.32528      462.86796      647.19324      294.09585      0.05930581     0.001285786  
   4920000   167.19234      467.23136      634.42371      296.86826      0.050931141    0.001285786  
   4930000   195.67373      483.04147      678.7152       306.91364     -0.012910749    0.001285786  
   4940000   188.51175      478.58479      667.09654      304.08197      0.038454544    0.001285786  
   4950000   186.91031      453.32768      640.23799      288.03417     -0.014497496    0.001285786  
   4960000   168.49881      466.33651      634.83532      296.29969     -0.026196032    0.001285786  
   4970000   174.06525      460.75273      634.81797      292.75188      0.03638221     0.001285786  
   4980000   168.47746      464.80296      633.28041      295.3253       0.040057908    0.001285786  
   4990000   176.31644      470.92283      647.23928      299.21373      0.081055975    0.001285786  
   5000000   182.66693      470.68989      653.35683      299.06573      0.017090396    0.001285786  
Loop time of 271.918 on 8 procs for 5000000 steps with 529 atoms

Performance: 15887.165 ns/day, 0.002 hours/ns, 18387.923 timesteps/s, 9.727 Matom-step/s
99.4% CPU use with 8 MPI tasks x 1 OpenMP threads

MPI task timing breakdown:
Section |  min time  |  avg time  |  max time  |%varavg| %total
---------------------------------------------------------------
Pair    | 61.349     | 81.222     | 120.27     | 231.8 | 29.87
Bond    | 7.8217     | 11.638     | 16.609     |  87.2 |  4.28
Neigh   | 0.78511    | 0.88773    | 0.94655    |   6.4 |  0.33
Comm    | 122.32     | 167.62     | 188.22     | 189.5 | 61.64
Output  | 0.076397   | 0.088164   | 0.1474     |   7.6 |  0.03
Modify  | 5.0788     | 7.3031     | 9.8484     |  60.0 |  2.69
Other   |            | 3.159      |            |       |  1.16

Nlocal:         66.125 ave          96 max          36 min
Histogram: 1 2 0 1 0 0 0 2 0 2
Nghost:          66.25 ave         104 max          16 min
Histogram: 1 0 0 1 1 1 1 1 0 2
Neighs:          158.5 ave         304 max          53 min
Histogram: 3 1 1 0 0 0 0 0 1 2

Total # of neighbors = 1268
Ave neighs/atom = 2.3969754
Ave special neighs/atom = 4.8431002
Neighbor list builds = 10038
Dangerous builds = 0

# --- Production (1 µs) -------------------------------------------
unfix favg
fix favg all ave/time 10000 10 100000 v_vpe v_vke v_vT v_vE v_vRg     file outputs/thermo_${tag}_production.dat
fix favg all ave/time 10000 10 100000 v_vpe v_vke v_vT v_vE v_vRg     file outputs/thermo_1ANR_aso_n50_production.dat

restart 10000000 outputs/backup_${tag}.*.restart
restart 10000000 outputs/backup_1ANR_aso_n50.*.restart
run 100000000
Generated 0 of 6 mixed pair_coeff terms from geometric mixing rule
Per MPI rank memory allocation (min/avg/max) = 8.607 | 8.741 | 8.875 Mbytes
   Step         PotEng         KinEng         TotEng          Temp          Press         Density    
   5000000   182.66693      470.68989      653.35683      299.06573      0.017090396    0.001285786  
   5010000   188.36466      465.14761      653.51227      295.54429     -0.055451552    0.001285786  
   5020000   176.3227       469.03406      645.35677      298.01365     -0.0073765372   0.001285786  
   5030000   212.88031      473.82185      686.70216      301.0557       0.064130887    0.001285786  
   5040000   180.67156      463.14396      643.81552      294.27121      0.032367375    0.001285786  
   5050000   167.59551      457.56162      625.15713      290.72432      0.0084547157   0.001285786  
   5060000   174.03505      472.52733      646.56237      300.23319      0.020823577    0.001285786  
   5070000   178.46781      460.73266      639.20047      292.73913      0.021153023    0.001285786  
   5080000   176.79859      484.28698      661.08557      307.70501      0.028295068    0.001285786  
   5090000   160.22468      476.08194      636.30661      302.49171     -0.0072492838   0.001285786  
   5100000   172.29873      464.68591      636.98464      295.25093      0.00094388315  0.001285786  
   5110000   175.28523      500.99273      676.27796      318.31947     -0.028748959    0.001285786  
   5120000   157.08592      471.19201      628.27794      299.38477     -0.070637219    0.001285786  
   5130000   205.16736      459.43496      664.60232      291.9146      -0.017232394    0.001285786  
   5140000   214.16586      485.46528      699.63114      308.45367      0.0051056073   0.001285786  
   5150000   209.86793      493.29237      703.16031      313.42683      0.099448847    0.001285786  
   5160000   170.16534      461.26744      631.43278      293.07892     -0.040328281    0.001285786  
   5170000   174.32835      474.04987      648.37822      301.20058      0.042394735    0.001285786  
   5180000   196.42382      476.04232      672.46614      302.46654      0.03898484     0.001285786  
   5190000   156.90058      493.4273       650.32789      313.51257     -0.025476676    0.001285786  
   5200000   174.99886      454.8644       629.86326      289.01057      0.033545235    0.001285786  
   5210000   169.65199      481.22544      650.87743      305.75978     -0.076958198    0.001285786  
   5220000   176.56141      469.51197      646.07338      298.3173       0.11185275     0.001285786  
   5230000   174.16328      470.09632      644.2596       298.68859      0.025505889    0.001285786  
   5240000   197.7176       436.54474      634.26234      277.37067     -0.078220054    0.001285786  
   5250000   168.95996      476.9133       645.87326      303.01994     -0.00031586783  0.001285786  
   5260000   171.34425      461.93069      633.27495      293.50033     -0.01729762     0.001285786  
   5270000   203.25097      458.25757      661.50854      291.16651      0.06590715     0.001285786  
   5280000   184.59598      486.26635      670.86233      308.96266      0.052751579    0.001285786  
   5290000   202.00321      489.58733      691.59054      311.07274     -0.019081111    0.001285786  
   5300000   202.22555      477.7953       680.02085      303.58034      0.015380803    0.001285786  
   5310000   194.14304      454.36999      648.51303      288.69643     -0.017420746    0.001285786  
   5320000   190.99553      496.42867      687.4242       315.41957      0.0099279894   0.001285786  
   5330000   171.32084      478.49031      649.81115      304.02194      0.079852989    0.001285786  
   5340000   196.107        493.81921      689.92621      313.76158     -0.10613857     0.001285786  
   5350000   207.37176      502.63768      710.00944      319.36463      0.028264124    0.001285786  
   5360000   215.3887       447.02037      662.40907      284.02665     -0.07305464     0.001285786  
   5370000   181.61596      455.43205      637.04802      289.37124      0.00092913667  0.001285786  
   5380000   165.23466      438.68393      603.91859      278.72986     -0.0236936      0.001285786  
   5390000   178.66162      495.04311      673.70473      314.53921      0.021580081    0.001285786  
   5400000   182.33539      453.62968      635.96507      288.22606     -0.025433346    0.001285786  
   5410000   164.0548       464.18321      628.23801      294.93153      0.050764399    0.001285786  
   5420000   156.38674      446.37756      602.7643       283.61822     -0.015312459    0.001285786  
   5430000   161.63009      480.16658      641.79668      305.08701      0.0078813243   0.001285786  
   5440000   185.71683      455.87871      641.59554      289.65504     -0.073894374    0.001285786  
   5450000   177.10147      473.09731      650.19878      300.59535      0.078864785    0.001285786  
   5460000   156.5562       464.3757       620.9319       295.05383      0.03168902     0.001285786  
   5470000   165.97114      457.59307      623.56421      290.7443      -0.046725527    0.001285786  
   5480000   191.92548      492.38292      684.3084       312.84899      0.05091413     0.001285786  
   5490000   146.43246      455.72824      602.1607       289.55943     -0.0037318469   0.001285786  
   5500000   192.51097      474.74797      667.25894      301.64414     -0.020013426    0.001285786  
   5510000   171.82161      459.28939      631.11101      291.82211      0.0099760162   0.001285786  
   5520000   187.37586      447.59193      634.96779      284.38981     -0.0062380563   0.001285786  
   5530000   187.57754      470.37919      657.95672      298.86831     -0.061279084    0.001285786  
   5540000   177.31051      467.06449      644.37501      296.76223     -0.043669333    0.001285786  
   5550000   192.92581      483.21101      676.13682      307.02136      0.100796       0.001285786  
   5560000   182.11865      474.37261      656.49126      301.40565      0.038212445    0.001285786  
   5570000   199.74049      486.4098       686.15029      309.05381      0.084345518    0.001285786  
   5580000   181.41611      463.29332      644.70943      294.36611      0.084226573    0.001285786  
   5590000   206.25267      475.79011      682.04277      302.30629      0.0053815158   0.001285786  
   5600000   196.80976      483.3343       680.14406      307.0997       0.0877342      0.001285786  
   5610000   203.01063      465.43216      668.44279      295.72508     -0.089869308    0.001285786  
   5620000   181.1789       473.83803      655.01692      301.06598     -0.0091910492   0.001285786  
   5630000   181.86122      476.98069      658.84191      303.06276      0.0042246432   0.001285786  
   5640000   185.09269      484.22543      669.31812      307.66591      0.065452014    0.001285786  
   5650000   198.80741      452.48841      651.29582      287.50091      0.0042378864   0.001285786  
   5660000   198.2915       455.01842      653.30992      289.10843      0.030716343    0.001285786  
   5670000   190.12359      490.98218      681.10577      311.95899      0.039407858    0.001285786  
   5680000   202.97307      452.27233      655.2454       287.36363      0.030456112    0.001285786  
   5690000   154.65014      487.1891       641.83924      309.54895      0.098055412    0.001285786  
   5700000   203.11547      491.92201      695.03748      312.55614      0.028371163    0.001285786  
   5710000   170.39391      474.44088      644.83479      301.44902      0.084975032    0.001285786  
   5720000   171.41085      512.70777      684.11862      325.76294      0.1037271      0.001285786  
   5730000   190.62741      466.34303      656.97044      296.30383     -0.036162466    0.001285786  
   5740000   197.1656       462.18307      659.34867      293.66069     -0.034607952    0.001285786  
   5750000   213.20921      499.96025      713.16946      317.66345      0.030231416    0.001285786  
   5760000   155.83922      469.51389      625.35312      298.31853      0.085099532    0.001285786  
   5770000   193.35201      467.32634      660.67835      296.9286       0.052799983    0.001285786  
   5780000   224.18662      467.43188      691.61851      296.99566      0.071807703    0.001285786  
   5790000   198.2366       472.1442       670.3808       299.98977     -0.1221112      0.001285786  
   5800000   175.78095      466.43893      642.21989      296.36476      0.075199974    0.001285786  
   5810000   187.20778      465.73979      652.94757      295.92054     -0.0047344074   0.001285786  
   5820000   160.9243       441.73484      602.65914      280.66834     -0.058014463    0.001285786  
   5830000   163.83165      432.21462      596.04628      274.61941     -0.091606936    0.001285786  
   5840000   205.55462      456.8884       662.44301      290.29657     -0.024919034    0.001285786  
   5850000   171.15642      483.57498      654.73141      307.25262      0.015891639    0.001285786  
   5860000   174.60944      459.04849      633.65793      291.66904      0.025092818    0.001285786  
   5870000   177.71514      478.12229      655.83743      303.78811     -0.034666198    0.001285786  
   5880000   177.78791      482.37594      660.16385      306.49078      0.054602569    0.001285786  
   5890000   175.25655      465.50087      640.75742      295.76874      0.007613458    0.001285786  
   5900000   191.25828      451.36472      642.623        286.78695      0.00030918156  0.001285786  
   5910000   174.94349      470.21394      645.15743      298.76332     -0.0037625722   0.001285786  
   5920000   189.14608      526.75387      715.89995      334.68751      0.011473345    0.001285786  
   5930000   190.66527      491.92388      682.58915      312.55733     -0.040890178    0.001285786  
   5940000   175.59672      459.19967      634.7964       291.7651      -0.0016051649   0.001285786  
   5950000   188.20055      500.58466      688.78521      318.06019     -0.048376741    0.001285786  
   5960000   167.19863      483.4285       650.62713      307.15955     -0.0023724977   0.001285786  
   5970000   171.55138      479.61479      651.16617      304.73641     -0.032380278    0.001285786  
   5980000   175.24253      449.7319       624.97443      285.7495      -0.0057503228   0.001285786  
   5990000   153.15916      481.91246      635.07162      306.1963       0.029761742    0.001285786  
   6000000   158.09921      461.49142      619.59063      293.22123      0.11004267     0.001285786  
   6010000   173.48295      460.23742      633.72037      292.42446     -0.013842891    0.001285786  
   6020000   183.62208      474.67542      658.2975       301.59804      0.018012665    0.001285786  
   6030000   202.40647      488.23417      690.64064      310.21297     -0.027783608    0.001285786  
   6040000   179.41731      465.76647      645.18379      295.9375       0.0076412189   0.001285786  
   6050000   167.01146      461.5314       628.54287      293.24663      0.022310202    0.001285786  
   6060000   181.72062      491.20337      672.92398      312.09953      0.0054404586   0.001285786  
   6070000   180.12753      446.33588      626.46341      283.59174      0.0047265639   0.001285786  
   6080000   177.36905      485.81382      663.18287      308.67513     -0.0066756043   0.001285786  
   6090000   195.84487      469.2121       665.05697      298.12678      0.023901625    0.001285786  
   6100000   177.47321      459.10816      636.58137      291.70695      0.056350134    0.001285786  
   6110000   177.8742       469.41629      647.29049      298.25651     -0.011459264    0.001285786  
   6120000   171.76485      503.79241      675.55725      320.09832     -0.021956728    0.001285786  
   6130000   181.70469      468.83939      650.54408      297.88996     -0.042124943    0.001285786  
   6140000   182.76342      468.96492      651.72834      297.96972      0.030810921    0.001285786  
   6150000   156.67357      509.96843      666.642        324.02242      0.014462297    0.001285786  
   6160000   160.40776      476.42036      636.82812      302.70674      0.007420712    0.001285786  
   6170000   190.2516       478.06778      668.31938      303.75347      0.018026562    0.001285786  
   6180000   171.30049      477.24106      648.54155      303.22819      0.026352197    0.001285786  
   6190000   173.46607      477.18973      650.65579      303.19558      0.033777623    0.001285786  
   6200000   173.04105      485.45081      658.49186      308.44448      0.029426645    0.001285786  
   6210000   170.358        499.90102      670.25902      317.62582     -0.006079988    0.001285786  
   6220000   174.5229       460.33444      634.85735      292.48611      0.011429579    0.001285786  
   6230000   157.80008      483.21481      641.01489      307.02378      0.09199492     0.001285786  
   6240000   159.92532      477.11535      637.04067      303.14832      0.046204675    0.001285786  
   6250000   192.49493      467.52593      660.02086      297.05542      0.023045016    0.001285786  
   6260000   178.02496      478.70255      656.72752      304.15679     -0.020230311    0.001285786  
   6270000   173.14362      474.97413      648.11775      301.78784      0.0042807674   0.001285786  
   6280000   188.95645      470.43301      659.38946      298.90251     -0.0024402552   0.001285786  
   6290000   170.92139      465.51814      636.43953      295.77971      0.030048932    0.001285786  
   6300000   142.93555      475.51289      618.44844      302.13016     -0.068726082    0.001285786  
   6310000   192.83715      468.9584       661.79555      297.96558      0.0016484883   0.001285786  
   6320000   169.72611      467.03345      636.75956      296.74251      0.018468933    0.001285786  
   6330000   176.01859      482.32544      658.34404      306.45869      0.03592716     0.001285786  
   6340000   200.71025      493.62371      694.33396      313.63736      0.026370922    0.001285786  
   6350000   175.40258      506.16799      681.57057      321.60771     -0.027002181    0.001285786  
   6360000   164.22227      463.91344      628.1357       294.76012     -0.0073638707   0.001285786  
   6370000   159.19171      472.56276      631.75447      300.25571      0.017563903    0.001285786  
   6380000   176.57016      479.80704      656.3772       304.85856     -0.0062703582   0.001285786  
   6390000   163.73939      462.52643      626.26582      293.87885     -0.013569446    0.001285786  
   6400000   194.88484      466.65015      661.53499      296.49897     -0.042832873    0.001285786  
   6410000   186.69226      435.2586       621.95086      276.55349     -0.022692843    0.001285786  
   6420000   194.8118       465.9861       660.7979       296.07705     -0.0193862      0.001285786  
   6430000   166.92781      467.86502      634.79283      297.27087      0.037713844    0.001285786  
   6440000   190.25538      469.79318      660.04856      298.49598      0.019045718    0.001285786  
   6450000   175.00376      487.59196      662.59573      309.80492      0.050947964    0.001285786  
   6460000   155.46281      485.86979      641.3326       308.71069     -0.033971704    0.001285786  
   6470000   176.03101      488.95455      664.98556      310.67068      0.073947302    0.001285786  
   6480000   164.84245      472.03142      636.87388      299.91811     -0.084666242    0.001285786  
   6490000   170.2354       478.29705      648.53245      303.89914     -0.019578423    0.001285786  
   6500000   167.869        465.56053      633.42953      295.80665      0.021239568    0.001285786  
   6510000   211.18709      449.51959      660.70668      285.6146      -0.036749151    0.001285786  
   6520000   178.094        483.14986      661.24386      306.98251      0.053039197    0.001285786  
   6530000   198.19973      467.99921      666.19893      297.35613      0.069611826    0.001285786  
   6540000   166.14143      481.27599      647.41743      305.7919       0.033941907    0.001285786  
   6550000   186.42901      476.48612      662.91513      302.74852      0.046345417    0.001285786  
   6560000   164.12105      464.96482      629.08588      295.42815     -0.0027227566   0.001285786  
   6570000   130.87999      444.87346      575.75345      282.66255     -0.066476258    0.001285786  
   6580000   155.96241      504.50242      660.46483      320.54945      0.051055848    0.001285786  
   6590000   136.80334      470.21351      607.01685      298.76304     -0.093416188    0.001285786  
   6600000   170.42569      441.78965      612.21534      280.70316      0.018213563    0.001285786  
   6610000   149.70382      486.68905      636.39287      309.23123      0.037470179    0.001285786  
   6620000   160.05189      453.46641      613.5183       288.12231     -0.067491811    0.001285786  
   6630000   148.80547      484.15803      632.9635       307.62308     -0.043659125    0.001285786  
   6640000   146.75672      497.78861      644.54533      316.28364      0.081199619    0.001285786  
   6650000   143.45324      478.09711      621.55035      303.77211      0.010071791    0.001285786  
   6660000   148.6446       463.00803      611.65262      294.18485      0.015944445    0.001285786  
   6670000   145.04148      472.01571      617.05719      299.90812     -0.048426176    0.001285786  
   6680000   161.22154      471.12728      632.34883      299.34364      0.037669018    0.001285786  
   6690000   135.82497      499.26608      635.09105      317.22239      0.0036263896   0.001285786  
   6700000   147.7435       464.23862      611.98212      294.96673      0.11644933     0.001285786  
   6710000   166.47485      480.77309      647.24794      305.47237      0.024076238    0.001285786  
   6720000   176.99445      479.422        656.41645      304.61391      0.055777098    0.001285786  
   6730000   148.60803      466.05786      614.66589      296.12264     -0.034415034    0.001285786  
   6740000   170.44377      483.0973       653.54106      306.94911      0.052508526    0.001285786  
   6750000   146.40361      457.07631      603.47992      290.41597     -0.036803496    0.001285786  
   6760000   154.15059      450.69315      604.84375      286.36025     -0.002158237    0.001285786  
   6770000   157.21097      440.10662      597.31759      279.6338      -0.0085877815   0.001285786  
   6780000   162.27965      494.50161      656.78127      314.19516     -0.038124708    0.001285786  
   6790000   145.13914      465.72763      610.86677      295.91282      0.082735215    0.001285786  
   6800000   154.35684      474.49644      628.85328      301.48432     -0.016713489    0.001285786  
   6810000   185.40313      491.63301      677.03613      312.37251      0.019059337    0.001285786  
   6820000   180.44129      473.84621      654.2875       301.07118      0.085205987    0.001285786  
   6830000   174.48831      435.42987      609.91819      276.66231     -0.0047278619   0.001285786  
   6840000   184.83835      475.65965      660.498        302.2234      -0.062066249    0.001285786  
   6850000   149.26499      478.87576      628.14075      304.26684      0.055834513    0.001285786  
   6860000   158.51255      474.98681      633.49936      301.79589     -0.05214579     0.001285786  
   6870000   147.63909      484.55317      632.19226      307.87414      0.0010640324   0.001285786  
   6880000   145.65944      478.69549      624.35494      304.15231      0.017939186    0.001285786  
   6890000   169.91011      462.68782      632.59792      293.98139     -0.0094929939   0.001285786  
   6900000   169.16108      470.58502      639.7461       298.99909      0.081824125    0.001285786  
   6910000   140.45685      516.8655       657.32234      328.40467      0.039177872    0.001285786  
   6920000   152.10658      476.23003      628.33661      302.5858       0.029196318    0.001285786  
   6930000   129.57148      496.77093      626.34241      315.63703      0.11744178     0.001285786  
   6940000   162.82399      466.99904      629.82303      296.72064     -7.6578503e-05  0.001285786  
   6950000   149.76972      480.47484      630.24456      305.28286     -0.021454158    0.001285786  
   6960000   119.44404      475.88493      595.32897      302.36654      0.0072679431   0.001285786  
   6970000   142.54451      463.03657      605.58108      294.20298      0.022806898    0.001285786  
   6980000   140.03834      464.38632      604.42466      295.06058      0.055506666    0.001285786  
   6990000   149.97594      461.85671      611.83265      293.45333      0.034797555    0.001285786  
   7000000   145.46125      446.11914      591.58039      283.45403      0.066720475    0.001285786  
   7010000   133.00672      464.5609       597.56761      295.1715      -0.034658742    0.001285786  
   7020000   143.78126      490.42343      634.2047       311.60397      0.023726991    0.001285786  
   7030000   135.26087      500.82454      636.08541      318.2126       0.065573001    0.001285786  
   7040000   123.52358      480.9406       604.46417      305.57879      0.012515268    0.001285786  
   7050000   136.99825      460.72471      597.72296      292.73408     -0.073904228    0.001285786  
   7060000   136.44927      486.32255      622.77181      308.99836     -0.018770064    0.001285786  
   7070000   143.85827      448.65363      592.51189      285.06438     -0.00084144723  0.001285786  
[...]
 103190000   79.501135      484.79389      564.29503      308.02709      0.0065474609   0.001285786  
 103200000   77.267285      465.46726      542.73454      295.74738     -0.062737963    0.001285786  
 103210000   79.875338      470.66776      550.54309      299.05166      0.076552634    0.001285786  
 103220000   52.930524      459.68326      512.61378      292.07236     -0.035837809    0.001285786  
 103230000   85.144064      441.84085      526.98491      280.7357       0.038664953    0.001285786  
 103240000   53.269714      466.47018      519.7399       296.38462     -0.017437383    0.001285786  
 103250000   37.152904      442.81069      479.9636       281.35191      0.079016512    0.001285786  
 103260000   86.253852      461.02912      547.28297      292.92749     -0.034163397    0.001285786  
 103270000   90.025386      468.16898      558.19436      297.464       -0.064126251    0.001285786  
 103280000   71.276623      480.37017      551.64679      305.21636      0.014833643    0.001285786  
 103290000   58.821104      490.08033      548.90143      311.38597      0.015094739    0.001285786  
 103300000   81.696762      471.80459      553.50135      299.77398      0.0039505794   0.001285786  
 103310000   97.923415      457.55513      555.47854      290.7202       0.029614311    0.001285786  
 103320000   89.732194      440.66507      530.39726      279.98863     -0.055023773    0.001285786  
 103330000   107.76219      465.60542      573.36762      295.83517      0.059998864    0.001285786  
 103340000   78.00585       487.5056       565.51145      309.75005      0.053871642    0.001285786  
 103350000   47.6137        466.63694      514.25064      296.49057      0.022498572    0.001285786  
 103360000   76.724908      459.87502      536.59993      292.19421      0.067836992    0.001285786  
 103370000   95.169141      487.09145      582.26059      309.48691      0.010288894    0.001285786  
 103380000   99.942074      453.3026       553.24467      288.01823      0.019546259    0.001285786  
 103390000   98.961167      472.05735      571.01851      299.93458      0.0037342342   0.001285786  
 103400000   96.352931      477.40182      573.75476      303.33034     -0.088931134    0.001285786  
 103410000   103.14851      500.2043       603.35281      317.81852     -0.013392739    0.001285786  
 103420000   74.090061      465.60398      539.69404      295.83425     -0.0030916363   0.001285786  
 103430000   78.332141      483.10787      561.44001      306.95583      0.046564379    0.001285786  
 103440000   101.70201      453.03857      554.74058      287.85047      0.023947732    0.001285786  
 103450000   108.75337      464.31429      573.06766      295.01482     -0.031815717    0.001285786  
 103460000   78.158335      501.5561       579.71443      318.67742     -0.017397904    0.001285786  
 103470000   95.70291       491.61421      587.31712      312.36057      0.020138505    0.001285786  
 103480000   47.743759      454.58648      502.33024      288.83398     -0.030700992    0.001285786  
 103490000   83.912268      478.35161      562.26387      303.93381      0.02996984     0.001285786  
 103500000   81.156464      446.43556      527.59202      283.65507      0.0046551314   0.001285786  
 103510000   97.733439      470.90219      568.63563      299.20062     -0.089196273    0.001285786  
 103520000   92.877613      488.60826      581.48587      310.45065     -0.0011204119   0.001285786  
 103530000   92.889708      464.91416      557.80387      295.39596     -0.10402769     0.001285786  
 103540000   92.351854      451.08753      543.43938      286.61083     -0.006871585    0.001285786  
 103550000   106.20219      469.36634      575.56853      298.22478      0.044775237    0.001285786  
 103560000   83.643531      472.31599      555.95952      300.09891     -0.0388368      0.001285786  
 103570000   78.553671      473.17179      551.72546      300.64267      0.0075438899   0.001285786  
 103580000   95.849389      497.72488      593.57427      316.24315     -0.002720002    0.001285786  
 103590000   98.291872      484.09001      582.38188      307.57986     -0.0048519079   0.001285786  
 103600000   71.470023      462.80106      534.27109      294.05334     -0.04399607     0.001285786  
 103610000   93.14263       480.96003      574.10266      305.59114     -0.0021351965   0.001285786  
 103620000   82.890663      500.04063      582.93129      317.71452     -0.01449345     0.001285786  
 103630000   101.93715      478.69814      580.63529      304.15399      0.062451943    0.001285786  
 103640000   98.861759      493.7251       592.58685      313.70178      0.011118148    0.001285786  
 103650000   68.303633      493.87908      562.18271      313.79961      0.013394953    0.001285786  
 103660000   82.803898      441.35058      524.15448      280.4242       0.0007392824   0.001285786  
 103670000   108.73774      456.81492      565.55266      290.24988      0.0085210494   0.001285786  
 103680000   89.172225      469.41727      558.58949      298.25713     -0.00046168592  0.001285786  
 103690000   84.544969      454.43449      538.97946      288.73741      0.02012574     0.001285786  
 103700000   99.470855      435.74391      535.21477      276.86184      0.053024934    0.001285786  
 103710000   87.9237        453.06237      540.98607      287.8656       0.019732497    0.001285786  
 103720000   121.92504      458.85769      580.78273      291.54782     -0.015850254    0.001285786  
 103730000   121.53108      453.99667      575.52775      288.45923     -0.0068359782   0.001285786  
 103740000   129.37265      506.7304       636.10305      321.96505      0.09269051     0.001285786  
 103750000   86.563231      483.41578      569.97901      307.15147      0.038292298    0.001285786  
 103760000   117.66576      490.03811      607.70388      311.35915      0.00084163735  0.001285786  
 103770000   88.115213      473.78741      561.90263      301.03382      0.056850122    0.001285786  
 103780000   135.16695      487.66232      622.82928      309.84963      0.010699373    0.001285786  
 103790000   77.636923      496.69332      574.33024      315.58772     -0.035338117    0.001285786  
 103800000   100.46631      470.43765      570.90396      298.90546     -0.033142941    0.001285786  
 103810000   101.43023      458.90488      560.33511      291.5778      -0.038710029    0.001285786  
 103820000   110.63362      473.80199      584.4356       301.04308      0.05644677     0.001285786  
 103830000   106.15254      501.44905      607.60159      318.6094       0.029148657    0.001285786  
 103840000   101.80368      452.36748      554.17116      287.42408     -0.017641936    0.001285786  
 103850000   98.798421      453.65409      552.45251      288.24156     -0.041592948    0.001285786  
 103860000   124.59461      435.39914      559.99374      276.64278     -0.018692951    0.001285786  
 103870000   129.1056       491.54753      620.65313      312.3182      -0.0025281205   0.001285786  
 103880000   137.55675      440.24441      577.80116      279.72136      0.027152575    0.001285786  
 103890000   112.03874      459.59198      571.63072      292.01436     -0.012875193    0.001285786  
 103900000   129.10279      487.86866      616.97146      309.98073      0.014265161    0.001285786  
 103910000   143.22321      461.99585      605.21905      293.54173      0.10077281     0.001285786  
 103920000   111.9267       484.55955      596.48626      307.8782       0.051854909    0.001285786  
 103930000   153.20278      488.20246      641.40524      310.19282      0.13465469     0.001285786  
 103940000   114.62469      434.4986       549.12328      276.0706       0.021890587    0.001285786  
 103950000   122.63414      477.84719      600.48133      303.61332      0.017661233    0.001285786  
 103960000   110.26859      489.07532      599.34391      310.74741     -0.061328579    0.001285786  
 103970000   115.55537      496.92037      612.47573      315.73198     -0.067303205    0.001285786  
 103980000   111.93194      472.72281      584.65475      300.3574       0.094846245    0.001285786  
 103990000   92.264219      451.10565      543.36987      286.62235     -0.12844949     0.001285786  
 104000000   127.03179      497.50019      624.53198      316.10039      0.13849651     0.001285786  
 104010000   98.994216      471.84235      570.83657      299.79798      0.032638278    0.001285786  
 104020000   124.91233      476.73308      601.64541      302.90544      0.094104509    0.001285786  
 104030000   109.69446      485.11408      594.80855      308.23053     -0.012082575    0.001285786  
 104040000   104.22693      452.24194      556.46887      287.34432     -0.054337144    0.001285786  
 104050000   92.825048      479.45773      572.28278      304.63662     -0.086168429    0.001285786  
 104060000   133.25873      463.55422      596.81295      294.53188      0.022399233    0.001285786  
 104070000   111.66959      481.9528       593.62239      306.22193      0.037752301    0.001285786  
 104080000   110.67515      494.68923      605.36439      314.31437     -0.049279117    0.001285786  
 104090000   111.69562      491.85949      603.55511      312.51641      0.076586854    0.001285786  
 104100000   106.94444      462.95663      569.90107      294.15219     -0.015332978    0.001285786  
 104110000   130.06253      486.09796      616.16049      308.85567     -0.051760238    0.001285786  
 104120000   102.81586      479.93264      582.74849      304.93836     -0.013455252    0.001285786  
 104130000   106.69606      485.17316      591.86922      308.26807     -0.074448436    0.001285786  
 104140000   123.92633      436.20831      560.13464      277.15691      0.018032709    0.001285786  
 104150000   94.905961      449.5173       544.42326      285.61314      0.065798519    0.001285786  
 104160000   104.68989      486.24093      590.93083      308.94651      0.029506541    0.001285786  
 104170000   125.25554      504.65301      629.90855      320.64513      0.053575366    0.001285786  
 104180000   83.668633      485.40905      569.07769      308.41795     -0.026142858    0.001285786  
 104190000   90.808542      461.46286      552.27141      293.20308      0.090588749    0.001285786  
 104200000   115.24542      490.26294      605.50836      311.502        0.032675506    0.001285786  
 104210000   88.735268      450.98022      539.71549      286.54265      0.0049668422   0.001285786  
 104220000   104.87482      490.93037      595.80518      311.92607      0.004865376    0.001285786  
 104230000   109.32979      488.80951      598.1393       310.57853      0.044626759    0.001285786  
 104240000   89.936585      488.20312      578.13971      310.19324      0.017262617    0.001285786  
 104250000   60.672937      450.87837      511.55131      286.47794      0.030704532    0.001285786  
 104260000   57.928196      476.78011      534.7083       302.93531      0.024911219    0.001285786  
 104270000   90.269433      477.96291      568.23234      303.68684     -0.033107002    0.001285786  
 104280000   104.64136      481.07013      585.71149      305.6611      -0.070528202    0.001285786  
 104290000   78.674801      465.31919      543.99399      295.65331      0.054359209    0.001285786  
 104300000   84.095094      481.51671      565.6118       305.94484     -0.013267953    0.001285786  
 104310000   79.647235      472.49286      552.1401       300.2113       0.021691982    0.001285786  
 104320000   58.096027      482.01533      540.11136      306.26166      0.0060973284   0.001285786  
 104330000   84.780071      489.66687      574.44694      311.12327     -0.009121863    0.001285786  
 104340000   71.985624      486.23889      558.22452      308.94521     -0.017904407    0.001285786  
 104350000   110.79904      463.97645      574.77549      294.80016      0.022209873    0.001285786  
 104360000   93.748749      483.20591      576.95466      307.01812      0.035176487    0.001285786  
 104370000   80.620984      494.48311      575.10409      314.1834      -0.053885285    0.001285786  
 104380000   107.35712      464.68542      572.04253      295.25062      0.084900665    0.001285786  
 104390000   69.693971      470.43045      540.12442      298.90088     -0.033466189    0.001285786  
 104400000   104.72404      474.99598      579.72002      301.80172     -0.035530083    0.001285786  
 104410000   107.63834      481.55295      589.19129      305.96787     -0.048499125    0.001285786  
 104420000   87.269841      469.66125      556.93109      298.41215      0.046158413    0.001285786  
 104430000   120.03973      455.807        575.84673      289.60947     -0.066177915    0.001285786  
 104440000   78.759636      460.91978      539.67942      292.85802     -0.054347382    0.001285786  
 104450000   104.77236      488.11018      592.88254      310.13419     -0.025907147    0.001285786  
 104460000   123.34146      490.41383      613.75529      311.59787     -0.0036577735   0.001285786  
 104470000   100.00769      459.88293      559.89063      292.19923      0.011014689    0.001285786  
 104480000   95.828907      483.8151       579.64401      307.40519     -0.074126165    0.001285786  
 104490000   111.62351      469.91421      581.53772      298.57288     -0.067984727    0.001285786  
 104500000   101.53732      472.82391      574.36122      300.42163      0.038897998    0.001285786  
 104510000   99.049001      463.68031      562.72931      294.612        0.075395808    0.001285786  
 104520000   111.53265      467.58667      579.11932      297.09401     -0.0051483477   0.001285786  
 104530000   126.61401      464.64569      591.2597       295.22538      0.0031552875   0.001285786  
 104540000   95.691455      530.94404      626.6355       337.34986      0.05396565     0.001285786  
 104550000   136.83746      491.44162      628.27909      312.25091      0.0042879913   0.001285786  
 104560000   126.90907      474.44456      601.35364      301.45136     -0.013056016    0.001285786  
 104570000   127.48158      473.07443      600.556        300.58081      0.061133269    0.001285786  
 104580000   116.42497      463.98957      580.41454      294.8085       0.10987892     0.001285786  
 104590000   121.44581      527.77734      649.22315      335.3378       0.032649197    0.001285786  
 104600000   130.37434      431.47843      561.85277      274.15165      0.025147692    0.001285786  
 104610000   108.19242      487.10529      595.29771      309.4957       0.031403316    0.001285786  
 104620000   131.92689      469.23662      601.16352      298.14235      0.001107933    0.001285786  
 104630000   119.74493      447.48824      567.23317      284.32392      0.0042338114   0.001285786  
 104640000   141.29188      482.91591      624.20778      306.83386     -0.066601406    0.001285786  
 104650000   90.263253      444.96403      535.22729      282.7201       0.0072559421   0.001285786  
 104660000   78.739633      483.8453       562.58493      307.42438      0.016102005    0.001285786  
 104670000   100.67913      508.98486      609.66399      323.39749      0.11377456     0.001285786  
 104680000   113.18063      474.73895      587.91957      301.63841     -0.022301352    0.001285786  
 104690000   78.072675      477.81067      555.88334      303.59011      0.036276249    0.001285786  
 104700000   79.111693      456.254        535.36569      289.89349      0.085089865    0.001285786  
 104710000   107.5877       471.85483      579.44253      299.80591      0.034086866    0.001285786  
 104720000   110.55547      485.23606      595.79153      308.30804      0.069515226    0.001285786  
 104730000   129.05052      475.71917      604.76969      302.26122      0.048524994    0.001285786  
 104740000   104.57247      481.58245      586.15492      305.98662      0.12861663     0.001285786  
 104750000   133.25273      489.88166      623.13439      311.25974      0.062808572    0.001285786  
 104760000   131.39229      486.27551      617.66781      308.96848     -0.0078966385   0.001285786  
 104770000   91.571055      463.0019       554.57296      294.18095      0.0052134032   0.001285786  
 104780000   120.98637      474.3478       595.33417      301.38988      0.067823828    0.001285786  
 104790000   120.14804      458.08029      578.22833      291.05387      0.085491397    0.001285786  
 104800000   111.30297      493.87987      605.18284      313.80012      0.030603775    0.001285786  
 104810000   125.69808      474.1542       599.85228      301.26687     -0.072724896    0.001285786  
 104820000   113.38304      444.6092       557.99224      282.49465      0.019267296    0.001285786  
 104830000   103.83046      454.87051      558.70097      289.01445     -0.010565211    0.001285786  
 104840000   134.41268      496.08004      630.49272      315.19806     -0.044022328    0.001285786  
 104850000   116.47278      467.02557      583.49835      296.7375       0.062131294    0.001285786  
 104860000   133.37074      477.35211      610.72284      303.29875     -0.074943156    0.001285786  
 104870000   103.37924      464.16943      567.54867      294.92277      0.048233411    0.001285786  
 104880000   139.24194      466.22301      605.46496      296.22758      0.040749134    0.001285786  
 104890000   85.704866      439.76964      525.47451      279.4197       0.016502967    0.001285786  
 104900000   103.51446      478.22161      581.73607      303.85121      0.045287523    0.001285786  
 104910000   113.51772      442.30793      555.82565      281.03247     -0.01979131     0.001285786  
 104920000   84.114007      476.15228      560.26629      302.53641      0.051092881    0.001285786  
 104930000   116.41646      488.5338       604.95025      310.40334      0.028275537    0.001285786  
 104940000   106.90744      464.02261      570.93005      294.82949      0.012593536    0.001285786  
 104950000   119.3723       509.68656      629.05886      323.84333     -0.019788756    0.001285786  
 104960000   95.851164      489.80557      585.65674      311.2114      -0.039627445    0.001285786  
 104970000   118.46325      468.6882       587.15145      297.7939       0.10072673     0.001285786  
 104980000   91.943133      487.12162      579.06475      309.50608      0.017042223    0.001285786  
 104990000   111.17538      478.19034      589.36571      303.83134     -0.0070942875   0.001285786  
 105000000   115.99382      469.53161      585.52544      298.32978     -0.0030640074   0.001285786  
Loop time of 5549.34 on 8 procs for 100000000 steps with 529 atoms

Performance: 15569.420 ns/day, 0.002 hours/ns, 18020.162 timesteps/s, 9.533 Matom-step/s
99.5% CPU use with 8 MPI tasks x 1 OpenMP threads

MPI task timing breakdown:
Section |  min time  |  avg time  |  max time  |%varavg| %total
---------------------------------------------------------------
Pair    | 1426.6     | 1830.7     | 2384.4     | 678.3 | 32.99
Bond    | 158.55     | 231.75     | 310.9      | 268.7 |  4.18
Neigh   | 14.694     | 15.853     | 16.732     |  18.1 |  0.29
Comm    | 2581.4     | 3262.8     | 3770.7     | 608.5 | 58.80
Output  | 1.5099     | 1.7243     | 2.8672     |  33.0 |  0.03
Modify  | 106.78     | 146.37     | 192.71     | 191.7 |  2.64
Other   |            | 60.17      |            |       |  1.08

Nlocal:         66.125 ave         121 max          40 min
Histogram: 2 1 1 2 1 0 0 0 0 1
Nghost:             40 ave          53 max          25 min
Histogram: 1 1 0 1 1 0 1 1 0 2
Neighs:         208.75 ave         561 max          54 min
Histogram: 2 2 1 1 1 0 0 0 0 1

Total # of neighbors = 1670
Ave neighs/atom = 3.1568998
Ave special neighs/atom = 4.8431002
Neighbor list builds = 198378
Dangerous builds = 0

write_data outputs/${tag}_final.data
write_data outputs/1ANR_aso_n50_final.data
System init for write_data ...
Generated 0 of 6 mixed pair_coeff terms from geometric mixing rule
Total wall time: 1:37:01
