LAMMPS data file — single RNA C3' beads: GCGGCCAGCUCCAGGCCGCCAAACAAUAUGGAGCAC

36 atoms
35 bonds
34 angles

4 atom types
1 bond types
1 angle types

-500.600000     500.600000  xlo xhi
-500.600000     500.600000  ylo yhi
-500.600000     500.600000  zlo zhi

Masses

1 329.20
2 305.20
3 345.20
4 306.20

Atoms

1 1 3 0.000000 -12.876000 -1.321000 -38.000000
2 1 2 0.000000 -18.608000 -0.286000 -35.936000
3 1 3 0.000000 -21.753000 2.055000 -31.506000
4 1 3 0.000000 -22.998000 4.883000 -26.037000
5 1 2 0.000000 -21.852000 7.885000 -20.876000
6 1 2 0.000000 -18.985000 10.884000 -16.085000
7 1 1 0.000000 -24.005000 12.017000 -11.407000
8 1 3 0.000000 -28.830000 13.209000 -11.995000
9 1 2 0.000000 -29.422000 13.493000 -17.818000
10 1 4 0.000000 -27.348000 14.698000 -23.445000
11 1 2 0.000000 -23.229000 17.188000 -27.172000
12 1 2 0.000000 -17.593000 19.421000 -28.353000
13 1 1 0.000000 -11.465000 19.153000 -28.158000
14 1 3 0.000000 -8.307000 15.619000 -25.063000
15 1 3 0.000000 -7.752000 9.769000 -23.393000
16 1 2 0.000000 -9.340000 4.293000 -20.846000
17 1 2 0.000000 -12.611000 -0.799000 -20.323000
18 1 3 0.000000 -16.024000 -5.242000 -22.364000
19 1 2 0.000000 -16.476000 -9.767000 -26.182000
20 1 2 0.000000 -21.932000 -11.746000 -29.310000
21 1 1 0.000000 -26.288000 -8.138000 -26.566000
22 1 1 0.000000 -27.238000 -3.133000 -22.974000
23 1 1 0.000000 -26.169000 0.330000 -18.020000
24 1 2 0.000000 -24.855000 -0.182000 -12.508000
25 1 1 0.000000 -18.304000 -0.533000 -12.482000
26 1 1 0.000000 -13.571000 3.198000 -13.883000
27 1 4 0.000000 -10.489000 8.198000 -14.709000
28 1 1 0.000000 -11.704000 12.455000 -12.725000
29 1 4 0.000000 -13.340000 18.055000 -12.847000
30 1 3 0.000000 -14.068000 23.107000 -14.753000
31 1 3 0.000000 -18.085000 26.732000 -17.356000
32 1 1 0.000000 -23.352000 28.717000 -19.912000
33 1 3 0.000000 -29.225000 27.640000 -20.306000
34 1 2 0.000000 -34.345000 24.294000 -19.540000
35 1 1 0.000000 -37.769000 20.084000 -16.394000
36 1 2 0.000000 -39.799000 17.407000 -11.779000

Bonds

1 1 1 2
2 1 2 3
3 1 3 4
4 1 4 5
5 1 5 6
6 1 6 7
7 1 7 8
8 1 8 9
9 1 9 10
10 1 10 11
11 1 11 12
12 1 12 13
13 1 13 14
14 1 14 15
15 1 15 16
16 1 16 17
17 1 17 18
18 1 18 19
19 1 19 20
20 1 20 21
21 1 21 22
22 1 22 23
23 1 23 24
24 1 24 25
25 1 25 26
26 1 26 27
27 1 27 28
28 1 28 29
29 1 29 30
30 1 30 31
31 1 31 32
32 1 32 33
33 1 33 34
34 1 34 35
35 1 35 36

Angles

1 1 1 2 3
2 1 2 3 4
3 1 3 4 5
4 1 4 5 6
5 1 5 6 7
6 1 6 7 8
7 1 7 8 9
8 1 8 9 10
9 1 9 10 11
10 1 10 11 12
11 1 11 12 13
12 1 12 13 14
13 1 13 14 15
14 1 14 15 16
15 1 15 16 17
16 1 16 17 18
17 1 17 18 19
18 1 18 19 20
19 1 19 20 21
20 1 20 21 22
21 1 21 22 23
22 1 22 23 24
23 1 23 24 25
24 1 24 25 26
25 1 25 26 27
26 1 26 27 28
27 1 27 28 29
28 1 28 29 30
29 1 29 30 31
30 1 30 31 32
31 1 31 32 33
32 1 32 33 34
33 1 33 34 35
34 1 34 35 36
