LAMMPS data file via write_data, version 29 Aug 2024, timestep = 105000000, units = real

1032 atoms
4 atom types
931 bonds
1 bond types
830 angles
1 angle types

-80 80 xlo xhi
-80 80 ylo yhi
-80 80 zlo zhi

Masses

1 329.2
2 305.2
3 345.2
4 306.2

Bond Coeffs # harmonic

1 7.5 5.9

Angle Coeffs # harmonic

1 5 150

Atoms # full

910 89 4 0 11.069462276345229 -76.4336200750451 -79.42618808708205 2 3 -1
997 98 4 0 -46.89773426245394 -64.35282850623165 -70.47344661843425 1 1 6
996 98 2 0 -50.12717889893418 -68.8426724458705 -68.10948723684785 1 1 6
995 98 3 0 -51.17732875436216 -72.69972571302246 -63.18438536127447 1 1 6
527 51 4 0 39.89967204573083 -78.4236236194096 -77.55145816864511 -1 0 -1
609 59 4 0 -42.522202690924075 -78.80541937576885 -66.40638326739862 0 -2 -1
998 98 3 0 -43.12108377155477 -61.29689613012928 -67.35052166082104 1 1 6
999 98 4 0 -37.24541242282211 -61.79703580323465 -65.78161051383 1 1 6
1000 98 4 0 -32.19823710084526 -60.29325768951782 -62.90441987692841 1 1 6
610 59 4 0 -41.56713544711177 -74.95668241789733 -62.08556809167814 0 -2 -1
113 10 3 0 -24.46318515846677 -76.97007059604753 -68.70211657641396 -1 -1 -2
907 89 4 0 2.5192907753463385 -70.59638740083524 -68.30888923880255 2 3 -1
521 50 4 0 -5.915508321745214 -76.40643906588524 -77.592163322455 0 -1 0
906 89 2 0 -1.5610408811086556 -69.15664284807382 -63.953123613663344 2 3 -1
908 89 3 0 8.218964974777638 -72.18941564537096 -69.3860320343493 2 3 -1
909 89 4 0 11.108842216362914 -73.73278120359765 -74.26038466796358 2 3 -1
522 50 4 0 -10.471029889379754 -76.85459691152597 -73.84851535148475 0 -1 0
112 9 4 0 16.898357550308244 -75.4066860018837 -64.20517973924197 -2 1 2
721 70 4 0 -45.92961153048301 -1.4279407535993958 -79.76035313210221 -1 -2 1
528 51 3 0 44.78040052640313 -79.0277376884239 -73.62427186372581 -1 0 -1
532 51 4 0 57.698593391736146 -74.3293395271834 -72.0761432808242 -1 0 -1
531 51 4 0 56.79265361230265 -78.19454719732721 -67.47122207224955 -1 0 -1
262 24 4 0 -58.725082347886726 -56.95586482757314 -63.79747628652918 2 -5 2
261 24 4 0 -54.39528342123636 -54.19567541034377 -66.89664208031678 2 -5 2
260 24 4 0 -51.301484101883574 -50.73721514558051 -70.5949649966226 2 -5 2
259 24 4 0 -47.909451502465004 -52.86187001425434 -75.12252049847807 2 -5 2
691 67 4 0 -42.311273748881234 -42.590661714815674 -78.49671099959555 -1 -3 3
258 24 3 0 -42.190468702839794 -53.67244837390087 -77.01852712555221 2 -5 2
257 24 4 0 -36.88562298769552 -55.14815401557112 -75.98493254458161 2 -5 2
256 24 2 0 -31.79729345813845 -54.611321656644336 -72.00798541644495 2 -5 2
255 24 3 0 -27.67598277696512 -51.53098237459893 -69.2057623817051 2 -5 2
254 24 3 0 -27.25102104490678 -47.58810598479416 -64.88961129102223 2 -5 2
514 50 3 0 24.296438571386012 -54.11871988351269 -78.57089190802262 0 -1 0
429 41 4 0 13.733841909503255 -39.13522681532512 -61.650971150657455 -1 1 3
513 50 3 0 29.353627825805418 -53.57022340610525 -75.46306173015819 0 -1 0
487 47 4 0 -75.50020669348896 -28.662567185552724 -65.1702987067002 0 -2 4
488 47 3 0 -69.91537419668606 -30.47440729208945 -64.07156722452193 0 -2 4
486 47 2 0 79.465144704993 -28.786528152347564 -68.45918586023886 -1 -2 4
489 47 4 0 -65.98934677498112 -30.492124072746048 -68.36322641963316 0 -2 4
490 47 4 0 -60.58594167212371 -31.256564778461872 -69.50034031641474 0 -2 4
491 47 4 0 -55.65233994396226 -29.681806383343446 -66.60786444840862 0 -2 4
492 47 4 0 -51.579208097420505 -27.37846428165328 -63.16832449977673 0 -2 4
692 67 4 0 -42.74423716716233 -40.183825346361616 -72.72950961998787 -1 -3 3
428 41 3 0 10.879890842723267 -38.64880485924515 -66.60483653039536 -1 1 3
427 41 4 0 8.941291960427435 -35.01965882910755 -71.20420977659745 -1 1 3
426 41 2 0 9.941051261731841 -30.841536718297352 -75.08003367724912 -1 1 3
170 15 4 0 21.091331387681958 -31.358640937635858 -76.23874003398737 -1 -2 1
168 15 3 0 19.841426164240605 -28.73629317529639 -65.6978420111732 -1 -2 1
169 15 4 0 19.02027779321803 -31.30225794729646 -70.99055841256066 -1 -2 1
167 15 4 0 18.171508581985677 -28.77594878057264 -60.106587073740435 -1 -2 1
942 92 4 0 44.580194388840994 -34.83942840071741 -59.81012779152221 0 2 2
601 58 4 0 48.290706348183825 -27.295852699947126 -73.7291319434903 -2 -2 0
602 58 4 0 44.61080016280055 -30.92118190101985 -76.41630989582386 -2 -2 0
485 47 3 0 73.93887687913761 -29.268215227314133 -70.3037175229002 -1 -2 4
483 47 3 0 63.992103072882465 -29.139348794708276 -73.79945739023938 -1 -2 4
484 47 3 0 69.67041522422555 -30.97246101719592 -74.07577820271258 -1 -2 4
598 58 3 0 42.2116989355766 -13.012568186152047 -79.04078200740244 -2 -2 0
599 58 4 0 45.62831063079971 -16.360065740541245 -76.0445764631277 -2 -2 0
600 58 4 0 48.071529938019346 -21.2765762866036 -74.28864219769024 -2 -2 0
864 85 3 0 -73.65491475931306 -67.81641497074969 -44.8819237564593 -2 1 0
863 85 3 0 -77.04315244400058 -72.36345463886626 -47.10193112596922 -2 1 0
865 85 3 0 -74.0525967501829 -62.0892524820396 -43.23573892428701 -2 1 0
994 98 3 0 -52.94990683440016 -75.5823209658153 -58.76967741818935 1 1 6
993 98 3 0 -52.86932833118789 -76.56859892881069 -53.246503930443716 1 1 6
612 59 4 0 -43.36251527347098 -66.52235306154097 -54.51159647210711 0 -2 -1
611 59 4 0 -42.91293426103936 -71.01499966094721 -57.892492261578674 0 -2 -1
903 89 3 0 -12.227735109147151 -76.24666375215439 -53.49454815164207 2 3 -1
541 52 4 0 -19.327169984340845 -55.62538903290283 -38.649578490115 1 -1 -1
904 89 3 0 -8.928348642727418 -72.4434144059098 -56.14641708769743 2 3 -1
905 89 3 0 -4.109349535038981 -72.77360736806418 -59.857041923825456 2 3 -1
382 36 4 0 -71.01466329574588 -61.96643398735146 -55.083160735142535 1 -1 1
381 36 4 0 -75.91103981429862 -58.47602317066599 -54.66988813198776 1 -1 1
204 19 3 0 -72.53386726775436 -43.20014364247599 -52.72834451863615 0 -1 -3
203 19 3 0 -78.23772726018613 -44.7782918987647 -52.67844483516702 0 -1 -3
205 19 3 0 -67.60402292956847 -41.397164602675915 -49.631631593166745 0 -1 -3
206 19 2 0 -63.922529103032645 -40.020933770325975 -44.83954858970782 0 -1 -3
253 24 3 0 -30.025356160240097 -44.907895892161555 -60.632631025410895 2 -5 2
1001 98 4 0 -31.938765818671197 -56.74225151778071 -57.90965594849925 1 1 6
1002 98 4 0 -35.72059427766319 -52.18091376705522 -56.022650925426326 1 1 6
473 46 3 0 -24.44540427625188 -49.91663236566325 -48.36001734280039 0 1 0
474 46 3 0 -21.774830657114038 -45.82813420922115 -45.43104922828344 0 1 0
475 46 3 0 -20.26161228649168 -42.441103300190335 -41.4537440936535 0 1 0
542 52 4 0 -22.856231317218683 -58.44374784312874 -43.01641460704508 1 -1 -1
539 52 4 0 -8.309923314487989 -54.44069381725433 -37.7487784117127 1 -1 -1
430 41 4 0 13.448925603121967 -41.900030460509434 -56.28589381533468 -1 1 3
431 41 4 0 15.215995867517625 -42.96259802634818 -50.93791134997202 -1 1 3
432 41 4 0 17.945704019309247 -47.11896045662361 -47.625570834942394 -1 1 3
825 81 3 0 29.640959015242995 -53.56373117545673 -40.50287783111755 -1 1 -1
824 81 3 0 25.414618956313483 -50.04305436172925 -38.95443798248543 -1 1 -1
826 81 2 0 33.962202589039514 -57.21649408807175 -40.40590200641981 -1 1 -1
827 81 4 0 39.70392918156275 -58.57988729388882 -40.037204725271806 -1 1 -1
471 45 4 0 59.3664790361786 -55.541180332124924 -48.19166160787651 1 1 -3
472 45 4 0 58.79134065233535 -54.26241997650295 -53.89854715784359 1 1 -3
470 45 4 0 57.584592146090216 -54.64364411153847 -42.55805667559383 1 1 -3
378 36 3 0 75.38519593384837 -58.47768907755704 -42.594298542467044 0 -1 1
380 36 4 0 79.80352781262879 -55.45802964447006 -52.56803669812041 0 -1 1
379 36 4 0 75.9300749333829 -56.54301992633638 -48.11084873792272 0 -1 1
53 4 3 0 67.36931003631909 -44.88840075790761 -45.54474222433784 4 4 -3
388 37 3 0 -66.37021235819395 -26.31395613349507 -45.893137912744606 -1 -3 -3
389 37 4 0 -61.86563088462791 -27.97454783308749 -49.21091901167371 -1 -3 -3
392 37 4 0 -57.62146099399318 -39.70733210019007 -60.735375026946905 -1 -3 -3
391 37 4 0 -60.392138508220064 -36.163135508912596 -56.379215561683665 -1 -3 -3
390 37 4 0 -58.82595660341779 -31.517588475020535 -53.24958984017881 -1 -3 -3
207 19 4 0 -61.75331926064108 -37.24210423077942 -39.85228815159775 0 -1 -3
288 27 3 0 -21.87389824787481 -19.397227592490193 -41.5309224910018 -5 -4 -3
163 15 3 0 4.79241637276866 -35.150242575870415 -44.388573868250226 -1 -2 1
164 15 3 0 9.730174318355482 -32.95566751789435 -46.30533348782141 -1 -2 1
165 15 3 0 13.997525016865621 -31.609605213390804 -50.19360485638268 -1 -2 1
166 15 2 0 14.915621376969442 -31.551763255926573 -55.959957149643 -1 -2 1
940 92 4 0 43.02557027671623 -24.916147493273424 -53.288923222757774 0 2 2
939 92 4 0 45.14030524718649 -19.90236591291896 -49.92327345326036 0 2 2
941 92 4 0 43.04753609143173 -29.89315559831256 -57.175087624156895 0 2 2
937 92 4 0 51.1782721922065 -23.802126205942063 -42.33678712215561 0 2 2
936 92 2 0 52.332552775964686 -29.64764174385696 -40.70869695832832 0 2 2
938 92 3 0 48.354597641162385 -19.48972113443779 -44.82284946154982 0 2 2
384 37 3 0 76.45214861828391 -26.90950548619895 -39.637863211199964 -2 -3 -3
385 37 3 0 78.80507721441741 -30.870165419258424 -42.744808297126106 -2 -3 -3
568 55 3 0 -48.164617967304395 -1.3052656743013067 -49.513311696747536 1 -3 3
569 55 4 0 -48.146171327925906 -4.561772422185047 -45.12531421422198 1 -3 3
570 55 4 0 -44.96410693723331 -9.376165687357878 -43.3012770565794 1 -3 3
312 29 4 0 62.72471636453979 -3.7122055534169522 -50.906337192504196 1 -1 5
932 91 4 0 63.21604536563167 -7.6728519415499035 -36.60389088262433 0 0 -2
311 29 4 0 68.08474106921699 -0.7588710238761921 -49.622758868193685 1 -1 5
500 48 4 0 -65.38134015771692 -77.21451622922196 -25.13336705944833 -1 3 2
374 36 3 0 -75.7489003249914 -64.68056520804 -26.92795550442578 1 -1 1
373 36 3 0 -71.51858201958659 -67.92987345636183 -28.95317405982215 1 -1 1
972 95 4 0 66.08394412523889 -18.696686287320038 -7.749281773144677 -2 -1 0
498 48 3 0 -57.201161598861376 -77.88924392929665 -32.699956058056884 -1 3 2
499 48 4 0 -61.71038712975093 -75.66870968771383 -29.23477402090298 -1 3 2
894 88 3 0 -47.99660122086053 -76.16345003533726 -26.49597483006826 3 3 -2
893 88 3 0 -42.59833515942578 -74.03501504286238 -28.43493520143151 3 3 -2
482 46 4 0 -3.935754187305331 -64.9645472097898 -23.59926087933146 0 1 0
464 45 3 0 42.383118551817 -67.04827038188242 -22.086198810153054 1 1 -3
463 45 3 0 38.17037447417208 -70.55245282634377 -24.010829385147847 1 1 -3
465 45 3 0 46.24491440109999 -62.07428341412332 -22.433869302006496 1 1 -3
828 81 3 0 45.37712619497501 -60.39947765888689 -38.67321774282944 -1 1 -1
829 81 4 0 49.6647917150329 -63.04768982662987 -35.942557042670245 -1 1 -1
830 81 4 0 52.549678792111585 -65.93493860727443 -31.780496554771123 -1 1 -1
831 81 4 0 54.77163531533822 -68.68832808176495 -27.123129073919124 -1 1 -1
832 81 4 0 54.839632382476104 -69.45046391763616 -21.438358610579634 -1 1 -1
375 36 3 0 78.66995735485534 -63.166404681357115 -27.912643722947124 0 -1 1
376 36 2 0 75.52115302646544 -60.41521598834241 -31.420783251658516 0 -1 1
866 85 2 0 -75.13403121247501 -58.044825886685544 -39.28816965931379 -2 1 0
867 85 4 0 -73.77734218827328 -53.869906450952065 -34.592561842743834 -2 1 0
868 85 3 0 -76.44572855417658 -52.76521014862158 -29.712275005178157 -2 1 0
869 85 4 0 78.64222402599778 -53.76623565169439 -25.717169693127264 -3 1 0
540 52 4 0 -14.31473458580009 -53.93157622461124 -37.15204818475961 1 -1 -1
476 46 2 0 -17.60022518938748 -42.835529263050496 -36.334524489062545 0 1 0
478 46 3 0 -10.125577870821115 -47.942036760260905 -29.658578842432014 0 1 0
477 46 4 0 -13.46125636294661 -45.18405510716004 -32.88225230856844 0 1 0
479 46 4 0 -8.14649834569105 -50.42814755981845 -24.67009030131366 0 1 0
538 52 3 0 -3.3554878721848636 -52.406027295382295 -38.82618474752017 1 -1 -1
480 46 4 0 -6.160226703390781 -53.992653692431894 -20.407834268934586 0 1 0
537 52 4 0 1.8875772767520285 -53.522188614603536 -36.63726994892513 1 -1 -1
481 46 4 0 -6.139463047458898 -59.71595009945923 -20.759027865966377 0 1 0
536 52 2 0 6.851498111196783 -53.375294266116946 -33.153234942909336 1 -1 -1
823 81 3 0 20.530454613499387 -47.29655086117807 -38.137409892707865 -1 1 -1
535 52 3 0 9.717378506665009 -53.29190021257167 -28.033281612680963 1 -1 -1
534 52 3 0 12.978692376306517 -48.340323575859074 -27.43457981558131 1 -1 -1
533 52 3 0 18.36267676365639 -46.714217515639966 -27.753586648807527 1 -1 -1
466 45 2 0 49.79430017026632 -58.22700246025711 -25.631698318927427 1 1 -3
467 45 4 0 49.214095857356405 -52.57742196338709 -28.64396267913751 1 1 -3
469 45 4 0 56.413727788764625 -54.48533416366125 -37.093195470753194 1 1 -3
468 45 3 0 51.61439214569617 -53.1455258869113 -34.11655991719614 1 1 -3
54 4 3 0 68.26581151820756 -43.06618249662131 -39.71808009071112 4 4 -3
377 36 4 0 73.51334054924197 -60.124243449572916 -36.93401223565207 0 -1 1
870 85 4 0 74.49604076398954 -51.941688918506834 -21.67774571980659 -3 1 0
55 4 3 0 71.56755767170412 -41.53057577056745 -35.17109886923972 4 4 -3
871 85 4 0 72.46464823251237 -50.75353782692257 -16.276786759315346 -3 1 0
387 37 4 0 -70.86986621026779 -28.436910225682883 -42.655941732246866 -1 -3 -3
386 37 2 0 -75.45395468966117 -32.175107611780646 -43.43538179919141 -1 -3 -3
209 19 4 0 -57.76245185391332 -33.3591581538699 -29.37208813737897 0 -1 -3
208 19 3 0 -59.75508619072791 -36.552444214694106 -34.478174291634545 0 -1 -3
210 19 4 0 -56.655310328110986 -27.822385020637913 -27.009702698751685 0 -1 -3
211 19 4 0 -52.38378851543668 -25.595105358302035 -23.74606944854514 0 -1 -3
212 19 4 0 -49.77317716341722 -25.051024665413642 -18.37502209834526 0 -1 -3
292 27 4 0 -36.793397397497586 -24.405101716285852 -30.584120004852608 -5 -4 -3
289 27 4 0 -27.40164366838553 -17.898245759166024 -40.096611870295625 -5 -4 -3
543 53 3 0 -24.255526523708212 -30.295717021921426 -30.5322552464439 1 -1 1
546 53 2 0 -9.856846464516591 -31.011999093451845 -35.551328022359804 1 -1 1
545 53 3 0 -14.766291634902363 -33.844568562696374 -34.76588979574583 1 -1 1
544 53 3 0 -19.62204027066113 -32.819208168766814 -31.84088181713565 1 -1 1
287 27 4 0 -16.53896314524403 -20.87444686444593 -40.007476438491146 -5 -4 -3
286 27 2 0 -11.922806243850625 -20.074805408366657 -36.60385460046736 -5 -4 -3
547 53 4 0 -5.298975144547006 -27.431939588353032 -34.199867141526305 1 -1 1
548 53 3 0 -1.264276644822554 -24.88697463799409 -37.94450770408906 1 -1 1
856 84 2 0 45.88088367916539 -24.44528048976004 -31.888887805131308 -2 1 -1
857 84 4 0 41.056646406770824 -26.56133939032537 -28.988637391223126 -2 1 -1
858 84 3 0 36.40354689153542 -25.219796351013994 -25.42575614329185 -2 1 -1
933 92 3 0 46.22648298251058 -44.13419933551797 -35.19027307869759 0 2 2
855 84 3 0 49.426524293432024 -20.57626824101924 -30.82476492577925 -2 1 -1
934 92 3 0 46.24485238756132 -39.0853898137251 -37.74693358759616 0 2 2
935 92 3 0 49.936423340802754 -34.54588397833383 -37.90725407594486 0 2 2
928 91 3 0 59.207211768144774 -27.648087144859886 -30.812743537378424 0 0 -2
929 91 4 0 61.51208353361239 -22.278396336613955 -30.09531705911779 0 0 -2
927 91 4 0 54.25950778934532 -31.449588829780662 -29.24904575086112 0 0 -2
926 91 2 0 49.959695015556406 -33.28637138840358 -25.321459748377023 0 0 -2
383 37 3 0 73.3163507839953 -21.86598589519897 -39.19739977556832 -2 -3 -3
56 4 2 0 75.71304978848804 -38.72596043267014 -31.990631938213284 4 4 -3
60 4 4 0 66.4253819960336 -26.637753481223548 -20.50919078401763 4 4 -3
57 4 4 0 76.87138763304115 -34.769059760208705 -27.954664432211278 4 4 -3
58 4 3 0 75.96908080059323 -29.22185517773108 -25.741612278037653 4 4 -3
59 4 4 0 71.08332546718769 -26.15511155139963 -23.952878207469485 4 4 -3
571 55 4 0 -43.566239032835526 -12.161883785383697 -38.7892884599406 1 -3 3
572 55 4 0 -39.09310154886754 -13.156799224401682 -35.80719831701168 1 -3 3
291 27 4 0 -32.81289517531442 -19.66860715841931 -31.213667349286208 -5 -4 -3
290 27 4 0 -30.175733225275916 -16.494004853442398 -35.1540982388765 -5 -4 -3
19 2 4 0 -30.155332135194826 -2.4268353788129096 -19.78144136630833 -1 0 0
283 27 3 0 -13.716211259866624 -12.490854703461796 -22.627390868787316 -5 -4 -3
284 27 3 0 -14.59833968298709 -17.86347740057194 -25.751148431195936 -5 -4 -3
285 27 3 0 -14.030802745441347 -18.68590588548888 -31.245057868684633 -5 -4 -3
52 3 4 0 -4.778854411786127 -19.50266313258698 -22.92209854354994 3 1 -1
51 3 4 0 -2.608409525346393 -15.017164008325077 -25.589068968411212 3 1 -1
50 3 4 0 -0.6903396768329053 -9.427849523241747 -26.142069358501676 3 1 -1
49 3 4 0 -0.4408191914400597 -3.71591290619301 -23.37095894178401 3 1 -1
549 53 4 0 -0.274792050489296 -19.30579046351808 -39.40890196497453 1 -1 1
550 53 4 0 2.202670530656857 -15.29688146007808 -35.85226333758055 1 -1 1
551 53 4 0 6.495268701687798 -11.374060112156227 -36.24238191458679 1 -1 1
552 53 4 0 8.18164861237674 -5.864784882022658 -36.24338248904088 1 -1 1
180 16 4 0 27.36079890856721 -15.377807024711489 -25.488105201636426 -1 -3 -4
181 16 4 0 30.82080588645936 -10.606505124369026 -26.70263179089474 -1 -3 -4
182 16 4 0 32.88945281746397 -7.599199094466316 -31.089872249367573 -1 -3 -4
854 84 3 0 53.27082597547413 -18.136572744587138 -26.748593665491107 -2 1 -1
853 84 3 0 52.19297702971839 -16.66068631933034 -21.094344828234203 -2 1 -1
930 91 4 0 63.31949994810352 -16.88286428619089 -30.038543469468323 0 0 -2
931 91 4 0 61.54614827342701 -11.879433725424327 -32.86967382604705 0 0 -2
520 50 4 0 -2.152121368286218 -72.17012778087185 -78.66528998160955 0 -1 0
882 86 4 0 -32.82237801268724 -76.32625624049221 -3.7029880951781027 0 3 1
881 86 4 0 -33.91690829343562 -71.58620616915866 -6.86561372228478 0 3 1
880 86 4 0 -30.99997663496854 -67.79270033388875 -11.090562189573399 0 3 1
879 86 4 0 -26.824602641200144 -64.42528343998295 -13.234240732792157 0 3 1
352 33 4 0 -25.058950750898838 -75.34501946656029 -18.73076130351094 -1 -2 0
349 33 4 0 -20.15153848337384 -77.35508039251243 -6.182644438318582 -1 -2 0
351 33 4 0 -23.037861345609553 -79.71186524466422 -15.931982761112605 -1 -2 0
878 86 3 0 -20.705139574425566 -64.06744770665895 -13.219849028557814 0 3 1
877 86 4 0 -15.606419854953522 -66.82513546744734 -12.330020445312854 0 3 1
876 86 2 0 -13.145545232619847 -71.76550308820214 -10.510503762358775 0 3 1
179 16 4 0 24.354104655705473 -17.008266581889448 -20.695257458197034 -1 -3 -4
975 96 3 0 -10.574756030951841 -60.61840894811627 -2.8885146444082928 -1 2 3
875 86 3 0 -7.776001080069533 -73.85283073373151 -12.240246147644358 0 3 1
874 86 3 0 -3.6723831203098793 -77.682462664547 -12.751749262670486 0 3 1
976 96 2 0 -10.257061224030496 -66.69237329793492 -0.9935034038223851 -1 2 3
952 93 4 0 -41.914115635916346 -41.46942522800528 -7.828188937356161 1 -2 0
770 75 4 0 -28.08513243895818 -54.96312453567369 -2.251395675552473 3 2 -1
771 75 4 0 -23.04917834645751 -53.433249668998016 -4.391325224890464 3 2 -1
772 75 4 0 -19.275818380205543 -48.891099411142655 -5.26185683485999 3 2 -1
974 96 3 0 -8.965041670870741 -55.67485268084534 -5.5905971474179665 -1 2 3
973 96 3 0 -5.914834974636873 -50.92492444449106 -5.5613483423798 -1 2 3
872 85 4 0 67.63417060256577 -52.82816508228551 -13.323012490530632 -3 1 0
604 59 3 0 -68.55348303150123 -79.86298649794989 -68.04216936882511 0 -2 -1
951 93 4 0 -40.85094703812996 -36.154614979896316 -9.425587449376884 1 -2 0
949 93 4 0 -39.27618223186064 -26.348471651426472 -14.61070094386334 1 -2 0
950 93 4 0 -40.80724355345178 -31.963852422107205 -13.083375929679331 1 -2 0
948 93 3 0 -41.50371145041073 -21.027762861726476 -13.329317931428271 1 -2 0
393 38 3 0 -14.553826601278223 -24.845074950213416 -18.242222488506187 -1 -2 -2
394 38 3 0 -12.483248457871998 -28.58967645758829 -14.080128544043133 -1 -2 -2
395 38 3 0 -12.901457863078361 -31.495437064056528 -8.879139932450244 -1 -2 -2
396 38 2 0 -13.116470286368298 -32.3333260030348 -2.9225461121146488 -1 -2 -2
861 84 4 0 33.67550924646314 -25.042565936818928 -10.781186847150149 -2 1 -1
859 84 4 0 34.59986694996796 -23.016707486879326 -21.0329080677785 -2 1 -1
860 84 4 0 33.91770567198816 -21.419661462978492 -15.497260387319905 -2 1 -1
862 84 4 0 34.84237146632425 -27.642714022978826 -5.436066962245366 -2 1 -1
924 91 3 0 46.83250968938704 -27.00804950622422 -16.290911523651463 0 0 -2
923 91 3 0 48.09833561858023 -21.95763236793865 -14.097652444521074 0 0 -2
223 21 3 0 44.32715747522693 -32.36270791783115 -1.5933667097757611 0 -1 0
925 91 3 0 47.53159140647392 -31.184678730441053 -20.257186759298666 0 0 -2
62 4 4 0 57.849628340673114 -29.053823361106417 -13.444770876327857 4 4 -3
224 21 3 0 49.14243586841481 -35.53855996917725 -2.1049547091748138 0 -1 0
225 21 3 0 54.77313191349267 -33.87642450686647 -2.232518656680721 0 -1 0
226 21 2 0 60.27446027424332 -36.36423025531138 -1.474659402654566 0 -1 0
61 4 4 0 61.764593267105894 -29.24672989141467 -17.47070195915414 4 4 -3
24 2 2 0 -50.89749620284817 -10.594664124557543 -3.622328106645284 -1 0 0
23 2 2 0 -48.06183835005454 -7.823726035684731 -7.658657244390041 -1 0 0
971 95 4 0 66.77041033261165 -16.99743305730852 -2.539141352297058 -2 -1 0
20 2 2 0 -32.69997117547861 -3.970747690339522 -14.547448131230116 -1 0 0
21 2 1 0 -38.03017828936532 -3.3975548048001913 -12.194777921005576 -1 0 0
947 93 4 0 -42.721290447049604 -17.490206069009627 -9.044675414171142 1 -2 0
22 2 3 0 -43.66920658810809 -5.38633956247437 -11.288913435131901 -1 0 0
946 93 2 0 -38.76199961406063 -16.46070477549322 -4.629716201039919 1 -2 0
1017 100 4 0 -21.626422391763395 -3.750438574117594 -7.016438682121018 -3 0 -3
945 93 3 0 -37.37995189507343 -12.051774040628201 -0.9688958987744537 1 -2 0
1018 100 3 0 -16.847081118137258 -5.497633048681274 -4.3840952373701505 -3 0 -3
1019 100 4 0 -14.656974002578066 -9.680314562573523 -0.5188413425094984 -3 0 -3
176 16 2 0 18.365025445085198 -21.064361184120777 -7.813677912078686 -1 -3 -4
177 16 4 0 18.022056118043572 -19.648462785016534 -13.316374112691749 -1 -3 -4
178 16 3 0 20.578712512686298 -20.624345405792717 -18.419570467473555 -1 -3 -4
175 16 3 0 16.571220741583353 -21.865699995434873 -2.5828656634024147 -1 -3 -4
348 33 3 0 -19.208101269472902 -72.63172359373503 -2.6438055182138442 -1 -2 0
25 2 2 0 -50.6100126197876 -15.233519487972 -0.2623307034644229 -1 0 0
123 11 3 0 -54.219577938769795 -69.14556122770917 -79.33462617393597 0 3 3
592 57 4 0 -69.27947945173459 -35.99280370198681 -79.16322448624364 -4 -5 -1
977 96 4 0 -6.358052709535648 -71.13032815252613 -0.704344191895146 -1 2 3
560 54 4 0 -67.9384484997492 -69.31195779532268 11.19278446773289 0 0 2
559 54 4 0 -64.72698002915547 -74.18938274630229 11.655921328703622 0 0 2
558 54 3 0 -66.14178909119013 -78.26369018458911 15.543676348549159 0 0 2
561 54 4 0 -69.92234318130667 -67.33147483549827 6.065035567125945 0 0 2
562 54 4 0 -69.06910854523956 -62.05031967510273 3.9395100857948067 0 0 2
798 78 3 0 -43.26428512081981 -66.41072093914873 7.3748541005766075 2 0 -2
799 78 4 0 -43.652023606184116 -60.56386880361947 5.282788574452671 2 0 -2
796 78 2 0 -43.150476431359934 -76.07024779324789 13.801388208378185 2 0 -2
797 78 4 0 -43.34394330070567 -71.86702745156724 9.98129964286866 2 0 -2
795 78 3 0 -43.77606544930373 -76.78160564887345 19.589751500909067 2 0 -2
347 33 4 0 -20.31700883214884 -69.42234506205132 2.2641542874891374 -1 -2 0
704 69 3 0 -14.439913802576543 -73.64459248305717 13.771741096206794 2 3 -3
703 69 3 0 -19.346574578735684 -75.42579682743411 16.526738749251116 2 3 -3
346 33 2 0 -20.210573734867832 -64.49179024785364 5.092171814381342 -1 -2 0
788 77 3 0 36.45461151875461 -78.2994599836449 10.525653315012786 -2 0 -3
705 69 3 0 -10.19184186611353 -69.89226474345102 12.752487136449018 2 3 -3
980 96 4 0 2.42715539668495 -77.47693579371297 12.787340458937962 -1 2 3
706 69 2 0 -7.615261158434787 -65.96629257104841 9.32087203896201 2 3 -3
979 96 4 0 -1.4624120245255627 -77.4920198129283 8.126669405239923 -1 2 3
978 96 3 0 -4.790897115280472 -74.39508073478778 4.584953996166775 -1 2 3
981 96 4 0 3.2998340625344236 -74.28037252427647 17.665779772333764 -1 2 3
672 65 4 0 43.45984644550096 -0.7686526717839928 65.1978398696413 -3 0 5
787 77 4 0 40.13709634003922 -74.06351005784833 12.653244807442178 -2 0 -3
671 65 4 0 48.2664305758679 -0.5070702331845621 68.65444710150956 -3 0 5
786 77 2 0 44.98569777488047 -70.90546115869839 14.409412415743125 -2 0 -3
785 77 3 0 47.711921327982665 -67.89282670755412 18.595304696490555 -2 0 -3
88 7 3 0 55.07528733269571 -74.864628424806 9.62598681714119 -1 -1 5
89 7 4 0 54.21848459280054 -69.49391415256979 6.826660353680691 -1 -1 5
90 7 4 0 50.771370500894626 -64.80364133424425 5.633731060730889 -1 -1 5
87 7 4 0 52.71251658490017 -79.4051481785703 12.282776596371974 -1 -1 5
91 7 4 0 50.32670993683892 -59.787155948097144 8.63349118470686 -1 -1 5
783 77 3 0 58.543916975203416 -69.12116263351461 21.280228604723636 -2 0 -3
784 77 3 0 53.16036796709406 -67.34958708296053 19.417297672019128 -2 0 -3
595 58 3 0 35.319201590710826 -18.064954792814405 68.28979128961893 -2 -2 -1
954 94 3 0 -76.77945035951198 -46.64143484037006 9.840952256155077 3 0 1
955 94 3 0 -72.51112818251475 -42.657020349087496 10.696624382475447 3 0 1
956 94 2 0 -71.00524796797876 -38.0395721483191 13.296475212993009 3 0 1
953 94 3 0 78.2900964438824 -48.17399311086522 12.745291281136609 2 0 1
801 78 4 0 -53.19302858075542 -54.26921017209741 5.711296145827979 2 0 -2
802 78 4 0 -57.891804825202456 -51.28478213199737 6.673703853610777 2 0 -2
800 78 4 0 -47.21831073299905 -55.67655104209323 5.299890066139584 2 0 -2
767 75 4 0 -38.3301716011832 -51.30626718030045 9.733333858383073 3 2 -1
766 75 2 0 -36.725281829060194 -45.80099003722446 10.723395336600907 3 2 -1
768 75 3 0 -35.404608303095095 -55.029143377106124 6.720950181999717 3 2 -1
769 75 4 0 -32.569633795339726 -54.61535848839417 1.6975454243786827 3 2 -1
765 75 3 0 -34.484937418868725 -41.56114725135637 14.31511515565866 3 2 -1
345 33 3 0 -18.76420206679075 -58.860584130627444 7.395964389356412 -1 -2 0
344 33 3 0 -15.324944780131519 -54.48139111598696 8.6388657921689 -1 -2 0
343 33 3 0 -13.051211405760345 -49.110239092049 11.043439848623619 -1 -2 0
710 69 4 0 6.378699728456761 -52.60107025587442 11.81608779636165 2 3 -3
709 69 4 0 0.634861484446557 -52.136088651929704 9.377095317946601 2 3 -3
707 69 4 0 -6.550532493209805 -60.32545918076319 7.2023475069181435 2 3 -3
708 69 3 0 -3.130380669232406 -55.69956011957144 6.033218394027689 2 3 -3
711 69 4 0 11.615367009967272 -50.288445644139365 10.481214873584761 2 3 -3
712 69 4 0 13.568392864488619 -45.207046262195526 8.546431549867807 2 3 -3
441 42 4 0 46.15490755743685 -47.170985237877595 8.20037407389604 -2 4 1
442 42 4 0 48.122610538617955 -51.1649196951736 4.601542049340831 -2 4 1
92 7 4 0 50.96622431076252 -56.56253090590078 13.653562786340634 -1 -1 5
440 42 4 0 45.44534347303493 -40.945321655599614 7.777055212457481 -2 4 1
957 94 4 0 -67.91527379201162 -34.31728287970195 16.56144986557233 3 0 1
958 94 3 0 -64.79193125306672 -34.597007468805515 21.307543358217686 3 0 1
231 21 4 0 -75.58045010384392 -30.684382808515124 4.77994086025734 1 -1 0
32 2 1 0 -48.85005898026714 -38.569123418841116 17.790211191004552 -1 0 0
31 2 1 0 -45.916933328936786 -33.544343584747544 16.446363242424045 -1 0 0
30 2 2 0 -44.73431838311879 -31.10529565353287 11.32444346605972 -1 0 0
29 2 1 0 -41.51158969425147 -27.46292248711861 8.236485920979172 -1 0 0
764 75 3 0 -34.02770842147007 -36.89895672891916 17.856637586965 3 2 -1
28 2 1 0 -39.7333321945233 -21.890087951529004 7.640415412993368 -1 0 0
397 38 4 0 -11.540351418279766 -31.302433380914547 2.8308897082300555 -1 -2 -2
398 38 3 0 -8.65119078738305 -29.945842968387037 7.672404450144698 -1 -2 -2
399 38 4 0 -4.2396611297155875 -28.700424208191382 11.391967021657342 -1 -2 -2
400 38 4 0 -0.46433810840225653 -24.17472380057414 12.665637896960906 -1 -2 -2
401 38 4 0 -0.6666767148369921 -18.436579647231962 13.383009969718245 -1 -2 -2
438 42 3 0 44.0752114218021 -33.92145682498609 16.336348832625188 -2 4 1
439 42 4 0 45.736196768570224 -35.9936634036302 10.946256012334976 -2 4 1
228 21 3 0 70.906276530032 -39.052762926419575 3.5954901381958244 0 -1 0
227 21 4 0 65.55655684348118 -38.6697406027899 0.44097111618009427 0 -1 0
229 21 4 0 75.80073343206723 -35.92301327189313 2.3663973620146375 0 -1 0
230 21 4 0 79.12721415031498 -31.896010513525894 4.231106706752321 0 -1 0
27 2 1 0 -43.55419193791624 -17.68778768469907 6.90094487473303 -1 0 0
26 2 2 0 -49.16033546620808 -16.48858542229619 5.314792953352206 -1 0 0
944 93 3 0 -39.163203405917294 -7.639427991658395 3.024088981890352 1 -2 0
353 34 3 0 78.11450575301467 -0.9231917187122668 9.448013722053558 3 1 2
943 93 3 0 -41.327459986674384 -2.098501420855747 3.7207003377544825 1 -2 0
11 2 3 0 -16.022518013232265 -0.2906789055711693 10.918432577430709 -1 0 0
1020 100 4 0 -11.051698465349162 -8.722745069015843 4.133251385893676 -3 0 -3
232 21 4 0 -69.66924450325928 -32.700284546920116 4.3246173999529 1 -1 0
1021 100 4 0 -6.622422601598244 -5.19686788908855 4.981011462733607 -3 0 -3
402 38 4 0 -5.15748120158297 -15.230311920671637 11.915549640937924 -1 -2 -2
173 16 3 0 12.595681256700184 -17.87572078719404 6.7831256149376955 -1 -3 -4
403 39 3 0 24.50400954214412 -6.6129266142654295 8.028097391468954 -2 2 -1
404 39 3 0 20.494527143285946 -3.3890824007950067 11.071762920253686 -2 2 -1
174 16 3 0 17.03099105672786 -19.382646888498694 3.00156031830017 -1 -3 -4
405 39 3 0 18.67723636064414 -2.904608638057311 16.38688958859724 -2 2 -1
272 25 4 0 42.69372784684972 -16.340094625212146 11.961622824194027 -3 1 -3
271 25 4 0 37.253335143221655 -13.969671672654595 12.891638074086979 -3 1 -3
270 25 4 0 32.23226623886467 -11.618095765520314 15.56666626229277 -3 1 -3
970 95 4 0 68.71144239685609 -15.912131830006 3.0147704616729536 -2 -1 0
969 95 4 0 73.36375873202262 -16.515878330651777 6.43301234612066 -2 -1 0
968 95 3 0 74.21894357587125 -14.554339480049137 12.048971246629238 -2 -1 0
967 95 4 0 73.06026175510029 -11.354234826369094 16.810534076555836 -2 -1 0