LAMMPS data file via write_data, version 29 Aug 2024, timestep = 105000000, units = real

1032 atoms
4 atom types
931 bonds
1 bond types
830 angles
1 angle types

-80 80 xlo xhi
-80 80 ylo yhi
-80 80 zlo zhi

Masses

1 329.2
2 305.2
3 345.2
4 306.2

Bond Coeffs # harmonic

1 7.5 5.9

Angle Coeffs # harmonic

1 5 150

Atoms # full

537 52 4 0 -32.108240744861426 -77.1629340858501 -75.09022081187004 0 4 -1
20 2 2 0 -19.242047456087676 -0.9873438098618839 -2.4566865407261194 1 1 0
535 52 4 0 -37.39842869925793 -68.15280408171512 -79.31126974140007 0 4 -1
536 52 3 0 -33.454018085444844 -71.37934103495084 -76.10147637264261 0 4 -1
749 73 3 0 -17.792048581932928 -76.6483127622759 -67.98647890580449 2 1 1
750 73 4 0 -19.324732382031094 -73.59925965418341 -72.76484555657314 2 1 1
948 93 2 0 -9.841117079558945 -67.80914885593928 -71.78214749690923 2 -1 5
949 93 3 0 -9.484302333289346 -61.88113339484738 -72.9143442571735 2 -1 5
468 45 2 0 78.46202818964863 -3.591279485271593 -0.6264171467102266 1 2 1
751 73 3 0 -22.579808338223057 -70.88058017028322 -77.46025516071668 2 1 1
947 93 4 0 -6.338987966243409 -72.11123154766119 -73.44860518377732 2 -1 5
946 93 3 0 -7.244165207395648 -75.60780515775939 -78.13870572962554 2 -1 5
493 48 4 0 15.877242874569596 -75.95923800375232 -75.39918524430512 2 1 2
494 48 3 0 19.822407117267982 -78.38340231967022 -78.83409649799134 2 1 2
411 39 3 0 52.58699092840451 -71.79294964469018 -66.7334827938114 3 2 3
412 39 4 0 54.31443256760321 -68.5269989145062 -71.51421260409538 3 2 3
410 39 4 0 53.00988672851144 -76.00511797185368 -62.889899741165394 3 2 3
869 85 3 0 63.98780176221227 -70.66182073266842 -61.56893798053987 0 -3 -1
868 85 2 0 65.8805521870907 -69.03209676589945 -66.78796235324032 0 -3 -1
867 85 4 0 65.23264381857534 -69.42747460862736 -72.37320113729734 0 -3 -1
866 85 3 0 66.97403732648662 -72.69419417398211 -76.75915614528269 0 -3 -1
733 72 4 0 -40.849899408001285 -59.65218932682319 -63.31359786947325 1 1 0
734 72 3 0 -35.82306000481528 -58.96988102189981 -65.3212558647603 1 1 0
735 72 4 0 -30.781869107464505 -56.79735035271783 -63.65807400805202 1 1 0
951 93 3 0 -15.343869464969927 -51.96948821243092 -72.51290494638044 2 -1 5
952 93 4 0 -15.528928992672295 -46.431306624781584 -75.47913697875207 2 -1 5
736 72 3 0 -27.611231372998038 -52.19767285406042 -62.424024983885765 1 1 0
286 27 3 0 57.70877925997966 -16.528006475786224 -12.33408041240306 -2 -1 -1
139 12 3 0 -3.4078485571382733 -46.722483450066996 -79.14830602483443 -3 0 0
950 93 4 0 -11.878532515781865 -56.70812737451013 -72.68764435209383 2 -1 5
644 63 3 0 5.476869616220434 -53.88170930794215 -64.82525593966027 -1 1 -2
645 63 4 0 8.806908356733762 -54.30088282606821 -69.537873423565 -1 1 -2
138 12 2 0 -4.892502218276132 -41.59003870394998 -76.54972464609722 -3 0 0
643 63 4 0 -0.43068090744752396 -53.42532152997322 -63.50651611903629 -1 1 -2
287 27 4 0 60.103495237304585 -17.171735898740756 -6.668557956991358 -2 -1 -1
646 63 3 0 12.116854951866964 -53.2111359265103 -74.2430027509426 -1 1 -2
647 63 4 0 12.131002742051903 -49.23279940317857 -78.79557871818045 -1 1 -2
152 13 4 0 25.709707276422925 -56.33197529645357 -62.19176505162879 -2 4 1
853 84 4 0 53.42572294922241 -58.52282230432307 -67.3804758691192 -3 -1 4
855 84 4 0 59.8345501745954 -56.076786066212264 -76.46674437264626 -3 -1 4
854 84 3 0 55.91808754821163 -57.468959571428755 -72.14683302761964 -3 -1 4
111 9 3 0 59.50590340871423 -42.23910822569293 -72.14259521195007 -4 2 1
112 9 4 0 60.76652190022992 -38.17433243042976 -67.97008042121234 -4 2 1
110 9 4 0 58.86162973325885 -44.81490622175474 -77.6022526781945 -4 2 1
227 21 4 0 65.82404684693383 -1.4092228154695954 -4.803925198558669 -2 3 -2
313 30 4 0 -58.31937813518654 -30.57866299164465 -78.59778373370447 -2 0 1
1 1 4 0 -31.6331292877921 -33.43822820529439 -79.22654776652709 2 -1 0
137 12 4 0 -3.2177672891190494 -37.39240277395 -72.72313025799721 -3 0 0
136 12 3 0 1.2003923796567302 -36.27073753463159 -69.04513024843757 -3 0 0
135 12 4 0 5.716462997454168 -33.897791394729545 -66.33838073168454 -3 0 0
133 12 4 0 3.897704854003152 -24.997296665278714 -60.49804048741791 -3 0 0
362 34 4 0 -7.45494981761583 -26.52949313722347 -57.48342238590442 -1 -1 1
134 12 3 0 7.17438098863251 -29.545414523767327 -62.12454712536326 -3 0 0
270 25 4 0 -34.46656686395024 -8.760816631729218 -78.22029197234177 0 -1 -2
271 25 3 0 -36.87140010091736 -13.184361953327057 -75.57139666039977 0 -1 -2
272 25 4 0 -40.464104895103304 -13.932489202654823 -71.31767598073927 0 -1 -2
43 3 4 0 24.106815540315427 -8.060470946072105 -61.494623943145655 2 0 -3
962 94 4 0 -79.29541805374598 -14.991176972584622 -59.06724293687896 -1 1 -2
86 7 3 0 70.59911414973905 -3.5325893731272466 -77.59475966361202 -1 -1 -1
72 5 4 0 7.96773950212565 -63.109293301392825 -61.1511715336739 3 1 -2
148 13 2 0 16.574429773484532 -71.87223112251321 -47.808908587470206 -2 4 1
149 13 3 0 16.992786705216066 -67.25997649174792 -51.8459382602117 -2 4 1
150 13 4 0 18.762369625444794 -63.89102436518143 -56.25592448042852 -2 4 1
840 82 4 0 23.782398269730955 -65.4828651531478 -42.776605133052925 2 2 0
147 13 4 0 19.74827599672407 -75.00459261823045 -43.84587923302881 -2 4 1
146 13 3 0 23.248498297025733 -78.95168836663055 -40.4933358220205 -2 4 1
835 82 4 0 33.08599875587918 -79.70359562382042 -50.475684718231214 2 2 0
839 82 3 0 26.946348206754813 -63.50563300663061 -47.482514289281454 2 2 0
837 82 4 0 30.587470885740608 -70.06666969954236 -54.620437826614086 2 2 0
838 82 2 0 30.802738812844687 -65.43640222352563 -51.35234135135193 2 2 0
836 82 3 0 31.837524174217464 -75.8459171416427 -54.54948613425006 2 2 0
871 85 3 0 59.90007976898582 -77.56658817615667 -53.132328503461906 0 -3 -1
870 85 4 0 63.14899381961884 -74.54363492623585 -56.928224903574566 0 -3 -1
253 24 4 0 -74.50055965727458 -56.66896311649325 -51.58853456793846 -1 1 3
254 24 3 0 -71.62535582797616 -52.35145786700504 -49.294415174019946 -1 1 3
255 24 4 0 -67.63006109452591 -52.065353255456614 -45.054403081436114 -1 1 3
663 65 4 0 -49.877749877103795 -58.17607996326631 -40.4967003508321 2 -5 0
740 72 4 0 -32.62892954198436 -42.32156463272155 -50.9355711898012 1 1 0
739 72 3 0 -26.841451356210698 -42.70647585628383 -52.21293806179884 1 1 0
741 72 3 0 -36.6521564540215 -41.174239976950396 -46.66094349200617 1 1 0
738 72 2 0 -22.607752494097806 -46.09509279306258 -54.116117940154425 1 1 0
737 72 4 0 -25.25279348918349 -48.40952262780075 -58.88880008587723 1 1 0
358 34 2 0 -14.239772708590584 -42.402310406544146 -44.52327454057616 -1 -1 1
357 34 4 0 -14.495361002051263 -46.75840725839968 -40.785082903501454 -1 -1 1
71 5 3 0 8.01502105282118 -58.91634184667579 -56.84779373962375 3 1 -2
68 5 2 0 0.6447813186994032 -50.31132526733544 -45.70061953944081 3 1 -2
69 5 3 0 2.2710726827502117 -51.62035517298987 -51.28809878995573 3 1 -2
70 5 4 0 5.9912784013219245 -53.61580919849007 -54.84379477496883 3 1 -2
1026 101 3 0 8.241152470408114 -40.68858650816855 -46.00279443420673 0 2 1
151 13 3 0 21.520584172361875 -59.08034297411937 -59.06835207407944 -2 4 1
1025 101 4 0 10.694097185027852 -45.89017968085906 -47.38195270885842 0 2 1
1024 101 3 0 14.718389297580883 -50.11271562112838 -45.892535189357396 0 2 1
1023 101 4 0 15.676889220542561 -55.68692321053208 -46.98683991614664 0 2 1
359 34 3 0 -13.161293270599588 -36.76116632557752 -45.65814439090481 -1 -1 1
360 34 4 0 -10.467858072380388 -33.44125987436338 -49.39501299876585 -1 -1 1
361 34 3 0 -11.252073695957673 -29.183992222428905 -53.51037926069412 -1 -1 1
1027 101 4 0 3.993187730113198 -37.12886866956442 -44.65455436078897 0 2 1
577 56 4 0 3.49251590787656 -19.747027104378365 -47.732598649579344 -1 1 2
576 56 3 0 6.678055466125007 -24.749688566698108 -47.20733325752205 -1 1 2
575 56 4 0 9.823914365839734 -27.643144135475424 -50.67283636504776 -1 1 2
574 56 3 0 14.830437376339649 -30.887876660849248 -50.834659521525296 -1 1 2
573 56 4 0 18.77413545208591 -34.78930807272781 -48.83914505471908 -1 1 2
958 94 2 0 -75.51965158329037 -6.821332769508473 -39.254661302148584 -1 1 -2
960 94 4 0 -74.21554385212359 -11.004681537266677 -50.33864068014622 -1 1 -2
959 94 3 0 -73.24026531570263 -7.632426937628982 -44.99541172834793 -1 1 -2
967 95 4 0 -77.53754298497344 -17.216132021963432 -41.52302607470253 0 6 0
961 94 3 0 -75.91787007743288 -11.343553427556415 -55.83643301227113 -1 1 -2
932 91 4 0 -12.399218564294406 -7.61550566457041 -43.778439918677506 2 0 2
931 91 3 0 -10.509754896017903 -10.61063439805653 -38.855396052643016 2 0 2
578 56 2 0 2.8055057180792424 -14.195344350764415 -45.45740455995424 -1 1 2
579 56 3 0 3.4327786568231478 -11.420812513440676 -40.43793367984333 -1 1 2
44 3 3 0 22.93276663914672 -5.853049079218491 -55.950297825015 2 0 -3
45 3 4 0 19.311840543493492 -1.7384781492287893 -54.429817572281124 2 0 -3
965 95 4 0 74.4700663751917 -14.095730141200194 -47.01897126026565 -1 6 0
966 95 3 0 78.81086452470302 -17.531324540895888 -46.1133219022882 -1 6 0
964 95 3 0 72.01282429686815 -9.85067349032018 -50.5017085766379 -1 6 0
963 95 4 0 71.02570236515393 -6.637481017476128 -55.44714668442236 -1 6 0
760 74 4 0 -69.21774674673406 -70.9204447238336 -25.35834658962366 1 3 1
759 74 3 0 -67.27220532164847 -70.18373267024694 -20.144180932938703 1 3 1
761 74 3 0 -69.33111862406025 -68.60969138208284 -30.96755341006255 1 3 1
762 74 4 0 -68.85241103448269 -69.97626459766249 -36.82071882778392 1 3 1
1007 99 4 0 -52.28670728197421 -79.58237042802492 -26.090225871191997 4 5 1
664 65 3 0 -45.883902505983556 -61.30804290503169 -38.09263824829664 2 -5 0
1010 99 4 0 -55.89088205501624 -64.60054333407362 -21.200466341399952 4 5 1
1009 99 3 0 -57.038978228353685 -68.81560196191914 -24.982980721505996 4 5 1
1008 99 2 0 -55.138796778462144 -74.29721966122386 -25.583255330924114 4 5 1
665 65 4 0 -45.7100890377444 -65.10943582465514 -33.872344475728774 2 -5 0
668 65 2 0 -43.05292686448854 -74.7823727599088 -20.236217898479346 2 -5 0
666 65 3 0 -43.67279208065068 -66.72436047833102 -28.63486362552326 2 -5 0
667 65 4 0 -44.786696702013145 -71.15265080515601 -24.800913749195846 2 -5 0
841 82 3 0 24.1828997136607 -67.11616301191188 -37.1383161063079 2 2 0
842 82 4 0 21.841586756648468 -69.66945678541211 -32.21242868350892 2 2 0
469 45 3 0 76.91187676739764 -3.462283715330077 -6.1861751475384645 1 2 1
428 41 2 0 79.28485664733977 -70.54362998736424 -23.24687851302622 -1 0 -1
427 41 4 0 78.12488634441561 -64.78152731357005 -25.104594888970794 -1 0 -1
426 41 3 0 77.66844770610788 -60.18221505076571 -28.750966763760786 -1 0 -1
256 24 3 0 -63.71146066995399 -54.731407154836866 -41.57069874703765 -1 1 3
1012 99 4 0 -59.84363438875665 -53.64188247006038 -22.465030994044795 4 5 1
1011 99 3 0 -57.729351428821204 -59.149105407176094 -21.21068336133022 4 5 1
257 24 4 0 -61.240456293233905 -53.77416880312106 -36.39435058890483 -1 1 3
258 24 2 0 -56.998380949306835 -51.81552387529914 -32.908737412528666 -1 1 3
259 24 3 0 -52.48860906734762 -53.48534877137599 -29.08774111728702 -1 1 3
260 24 4 0 -48.56176471786659 -53.70423052742286 -25.136175242146756 -1 1 3
261 24 3 0 -44.4233941855157 -56.86997725181426 -22.325143641171078 -1 1 3
356 34 3 0 -16.177733182209064 -48.473018079582054 -35.149879463680115 -1 -1 1
355 34 4 0 -13.83970967894386 -49.863128087259085 -29.847938981903415 -1 -1 1
354 34 3 0 -13.617835141315306 -52.56149620631038 -24.82941626294272 -1 -1 1
353 34 4 0 -16.198541084498693 -55.71624613022162 -20.143104816422596 -1 -1 1
67 5 4 0 0.5612514455833565 -47.389033571164205 -40.58247218619379 3 1 -2
66 5 3 0 1.8335379249645392 -42.94102985546783 -37.27277250602389 3 1 -2
65 5 4 0 3.7037609024291864 -40.28525373140155 -32.65341287980907 3 1 -2
425 41 4 0 74.92128629543024 -56.28786180564399 -32.299391609102464 -1 0 -1
424 41 3 0 69.50709247908593 -56.05864725029551 -34.75290811889934 -1 0 -1
423 41 4 0 64.25318980229903 -52.75710619238745 -35.01404040106234 -1 0 -1
742 72 4 0 -37.54560982628635 -39.08221228360595 -41.14964585670223 1 1 0
402 38 4 0 -27.445333010292963 -20.0422964750789 -25.08339713114285 3 -2 3
1032 101 4 0 -19.62077261399596 -39.93740323173913 -34.124094915894425 0 2 1
1031 101 3 0 -15.219955555629339 -35.53973519088903 -34.12794968839031 0 2 1
1030 101 4 0 -9.582088675072207 -36.13064350549424 -36.08828787885308 0 2 1
1028 101 2 0 -0.2698298203301093 -34.41175998883371 -41.409929835092335 0 2 1
1029 101 3 0 -5.3895299948654465 -33.50206153785931 -38.98568617974062 0 2 1
927 91 4 0 5.655381836838194 -20.038848727377754 -29.028558658323913 2 0 2
64 5 3 0 8.274834459079287 -36.173680446312844 -31.13993716854609 3 1 -2
63 5 4 0 14.06466612321314 -35.78197648567822 -32.38228216979095 3 1 -2
926 91 3 0 11.558308810015841 -19.4413214674053 -29.369384767394717 2 0 2
923 91 4 0 27.871577103075705 -21.739687728094246 -28.766412544736895 2 0 2
970 95 4 0 -75.97633986493983 -13.853741441043276 -24.79910683232681 0 6 0
969 95 3 0 -77.32909543383275 -16.781492188977072 -29.919986336550046 0 6 0
971 95 3 0 -72.07673044865084 -9.53995501405118 -23.171835917507494 0 6 0
968 95 2 0 -76.413705777894 -18.686010045131784 -35.81813828982627 0 6 0
957 94 4 0 -79.0591090374371 -8.347916488239656 -34.772466724978784 -1 1 -2
972 95 4 0 -68.61346575979867 -6.077040195222156 -19.898301103194797 0 6 0
401 38 3 0 -23.480243373374368 -17.88972828647411 -21.772951622726566 3 -2 3
400 38 4 0 -17.997765091892408 -19.67902736800826 -20.92429010352704 3 -2 3
930 91 4 0 -6.020700384734767 -12.754075250202956 -36.79627749903257 2 0 2
928 91 2 0 0.31802653713136775 -18.156578615934073 -28.882692371323124 2 0 2
929 91 3 0 -3.4434481927108953 -16.59823588798121 -33.19818358322308 2 0 2
580 56 4 0 7.913475396902429 -9.63229394527779 -36.845095262714146 -1 1 2
581 56 3 0 8.873828468255892 -7.743843677797364 -31.531755982563983 -1 1 2
582 56 4 0 5.985517951517412 -7.904831130620549 -26.35161041300171 -1 1 2
925 91 4 0 16.9162408727327 -21.053364465340206 -28.07962348164056 2 0 2
924 91 3 0 22.450019848611248 -20.398218631554304 -26.82848799148563 2 0 2
228 21 2 0 62.3997686044627 -3.238118518041108 -9.750990603587416 -2 3 -2
173 16 4 0 29.962667004230877 -3.2008701764626295 -22.951681183187567 -2 0 2
284 27 3 0 49.24799543900943 -11.672222302608567 -17.351596339977494 -2 -1 -1
283 27 4 0 44.77716608171815 -10.349552858276912 -21.039983381625554 -2 -1 -1
231 21 3 0 58.17200285350761 -8.96665352383835 -24.461082977358675 -2 3 -2
232 21 4 0 53.69164769870425 -9.307162887578714 -28.446691547248594 -2 3 -2
230 21 4 0 61.93426635186337 -6.282439638574071 -20.78498598011955 -2 3 -2
472 45 4 0 75.98943022267655 -11.095886284063585 -20.969917278195943 1 2 1
956 94 3 0 75.76190465272114 -8.227369302155221 -31.78415090013406 -2 1 -2
953 94 4 0 63.43065254181376 -18.23519266959821 -30.93843861353203 -2 1 -2
955 94 4 0 70.56861594059468 -10.06481202319269 -30.136060018089236 -2 1 -2
954 94 3 0 66.08342681197277 -13.409576223590692 -30.365455842985636 -2 1 -2
429 41 3 0 -78.14476307914283 -73.96097187530806 -18.821513227041574 0 0 -1
471 45 3 0 74.579205835346 -7.59900192613875 -16.457118463521635 1 2 1
430 41 4 0 -76.9918413033779 -75.97433799285695 -13.576044390154056 0 0 -1
431 41 3 0 -77.89355595214712 -77.61369564565472 -7.897490439702203 0 0 -1
756 74 3 0 -73.11389571237483 -62.963137162036176 -7.585706139254202 1 3 1
757 74 4 0 -68.01238009447114 -62.82070151922569 -11.119715791274224 1 3 1
755 74 4 0 -78.07497955846252 -65.72008256128387 -6.098237696133684 1 3 1
758 74 2 0 -66.39912600497154 -66.90713078281199 -15.626491258001368 1 3 1
296 28 3 0 -64.11276541705146 -78.37541466882506 -11.205969620891349 1 -1 -3
295 28 4 0 -60.26800669060612 -75.44001039467247 -7.859926976020781 1 -1 -3
294 28 3 0 -58.59220229969572 -70.49979477237251 -4.887769390778753 1 -1 -3
293 28 4 0 -53.17433137109038 -68.41174682167622 -5.06464857403099 1 -1 -3
262 24 4 0 -44.76056899370741 -60.01783062125652 -17.230783129656096 -1 1 3
53 4 4 0 3.7777478728479688 -61.636797084306856 -14.939957753074594 2 0 0
54 4 3 0 -1.9533333175094394 -62.65225683730036 -13.275551913758418 2 0 0
754 74 3 0 76.26303805517038 -67.45963405649526 -5.991718294784779 0 3 1
753 74 4 0 71.04559173485545 -68.84131584747048 -8.34414570858838 0 3 1
59 4 3 0 -21.4944280594885 -45.0390366551374 -11.454452084823378 2 0 0
57 4 4 0 -14.045961885268426 -52.88744535603684 -7.404823485693265 2 0 0
58 4 2 0 -18.596450994226018 -49.852383458234655 -9.692518448452121 2 0 0
60 4 4 0 -21.76374280661703 -39.23364701912974 -13.17202334062288 2 0 0
56 4 3 0 -9.711569761249969 -57.08635956213762 -8.366614660093587 2 0 0
55 4 4 0 -7.491079018351464 -61.67848424703847 -11.377813077484632 2 0 0
382 36 4 0 53.07304691482571 -49.872522893058566 -10.020216855564678 1 1 1
381 36 3 0 50.871675380444955 -47.64435909322374 -5.476522871934061 1 1 1
989 97 3 0 62.837632477488185 -43.66540329171776 -6.029545901530871 3 3 2
229 21 3 0 62.57945235557028 -5.807288803668906 -14.862738139813347 -2 3 -2
987 97 4 0 66.86737441333798 -54.371379260075194 -4.324044486956401 3 3 2
988 97 2 0 64.67197248370054 -49.12453487114079 -4.241929325304466 3 3 2
62 4 4 0 -31.74043288240335 -35.518415572011186 -9.745000602133677 2 0 0
61 4 3 0 -26.824235571885875 -36.16366720304895 -13.635483132679497 2 0 0
399 38 3 0 -15.518346848627953 -23.81246986156982 -17.439884483741057 3 -2 3
398 38 2 0 -11.068206191464746 -25.665966250017416 -13.649448155256502 3 -2 3
397 38 4 0 -11.168638883820604 -30.27773687361817 -10.231711356376156 3 -2 3
396 38 3 0 -12.58228446714225 -31.86845337847411 -4.664475550801869 3 -2 3
185 17 4 0 -20.690771639237713 -20.096754989356462 -1.1704472627293436 0 1 -1
470 45 4 0 74.64533599124572 -6.642484446350352 -10.625326212754008 1 2 1
873 86 4 0 13.831647854514097 -26.49701902505242 -2.223447456170442 -1 1 0
990 97 4 0 58.90379771022811 -39.10236903660554 -6.460569426267666 3 3 2
991 97 3 0 56.303415317420146 -34.017461116224396 -4.582297266020221 3 3 2
992 97 4 0 52.876065935377916 -30.77678658239947 -0.8806380080826698 3 3 2
288 27 2 0 62.75572666363743 -21.979053971106207 -4.977054565218003 -2 -1 -1
285 27 4 0 53.03701305835175 -15.534027823267268 -16.14719297500982 -2 -1 -1
290 27 4 0 66.22865411582595 -30.374669794523516 -1.4306824183048352 -2 -1 -1
184 17 3 0 -15.359676787984553 -19.428623309946175 -3.307193811443741 0 1 -1
583 57 4 0 -10.248915302089943 -11.120264614367144 -15.454897210267783 0 -2 -2
584 57 3 0 -14.04973092876221 -8.043637722795939 -18.876369156637658 0 -2 -2
585 57 4 0 -16.35713126462785 -2.6568392076825846 -18.358503963886825 0 -2 -2
19 2 4 0 -13.407931334203338 -1.7479934911819393 -1.8903666812969757 1 1 0
183 17 4 0 -10.039627027332433 -16.979251097645136 -2.4249390415222742 0 1 -1
986 97 3 0 66.30648920958635 -59.1615574749358 -0.9611843560842652 3 3 2
73 6 4 0 26.233191944975612 -40.5956686325302 -0.7561316661740582 2 0 -1
641 62 3 0 55.528625393180754 -4.464597838757625 -0.9315121905051862 -1 1 -1
103 9 4 0 42.98821316538759 -25.412101595274805 -79.65337613416364 -4 2 1
409 39 3 0 50.44462690348285 -79.82979140097609 -59.27682690285891 3 2 3
289 27 3 0 64.79457680875522 -24.792511632636447 -0.31461971087780777 -2 -1 -1
874 86 3 0 17.871070559189363 -22.59207373549135 -0.11083556785594958 -1 1 0
380 36 4 0 50.20257281244387 -43.70805252353674 -0.8978061587827092 1 1 1
18 2 4 0 -8.473894120843818 -3.7244855700835666 -0.014912976160017908 1 1 0
533 52 4 0 -48.49521269294219 -64.7854027723396 -78.70450675143533 0 4 -1
549 53 3 0 -45.25553008869184 -78.15926773038568 15.342061768648033 3 2 0
85 7 4 0 68.58855206499051 -7.259016241427374 77.87631118322939 -1 -1 -2
692 67 4 0 -34.339656530999484 -74.61124539258223 19.118864645731083 0 1 2
363 35 4 0 -31.672614120979837 -78.21514251674738 3.4790366206917813 -2 2 2
910 89 4 0 -2.3194956245152802 -74.18465126048012 21.569422199058625 0 1 -2
909 89 3 0 0.37347019893277 -69.42478282733418 19.63810515878344 0 1 -2
731 71 3 0 11.358466277969917 -75.55240203634098 19.45432689265274 -2 0 1
732 71 4 0 11.846673307632624 -70.53826832924292 15.944267716894673 -2 0 1
763 75 4 0 22.816343990353563 -68.15244782273612 16.999919002553185 1 1 -1
768 75 2 0 45.77508984835976 -73.43862322904921 19.176654231273954 1 1 -1
769 75 3 0 51.40385511783699 -74.89113183541043 18.31763761081407 1 1 -1
713 70 4 0 54.028505403444214 -59.63046762232761 7.343950096277027 2 1 0
984 97 3 0 71.64990061872997 -67.5281774453926 4.749452577541491 3 3 2
983 97 4 0 74.74806532693435 -70.24280843044436 9.132277128112436 3 3 2
985 97 4 0 67.47162933418976 -64.07245194510985 2.1965102683153543 3 3 2
481 46 3 0 -62.10476873116011 -52.83565168569577 5.079842920401968 -1 1 1
480 46 4 0 -62.042704220364406 -47.86293742041694 2.3650051026234276 -1 1 1
482 46 4 0 -60.61585859672858 -56.20039227543633 9.512453393888297 -1 1 1
479 46 3 0 -62.587868490685 -42.46551186185528 4.193757632475898 -1 1 1
191 17 3 0 -38.9679968945685 -43.66434010090137 5.25220001342648 0 1 -1
192 17 4 0 -36.88335604189171 -47.07526623944487 0.8706567847884807 0 1 -1
714 70 3 0 55.2886337702194 -55.803388581735454 11.285243877782415 2 1 0
715 70 4 0 55.401046466753584 -50.220936116225246 9.747073598627287 2 1 0
716 70 3 0 58.59751365286493 -45.24501144225697 8.967505015781816 2 1 0
717 70 4 0 63.042032419367075 -41.66783128778346 10.447850846163991 2 1 0
911 89 3 0 -4.425079821997844 -79.98363119430057 21.06044842744674 0 1 -2
478 46 2 0 -60.46127987410817 -38.64072125020837 7.678870331199031 -1 1 1
475 46 4 0 -52.203010459045984 -24.473064159283606 3.8992627262752984 -1 1 1
476 46 3 0 -55.75445884281759 -28.647866209520902 5.803805416420646 -1 1 1
477 46 4 0 -57.058093859076585 -34.1422176192625 7.415446905602521 -1 1 1
474 46 3 0 -46.6513518506754 -24.99719837834248 2.31023631109845 -1 1 1
188 17 2 0 -27.098659770723714 -32.93133455366478 6.120474385446588 0 1 -1
189 17 3 0 -32.77595219564641 -34.991980945071724 6.212832654437041 0 1 -1
190 17 4 0 -35.93044129438313 -39.79796436069294 8.190614279887988 0 1 -1
473 46 4 0 -41.116067583003876 -26.31964901426647 3.7398925063942374 -1 1 1
393 38 4 0 -9.939076208024044 -38.25409415897721 10.373303921348656 3 -2 3
394 38 3 0 -12.712568476695871 -36.05669131165348 5.899622565610215 3 -2 3
395 38 4 0 -12.880744354087758 -32.496493129529185 1.4956136872611177 3 -2 3
187 17 4 0 -25.585741105749086 -28.286360143594408 2.550875808267885 0 1 -1
76 6 3 0 21.709973742451794 -30.09873095471205 11.379739751286044 2 0 -1
75 6 4 0 25.152139619925304 -33.403873704827475 8.604099474743695 2 0 -1
77 6 4 0 18.524661751327425 -26.07670188071734 13.431555717731065 2 0 -1
78 6 2 0 13.373784814522349 -23.612919329195584 12.052963237713085 2 0 -1
875 86 4 0 22.521330277397745 -21.26027043914786 3.2544717361082562 -1 1 0
79 6 3 0 12.34386348782946 -18.0050010046798 11.346997295269835 2 0 -1
856 84 3 0 62.93784198324641 -57.57929274532374 78.5677664579567 -3 -1 3
74 6 3 0 26.922519325408306 -36.830252074923315 3.925809530539575 2 0 -1
552 53 4 0 -57.92850744089819 -77.6821402682278 8.874303232421905 3 2 0
877 86 4 0 32.713179968688216 -20.404274668715992 7.459773960123837 -1 1 0
376 36 3 0 53.07731839291079 -29.19854724974995 15.869868385434106 1 1 1
377 36 4 0 52.782653427104776 -32.576967712539826 11.08783907404032 1 1 1
378 36 2 0 49.31864336454898 -34.82658350393706 7.070604991102193 1 1 1
379 36 3 0 49.23187971811771 -39.81015455793389 3.4997625574467564 1 1 1
718 70 2 0 64.30948935167552 -36.638985733222704 13.415782903409696 2 1 0
719 70 3 0 64.37059432324324 -31.021488721581473 14.992695386680802 2 1 0
720 70 4 0 66.49741380085769 -26.196051798706016 12.748622413716578 2 1 0
721 70 3 0 71.40469665561143 -23.69194618066893 11.347309598123065 2 1 0
292 27 4 0 72.23889425305191 -35.09086248426409 5.525558783185075 -2 -1 -1
291 27 3 0 68.97717991341415 -35.18936770249444 0.7026374152258741 -2 -1 -1
722 70 4 0 76.75680799188031 -24.623801139568737 9.52599434973562 2 1 0
210 19 4 0 -31.37220955950757 -1.041048726416863 14.52542411359002 -1 -1 2
1020 100 4 0 -27.61203552775344 -17.577787666135585 16.35228640519752 -3 -2 -1
209 19 3 0 -27.729445882973128 -3.5844071671233744 18.657081845089444 -1 -1 2
1019 100 3 0 -33.50733268412052 -16.636844565568975 15.305872320879395 -3 -2 -1
1018 100 2 0 -38.10385956859547 -12.91545354868509 16.357967014649276 -3 -2 -1
843 83 4 0 64.50006363860041 -15.667449225575107 59.48086403388289 -2 0 -2
1021 100 3 0 -22.275614389958793 -15.441111149685193 15.687224821062811 -3 -2 -1
1022 100 4 0 -17.918783149443684 -12.562789079333873 18.557182340886484 -3 -2 -1
17 2 4 0 -2.9271916834718295 -1.966716541033104 0.3717979283407275 1 1 0
141 12 3 0 1.7268749608106908 -56.48237298901192 78.45005434129574 -3 0 -1
80 6 4 0 8.52274581739652 -15.442340376635558 7.864896486853178 2 0 -1
82 6 4 0 12.340175256384398 -7.144668002699856 0.3052251687650907 2 0 -1
81 6 3 0 9.142922091908707 -10.271400605190395 4.571255199017009 2 0 -1
876 86 3 0 27.278518686982448 -19.267038439804537 5.491918287958942 -1 1 0
878 86 2 0 36.76986301933155 -20.87189981400502 11.602117830682058 -1 1 0
879 86 3 0 37.29268832574711 -18.00853863689238 17.008381272929537 -1 1 0
642 62 4 0 55.58344010114322 -5.90155576599147 4.514986486410091 -1 1 -1
892 87 4 0 31.80993175734621 -0.2625013351093355 65.8814430246214 2 0 -1
548 53 2 0 -46.89613723559769 -75.8021687984208 20.549532087205222 3 2 0
544 53 3 0 -60.827324272808376 -72.7057188640196 35.91640940358032 3 2 0
545 53 4 0 -55.491795169555715 -71.7895797418972 33.283343128629326 3 2 0
546 53 3 0 -51.682872699379345 -71.73455177172313 28.622897521093066 3 2 0
547 53 4 0 -46.46966837092756 -73.87118410967933 26.047236400122653 3 2 0
725 71 4 0 -8.936334688872655 -65.2973771260869 38.609987139822934 -2 0 1
724 71 3 0 -7.86482277725179 -59.60348784561074 38.68183072257914 -2 0 1
729 71 3 0 4.521957979707153 -77.15672431771613 28.120464096456654 -2 0 1
908 89 2 0 3.2039080489299905 -64.83719012858533 22.0202232107647 0 1 -2
727 71 4 0 -4.953662746191519 -75.20473893976951 34.83115939197137 -2 0 1
726 71 3 0 -7.746747740124854 -71.0346510160786 38.390469566088754 -2 0 1
728 71 2 0 -0.00910108180116265 -75.44054628653315 31.922629294269978 -2 0 1
730 71 4 0 7.818722896104051 -77.47119664991901 23.552143819813303 -2 0 1
907 89 4 0 6.979126305326412 -62.67801273700345 25.975810327131615 0 1 -2
764 75 3 0 25.601206278067444 -73.04508218927846 18.3395427867677 1 1 -1
906 89 3 0 12.0944675307388 -64.78403901482812 26.952125397104517 0 1 -2
905 89 4 0 18.046570573829 -64.3997870956945 26.33854949146477 0 1 -2
767 75 4 0 40.578827813466674 -76.31273927452273 20.14552718396188 1 1 -1
766 75 3 0 34.84481622924849 -77.97500148151079 21.19802681359351 1 1 -1
765 75 4 0 29.375555301874797 -76.72714280871908 21.267582806726917 1 1 -1
84 7 3 0 64.67138438084523 -11.428268030693987 76.70587901966037 -1 -1 -2
621 60 3 0 29.44309403984525 -73.89974657111858 37.51151095879286 0 1 -3
559 54 3 0 39.410259009095554 -75.93906466981134 30.664433103134982 1 1 1
560 54 4 0 40.92229543603905 -70.50820650630934 32.08688702531787 1 1 1
561 54 3 0 42.06525842363431 -64.55068933557618 33.731504071377124 1 1 1
622 60 4 0 29.492329461884065 -78.57816673724564 33.95984545246685 0 1 -3
770 75 4 0 55.91553032769626 -75.00277052316301 21.66867582626936 1 1 -1
771 75 3 0 57.004592855948424 -73.09936118523919 26.828170405839753 1 1 -1
772 75 4 0 54.317553472677766 -69.22245196639669 30.160138580599163 1 1 -1
723 71 4 0 -6.365015495795707 -54.225364330989756 36.68328122604451 -2 0 1
903 89 4 0 21.75207489354341 -54.91870918043537 20.5900673437269 0 1 -2
904 89 3 0 20.899878687692652 -59.884899627985625 23.456130622562288 0 1 -2
562 54 4 0 41.595433538828274 -59.566616394597204 36.870154537155955 1 1 1
450 43 4 0 -52.407457078971284 -23.65048392788635 35.418877116511915 -2 0 -1
451 43 3 0 -51.04749456814616 -23.115097458576706 29.699155484373282 -2 0 -1
452 43 4 0 -46.99375678844481 -25.586277423851023 26.3525637098976 -2 0 -1
326 31 3 0 -33.57523292166464 -24.524740819332248 39.35593177863038 0 1 0
327 31 4 0 -35.26495114227751 -25.820486818864737 33.9024666830484 0 1 0
203 19 4 0 -22.22023479217065 -28.002667790180755 29.656334171292844 -1 -1 2
204 19 3 0 -21.23861007549032 -22.674459555988456 27.519503722564174 -1 -1 2
882 86 4 0 37.26875419959047 -19.45051425367099 33.80975301180257 -1 1 0
881 86 3 0 35.718348603400905 -17.79463806878916 28.44399827404024 -1 1 0
375 36 4 0 53.12607140855074 -28.217817413759832 21.743699185902553 1 1 1
374 36 3 0 55.53880873667013 -28.049183492055505 26.712733687708848 1 1 1
373 36 4 0 55.14871787578642 -28.67629888551942 32.42121730658617 1 1 1
331 31 3 0 -49.35939869982232 -12.83060808186799 37.23347420157778 0 1 0
330 31 4 0 -45.38518492659948 -14.546828906942729 33.47512675205323 0 1 0
1017 100 4 0 -39.7271679894582 -7.030484475697298 17.42350862979688 -3 -2 -1
1016 100 3 0 -43.766525161856386 -3.0554528574735675 20.17580322670318 -3 -2 -1
329 31 3 0 -41.69561945575137 -17.835272613199606 30.73098631150333 0 1 0
328 31 2 0 -37.13119557111076 -21.55807980936819 30.483083962139126 0 1 0
208 19 2 0 -27.1789165671954 -5.522864173379595 24.29925640060415 -1 -1 2
207 19 4 0 -24.02299851760943 -7.589898080079739 28.693398260331666 -1 -1 2
205 19 4 0 -19.469890626532802 -17.593058078917828 29.516461203130618 -1 -1 2
206 19 3 0 -20.10288831772332 -11.857656586886474 30.506044639623067 -1 -1 2
880 86 4 0 35.61735048536866 -16.370439802020012 22.498696212639867 -1 1 0
572 55 4 0 47.86716502984006 -6.9013484936066165 34.02943086227929 0 -3 0
571 55 3 0 51.30690173720906 -11.771305867644365 34.856400181983076 0 -3 0
543 53 4 0 -62.855394223153546 -72.72647815329357 41.13017589245091 3 2 0
153 14 4 0 38.098197151717656 -76.62889108081559 45.288938599068416 0 2 0
154 14 3 0 43.50506807587449 -76.06709317509079 47.05771137442055 0 2 0
620 60 4 0 32.017121960200434 -68.307907728529 38.77645142845055 0 1 -3
619 60 3 0 34.26302554604227 -64.75915347142694 42.88357763876617 0 1 -3
618 60 2 0 39.009422430633045 -65.32177261832695 47.0850710378676 0 1 -3