LAMMPS data file via write_data, version 29 Aug 2024, timestep = 105000000, units = real

1032 atoms
4 atom types
931 bonds
1 bond types
830 angles
1 angle types

-80 80 xlo xhi
-80 80 ylo yhi
-80 80 zlo zhi

Masses

1 329.2
2 305.2
3 345.2
4 306.2

Bond Coeffs # harmonic

1 7.5 5.9

Angle Coeffs # harmonic

1 5 150

Atoms # full

415 40 3 0 -69.05235682119825 -64.0944947762251 -68.88624678058032 1 -1 1
416 40 2 0 -73.96069504368968 -63.119425875000324 -72.5521364466301 1 -1 1
414 40 3 0 -63.00081016187915 -65.20370324316013 -67.74867592452233 1 -1 1
432 41 4 0 24.683066952460226 -78.16973536552224 -62.66634924048245 -2 1 -5
53 4 3 0 -65.9792979931902 -76.04269633838727 -69.75222383010829 3 0 1
54 4 3 0 -64.87345458816428 -77.24244977911334 -75.58424339741683 3 0 1
417 40 4 0 -78.4805930571998 -59.53361269855877 -71.70809793208178 1 -1 1
413 40 3 0 -58.21440460521748 -65.45769010728138 -70.67425152473955 1 -1 1
246 23 2 0 -48.126442028780815 -70.66563222009033 -79.59789014712346 -1 -1 3
247 23 4 0 -52.72453780138384 -67.00105873945915 -79.98338230005957 -1 -1 3
271 25 4 0 -2.86944388367027 -79.19720606340762 -23.100168176164747 -1 1 -1
522 50 4 0 21.90786648574682 -30.486057804080115 -8.72702552524426 -1 3 1
724 71 3 0 -32.08010155233603 -68.79880718348113 -63.87735984639205 3 -2 1
725 71 3 0 -29.154761313270207 -72.53291196955584 -66.54966787394905 3 -2 1
726 71 2 0 -28.172374827788527 -76.6490000275168 -70.75529532533362 3 -2 1
689 67 4 0 -25.34257560973386 -63.38192619283325 -70.88417233405474 4 1 3
687 67 4 0 -18.282232390072007 -69.07088461872655 -65.03385781800486 4 1 3
688 67 3 0 -20.006381218470395 -65.51118613675186 -69.32512750370105 4 1 3
686 67 2 0 -18.33386959899133 -74.6870727072568 -63.167208923970655 4 1 3
58 4 3 0 -62.98831363622846 -57.770758388739125 -78.23002566017362 3 0 1
543 53 3 0 2.80592568913607 -65.31057376483207 -62.8762942374449 -1 3 2
544 53 3 0 -2.7901791574068984 -64.04195789729656 -62.913090156976864 -1 3 2
545 53 3 0 -8.224870165528666 -65.28415018341104 -60.608689607691254 -1 3 2
372 35 4 0 14.649870047121398 -79.51894868949714 -70.51038183919215 2 1 0
850 83 4 0 15.165145107793853 -59.274221947269034 -59.951925343994674 1 4 -3
284 27 3 0 60.58139195095792 -78.64046294844736 -51.47593775136994 2 -2 -3
521 50 4 0 20.988002570429877 -29.983801744520004 -14.596242038004263 -1 3 1
734 72 3 0 36.88135793838966 -64.94358994634263 -79.46974673584322 0 1 0
735 72 3 0 34.43116054003323 -60.69261031007444 -76.08860352670553 0 1 0
873 86 3 0 64.64749116524243 -63.77228489179492 -77.74971167291872 0 0 2
874 86 3 0 64.56159363987939 -68.9220231074461 -74.71316209310979 0 0 2
875 86 3 0 65.26366985063089 -73.85477016058582 -71.45775151951068 0 0 2
418 40 3 0 76.55379162819447 -59.85911460050822 -69.0147490809143 0 -1 1
419 40 4 0 71.89849115231114 -63.06246876891996 -67.86448564143024 0 -1 1
420 40 4 0 68.00720305126718 -65.94466276619461 -65.19026201307642 0 -1 1
27 2 1 0 74.60496018045957 -70.76356761157241 -76.48873041350123 1 1 1
24 2 2 0 79.22390791193459 -70.70890854472658 -60.939904806330254 1 1 1
26 2 2 0 77.10420577770275 -73.57379694544123 -71.66676097257834 1 1 1
25 2 2 0 78.19631446879653 -72.93047862631009 -66.024433196409 1 1 1
59 4 4 0 -61.70663089543153 -52.33180330284529 -79.59636556936925 3 0 1
692 67 4 0 -28.35143547739848 -48.029440077778155 -76.33678785424891 4 1 3
690 67 4 0 -28.46048940628111 -59.623042233484284 -73.81317441402628 4 1 3
691 67 4 0 -29.302197441781555 -53.354359452953304 -73.67480904399612 4 1 3
183 17 3 0 -15.864275975651946 -49.94430221944203 -69.91160533996516 0 1 0
184 17 3 0 -12.877658202685092 -46.95155513519226 -65.75451978117661 0 1 0
849 83 4 0 20.298563739280414 -56.94269476688705 -60.64295220279827 1 4 -3
848 83 3 0 24.460141521542226 -52.67174779359011 -61.02964188943484 1 4 -3
847 83 4 0 27.179777618485616 -47.7694764338042 -62.31814313079512 1 4 -3
738 72 3 0 25.134769906950194 -49.812188439233026 -72.1885053734152 0 1 0
739 72 4 0 26.53458120894042 -43.902385080076 -72.24080027631636 0 1 0
737 72 4 0 27.478700354409497 -54.78484647527967 -71.16535565190605 0 1 0
736 72 2 0 30.195733835254934 -59.689409984855935 -72.38982002352104 0 1 0
846 83 2 0 32.28264160882357 -45.30155584821809 -61.246380532985306 1 4 -3
845 83 3 0 35.81865366629725 -40.91765169049132 -61.98856359294682 1 4 -3
236 22 2 0 -41.30258904503015 -37.481483676144094 -76.91809983465896 4 0 1
237 22 4 0 -36.24146014758367 -35.01442988380624 -74.98373885431393 4 0 1
238 22 3 0 -31.733506209470722 -31.42701450355649 -74.006384002738 4 0 1
239 22 4 0 -28.07434168165975 -27.40969681230685 -71.69232438110056 4 0 1
240 22 4 0 -22.46378717697441 -25.4796836669864 -70.96918700632746 4 0 1
241 22 4 0 -17.990979340093933 -23.101205438958342 -74.46236247899154 4 0 1
740 72 4 0 26.274545928316424 -38.49648597970564 -69.57334924567559 0 1 0
844 83 3 0 40.82076731406084 -39.18710503851746 -65.27422981931787 1 4 -3
843 83 3 0 40.396732704944085 -35.45991681782599 -69.83198644688865 1 4 -3
741 72 4 0 28.11967538401843 -34.02364268334346 -65.86553711153844 0 1 0
742 72 4 0 32.19589866665875 -31.33522161653143 -62.569530001388706 0 1 0
950 93 4 0 55.30109539105575 -28.001360094719757 -72.36390752176908 1 2 0
951 93 4 0 54.93423374823591 -28.402220747567554 -77.9702369848444 1 2 0
949 93 4 0 57.66843032517921 -32.26563200853115 -69.00507707727755 1 2 0
947 93 4 0 68.51242427862486 -32.49914635934913 -69.61508794708212 1 2 0
948 93 3 0 63.06717608371296 -33.46463244030417 -67.82460405983753 1 2 0
946 93 2 0 73.83126966828709 -31.4705987226331 -67.80224524055669 1 2 0
945 93 3 0 77.5309436796844 -26.82500498526672 -67.54670973215049 1 2 0
943 93 3 0 77.58317721893577 -15.31301651779909 -69.7738627645356 1 2 0
304 29 3 0 -27.797083732519397 -11.166273897389848 -74.93042797772033 2 1 0
303 29 3 0 -27.016475801890387 -5.209103537246292 -74.67096821284763 2 1 0
242 22 4 0 -12.982915850006048 -19.764540241398862 -75.74627954374898 4 0 1
944 93 3 0 77.06530815417153 -21.222892989554364 -69.18278184693307 1 2 0
723 71 3 0 -36.01206804355382 -68.01743836809456 -59.154762581106 3 -2 1
133 12 3 0 -23.782625105949347 -75.74530464567678 -44.173469356334984 -3 2 2
134 12 3 0 -26.78968515980873 -74.07781614041119 -39.57529868844302 -3 2 2
958 94 3 0 -27.811697584023488 -64.00010625394086 -42.0667382441754 -3 1 1
546 53 2 0 -11.818206474091696 -62.07224565993361 -57.17407796149392 -1 3 2
961 94 4 0 -12.543957698266754 -67.434018747116 -46.75644620898258 -3 1 1
960 94 4 0 -18.2323016355881 -66.5364262784376 -47.94713436500918 -3 1 1
959 94 4 0 -23.629180506716388 -65.57214970438379 -46.43374546080247 -3 1 1
962 94 4 0 -8.274625880888635 -71.36624400924862 -48.49534981838354 -3 1 1
852 83 4 0 8.249862047665303 -65.18866529506454 -53.79967975563359 1 4 -3
851 83 4 0 12.453755985062932 -61.40846178578744 -55.49027054601643 1 4 -3
291 27 4 0 29.057265566409196 -65.45203560096849 -45.28075430574371 2 -2 -3
290 27 4 0 34.38704212438516 -66.58537364456475 -42.70222728844611 2 -2 -3
289 27 4 0 38.11596760087534 -70.3149143599039 -40.390164704767486 2 -2 -3
292 27 4 0 25.05194207498896 -62.29791010281116 -48.030121944224824 2 -2 -3
422 40 4 0 63.45941117761547 -70.70802416459134 -57.17814447557957 0 -1 1
285 27 3 0 58.99450199489897 -77.44401867932768 -46.03088626801565 2 -2 -3
16 2 2 0 46.592837606722355 -77.26153505160924 -52.63762421538507 1 1 1
286 27 2 0 54.53876737695605 -76.1929109097372 -42.155532306014564 2 -2 -3
17 2 4 0 49.108439777043024 -72.33045022857443 -51.31527688162843 1 1 1
19 2 4 0 56.913481554791694 -64.01011576019165 -50.778902063682864 1 1 1
18 2 4 0 52.54961342839941 -67.99952526100532 -49.985623567564126 1 1 1
20 2 2 0 62.1567139338217 -62.18042458427993 -49.06353878456664 1 1 1
287 27 4 0 49.48447928161594 -73.36124099469836 -40.52913257789208 2 -2 -3
421 40 4 0 63.997814980780596 -68.60896810059334 -62.09406850307182 0 -1 1
23 2 2 0 75.22537538285009 -67.72746779575054 -57.44742413370358 1 1 1
21 2 1 0 67.54011727185156 -61.633417874987245 -51.14076419069687 1 1 1
22 2 3 0 72.33686721955215 -64.18044570471588 -53.83530688183724 1 1 1
783 77 3 0 -74.22599527879034 -44.75571960677606 -49.4096550302159 2 3 1
784 77 3 0 -74.00460520337928 -38.866437495800014 -48.487999742253095 2 3 1
547 53 4 0 -16.469154757908832 -59.515056584616126 -54.82185375590583 -1 3 2
548 53 3 0 -19.512558753619516 -54.57227296340175 -53.259928102389665 -1 3 2
550 53 4 0 -17.086499834716548 -44.226208893626435 -49.7207030128678 -1 3 2
549 53 4 0 -20.08356674343062 -49.3639032665136 -51.19525374554045 -1 3 2
189 17 4 0 -14.120205029708712 -54.2446449792168 -43.5997945011547 0 1 0
551 53 4 0 -12.005760438389961 -42.55064248761119 -52.14498587670221 -1 3 2
185 17 3 0 -10.146062228544345 -48.72783265578509 -60.35962779720962 0 1 0
186 17 2 0 -7.815477337015513 -51.97925141061717 -56.07856465956642 0 1 0
187 17 4 0 -5.690592806014763 -53.369928565603175 -50.89229883562199 0 1 0
188 17 3 0 -8.455617422811954 -54.164637798264096 -45.504517190892784 0 1 0
785 77 3 0 -72.9182043365582 -33.560329716823595 -46.241725016880906 2 3 1
786 77 2 0 -69.62464394962798 -29.670014625852993 -42.973489731303296 2 3 1
787 77 4 0 -63.444482096097026 -27.79597642537666 -42.64039766142391 2 3 1
883 87 3 0 -52.11544138020157 -39.420977917338305 -49.90983559668042 0 1 2
884 87 3 0 -54.6935231841758 -36.36347807998292 -45.696071721801545 0 1 2
885 87 3 0 -57.88072874727435 -36.410050400100346 -40.060821636225306 0 1 2
552 53 4 0 -8.52332991234743 -39.909529709979886 -56.445233355662495 -1 3 2
67 5 4 0 17.766464947442895 -25.114889094656885 -44.36753781897247 1 1 0
68 5 3 0 20.47013340090377 -23.433901932772425 -49.17478858890551 1 1 0
69 5 4 0 23.993869959618618 -20.898338047919694 -53.69427241135356 1 1 0
70 5 4 0 28.738845264385198 -17.70722362232471 -55.78814883236259 1 1 0
563 55 3 0 -42.12041783956675 -0.7769762368029887 -16.29546447563466 1 1 1
971 95 4 0 0.514228469894139 -0.5954959341554524 -57.17170033973156 -2 1 -1
972 95 4 0 5.663930633555371 -1.4984272811872263 -60.10467172609475 -2 1 -1
106 9 2 0 21.551033936149924 -12.339895842365625 -43.547195866087954 2 1 -1
107 9 4 0 16.1591118951299 -12.198294371064813 -40.71723102105129 2 1 -1
105 9 3 0 26.782490546375396 -14.79936609003635 -42.90025751976581 2 1 -1
66 5 2 0 15.995183800587341 -22.721591928214824 -39.2842566461096 1 1 0
71 5 4 0 34.51357816246323 -17.249941479945452 -54.940510669019986 1 1 0
72 5 4 0 37.72546393397418 -12.213614602607796 -54.00457569456327 1 1 0
104 9 3 0 30.768402712406413 -18.726986184403277 -42.41605542285992 2 1 -1
52 3 4 0 -76.03088902331784 -71.79332435469067 -20.021056303354413 1 -3 0
957 94 4 0 -30.354204180396902 -60.62919934169751 -38.24142992104126 -3 1 1
953 94 3 0 -43.58255000893146 -74.9261737049856 -31.414919958214718 -3 1 1
954 94 3 0 -42.57840853264645 -69.71156998886794 -33.640957968146175 -3 1 1
955 94 3 0 -39.94890050500613 -65.72554674662297 -36.142315951194 -3 1 1
137 12 4 0 -33.366809448054354 -67.47439081181155 -26.69674228042947 -3 2 2
138 12 3 0 -37.575122749520936 -63.53817371056629 -25.073086386605038 -3 2 2
956 94 2 0 -35.90217409227469 -61.304735160235175 -36.877524120443844 -3 1 1
139 12 4 0 -40.25381700578587 -58.07475867877764 -23.660195583750742 -3 2 2
135 12 3 0 -26.03855640653703 -70.49909800130051 -34.742469005454076 -3 2 2
136 12 2 0 -28.43997814099295 -68.71341107131849 -29.75908963181519 -3 2 2
268 25 3 0 3.620869219330339 -64.88613073882316 -19.753609822966563 -1 1 -1
269 25 4 0 3.2341229515448666 -70.64757161097116 -20.039444356860557 -1 1 -1
270 25 4 0 2.354732921840828 -76.40974086581899 -21.804014630841195 -1 1 -1
267 25 4 0 0.8911618595106638 -59.945068348989224 -21.419096396847817 -1 1 -1
1031 101 4 0 25.313044626490633 -69.62054776224322 -21.556423379217126 2 -2 2
1032 101 4 0 25.509802388978418 -67.20151352413173 -26.939571184170372 2 -2 2
913 90 3 0 15.445389919545153 -45.63897861935467 -2.5013204348143 3 -6 -2
288 27 3 0 43.72698037590039 -71.63344068387907 -41.98469813345576 2 -2 -3
200 18 4 0 40.23090517094001 -76.640430305337 -24.07279359977307 0 0 3
753 74 3 0 41.69597490762864 -62.61783783013726 -23.631378609619066 0 1 0
142 12 4 0 -45.60492552919396 -44.32020905863947 -30.449110102477388 -3 2 2
140 12 4 0 -44.74058964233311 -53.87785021247571 -24.12560642919333 -3 2 2
141 12 4 0 -44.10768156267104 -47.957177336973025 -25.84435636327686 -3 2 2
192 17 4 0 -26.853512928477564 -45.36045229846765 -40.06964877581557 0 1 0
190 17 4 0 -17.820239776388444 -52.91092949081465 -38.92509392937484 0 1 0
191 17 4 0 -21.145915445866578 -47.83384672438437 -39.35614276553256 0 1 0
263 25 3 0 0.4905986838406259 -48.689040612685815 -40.83088096755267 -1 1 -1
266 25 2 0 0.4517525010780144 -57.312866094106155 -26.685425336196786 -1 1 -1
265 25 3 0 -0.5039649388041403 -52.55715736021704 -30.502956455432937 -1 1 -1
264 25 3 0 0.12629659724427103 -50.07007438997103 -35.039036292707166 -1 1 -1
516 50 2 0 20.346346581272236 -50.657528221805094 -21.870418806355413 -1 3 1
517 50 4 0 18.159619854829003 -46.002377749806456 -24.310837640965758 -1 3 1
887 87 4 0 -68.93932806961294 -36.52349612601929 -35.969267937000176 0 1 2
888 87 3 0 -74.2095343067301 -36.60605413261089 -33.62607752085392 0 1 2
889 87 4 0 -79.26507839123104 -34.69222136981834 -32.284476354812526 0 1 2
788 77 3 0 -58.75731834623846 -26.337409319640646 -40.23238688751496 2 3 1
886 87 2 0 -63.106423596445964 -36.223952652996516 -37.025208018204026 0 1 2
789 77 4 0 -59.2901643987435 -24.15149314958215 -34.48582942624135 2 3 1
790 77 4 0 -59.68610247522506 -26.494254998057 -29.19215481097038 2 3 1
791 77 4 0 -58.667104921067335 -26.70985834342211 -23.713452743876893 2 3 1
518 50 3 0 20.08033987222641 -40.64195352281264 -23.293414873981686 -1 3 1
519 50 4 0 17.331816594115246 -35.33320998655532 -22.495179492620416 -1 3 1
63 5 3 0 12.222276332712285 -18.330817208543774 -24.401329424469573 1 1 0
103 9 3 0 33.0622224256716 -22.933685280878084 -38.75087171935158 2 1 -1
890 87 4 0 78.78154219147355 -30.469395567426663 -28.997261858039796 -1 1 2
891 87 4 0 78.31478843793965 -24.585015132744328 -28.227471599238285 -1 1 2
985 97 3 0 -50.33572262909222 -0.46860985963123186 -33.50698202506724 1 3 3
984 97 3 0 -52.02178394454593 -6.1477464937468325 -32.032681173977885 1 3 3
983 97 3 0 -50.452713811383106 -11.962861105389642 -31.271840928724796 1 3 3
112 9 4 0 -4.378706024371875 -20.5740449105503 -28.14510467354877 2 1 -1
109 9 4 0 6.002338963018304 -8.880022745662181 -35.8049733771717 2 1 -1
110 9 4 0 1.7673319670392156 -10.352237428548758 -31.686715075127807 2 1 -1
111 9 4 0 -0.9491662311607089 -15.774328522374349 -29.370720655653432 2 1 -1
108 9 3 0 10.817731291376989 -10.077103744625333 -38.948147210323235 2 1 -1
65 5 3 0 15.716703449997219 -20.766315518382157 -33.66436874917798 1 1 0
64 5 3 0 13.56372846275974 -16.83267318471144 -29.86880454160227 1 1 0
892 87 4 0 78.669021205764 -19.100264403447333 -29.774548486204736 -1 1 2
51 3 4 0 -72.14687302795974 -70.97319916458412 -15.775480504734283 1 -3 0
50 3 4 0 -74.2637343636778 -70.28374599843126 -10.178672953437315 1 -3 0
49 3 4 0 -77.10422533726249 -68.00448128626384 -5.532338066859057 1 -3 0
48 3 3 0 -78.29247392537093 -62.55755121180505 -6.6407214963916585 1 -3 0
1027 101 4 0 23.946884466126736 -64.82428525970433 -2.46195793751713 2 -2 2
1030 101 4 0 27.24857367269725 -71.80955100121601 -16.411970049135434 2 -2 2
1028 101 3 0 27.476796712769648 -68.19962649896316 -5.933510641596864 2 -2 2
1029 101 4 0 27.251783784858578 -71.4136240657021 -10.598791561605037 2 -2 2
199 18 4 0 38.90310715866777 -74.82537310423331 -18.611211081601034 0 0 3
197 18 4 0 36.728042174006085 -65.3455851282101 -11.770095762089447 0 0 3
196 18 2 0 35.88824176979515 -62.52977140734589 -6.3968955995587695 0 0 3
198 18 3 0 38.65872288224004 -69.3694121112119 -16.159761984644156 0 0 3
195 18 3 0 37.702200776442496 -60.38604589236086 -1.2811758979620984 0 0 3
282 26 4 0 50.368735990982294 -71.72980996348714 -2.0412654455898656 2 -1 0
649 63 4 0 -65.22220405231364 -51.94543471850665 -2.4906181540188963 1 2 4
46 3 2 0 -78.31789875400601 -51.691296857518644 -3.338071514106387 1 -3 0
47 3 4 0 -78.21924917653521 -56.485934627086166 -6.51276520745308 1 -3 0
876 86 2 0 67.96065584262269 -79.03463409043867 -71.47858118179288 0 0 2
430 41 4 0 32.54953250293975 -79.87777206665696 -71.29213843283421 -2 1 -5
651 63 4 0 -56.86050861071778 -45.15036866378573 -7.150397689320312 1 2 4
652 63 4 0 -52.06504907604328 -42.34028465100758 -7.68742029643892 1 2 4
650 63 4 0 -61.41572225450172 -47.4427580622711 -3.439879115823109 1 2 4
513 50 3 0 11.040846306587564 -60.40632783974091 -15.371885567253706 -1 3 1
515 50 3 0 20.212314127172355 -53.37940155793934 -16.51537623681383 -1 3 1
514 50 3 0 15.798819875893575 -56.60154101420658 -14.852331516184597 -1 3 1
756 74 2 0 39.48641056006372 -52.411967853962274 -12.34365949507889 0 1 0
755 74 3 0 43.09831813658266 -55.571902286342386 -15.951070396867168 0 1 0
757 74 4 0 36.34151666511008 -51.60818390805755 -7.552889069621897 0 1 0
758 74 3 0 33.822626615336986 -50.65249997339586 -2.285038194976128 0 1 0
754 74 3 0 45.24640934554906 -59.903106322007076 -19.654634526739702 0 1 0
792 77 4 0 -62.00474652160985 -25.52415136840077 -18.489778266256536 2 3 1
520 50 4 0 17.91230374597567 -30.04604255953177 -19.96330208167079 -1 3 1
371 35 4 0 13.939318796914943 -76.5836451327836 -76.03202799817848 2 1 0
914 90 3 0 20.685295946039002 -44.46480918270245 -0.24931897808717707 3 -6 -2
57 4 4 0 -65.790272604794 -63.042616917348624 -78.23142647440842 3 0 1
305 29 3 0 -27.78935594613562 -15.437076732497998 -79.3494669170039 2 1 0
1025 101 3 0 21.63845561294314 -66.69273551245477 8.229858908173831 2 -2 2
1024 101 3 0 25.894030202059312 -67.8551053267384 11.738263595665039 2 -2 2
1026 101 2 0 20.706135903052708 -64.79699543125675 3.0518846111666433 2 -2 2
1023 101 3 0 27.256097840497077 -70.95288247600229 16.60111396810956 2 -2 2
279 26 4 0 38.26566643679938 -77.92189641991517 8.619700577078328 2 -1 0
278 26 3 0 35.31840966611092 -79.17510691839648 13.562123904203894 2 -1 0
194 18 3 0 42.902852198666665 -60.46291650369845 1.5280779819004455 0 0 3
280 26 4 0 43.12554260444853 -75.75482568593256 5.747521518613211 2 -1 0
706 69 2 0 74.78104354217413 -8.072163415602914 68.7061503320981 -1 -2 1
281 26 4 0 45.467057145583915 -74.1865113069214 0.44160088373158723 2 -1 0
193 18 3 0 47.357329546001345 -63.518714569508944 2.1172616575069054 0 0 3
646 63 2 0 -77.11567667458287 -59.48385999588948 6.051106318487044 1 2 4
43 3 3 0 -72.4031774492414 -44.39186834317526 10.747780109310364 1 -3 0
44 3 3 0 -74.06995653965677 -45.85849679882945 5.37901059308777 1 -3 0
647 63 4 0 -73.0849788729103 -59.15691475692783 2.0070662742060263 1 2 4
322 30 4 0 -18.780990145980944 -0.12255989875702834 26.25917818662261 -2 1 4
761 74 4 0 26.022652269395568 -52.16695286917317 11.132262309431384 0 1 0
762 74 4 0 24.776121518100098 -48.237881184252856 15.285164208319467 0 1 0
244 23 3 0 -48.0339159237294 -78.25507562479321 72.66011070969375 -1 -1 2
915 90 3 0 25.767117721594577 -42.13054424215261 0.1312221742325344 3 -6 -2
760 74 4 0 27.958373813492724 -54.57450306743739 6.1829403795365465 0 1 0
759 74 4 0 30.812070941533484 -54.03964959343903 1.3930770636252823 0 1 0
645 63 3 0 77.09839405698017 -61.15798088460105 5.542266194732212 0 2 4
644 63 3 0 71.32900378404338 -60.430162983968195 6.649178582545331 0 2 4
643 63 3 0 66.93622820709119 -62.440643730479344 9.31283116357166 0 2 4
621 60 4 0 66.93683455556449 -47.758132664684354 17.090951591446217 -2 -1 0
622 60 4 0 67.38469816481536 -44.70985674018938 12.157924776923583 -2 -1 0
917 90 4 0 32.16924962470339 -33.26311438634294 3.2479608715294535 3 -6 -2
916 90 2 0 30.377357627404407 -39.09821080667522 2.6228424072023224 3 -6 -2
918 90 3 0 34.986570883821734 -29.018974320533793 0.963703979175625 3 -6 -2
919 90 4 0 40.13551950317288 -25.89404541704418 0.33513132388711886 3 -6 -2
920 90 4 0 42.649792747070386 -20.57408382839033 1.2767791503303185 3 -6 -2
782 76 4 0 -75.63406112858546 -2.8112043463521026 17.879067703119013 -1 -2 0
781 76 4 0 -71.2806628078057 -5.194838149691049 20.409544835464647 -1 -2 0
942 92 4 0 -3.655038911312031 -2.7391424815862315 3.2567256831930904 4 3 0
921 90 4 0 46.62743142721743 -16.25800474293157 0.5867356267873163 3 -6 -2
126 11 2 0 -64.76075109761422 -63.18583149890268 39.165436881814344 0 1 4
127 11 4 0 -60.05527120216453 -66.3828349472745 37.67522871797077 0 1 4
128 11 3 0 -55.668546649379145 -67.48633384472004 41.02778639745849 0 1 4
173 16 3 0 30.30954638068223 -64.08793007105966 34.96965566213342 2 -3 0
84 7 3 0 57.32637449311231 -65.25771746177386 33.18133850611456 -1 0 0
83 7 3 0 53.53008123462349 -69.54666815966198 31.435919240133792 -1 0 0
612 59 4 0 -64.01162923127998 -49.17586039015602 32.71218130500567 0 2 -2
611 59 4 0 -63.392739128636954 -52.13713237706752 37.59648705365906 0 2 -2
602 58 4 0 -39.23259205813988 -44.99914801558131 36.55996962802716 0 0 -2
601 58 4 0 -38.64545018511279 -39.07207304298166 36.89170159731718 0 0 -2
836 82 2 0 26.912659606287598 -47.77150894790942 41.48719050507806 1 0 1
772 75 4 0 35.40035869956714 -45.50954203139164 19.1339081753891 3 1 -2
771 75 4 0 37.61089333619048 -46.73188607054295 24.831444388383087 3 1 -2
770 75 4 0 36.39780065508176 -48.53248597767296 30.233810367259224 3 1 -2
769 75 4 0 38.13705846890063 -52.991268194560014 34.015306515071465 3 1 -2
85 7 3 0 57.67224090123991 -59.54332057202947 32.42406943438391 -1 0 0
86 7 2 0 57.61154307043793 -54.841409557590744 28.982977245693966 -1 0 0
87 7 4 0 55.48613052684471 -49.523468559935374 29.543614308016558 -1 0 0
88 7 3 0 51.813756754062375 -44.63488339751253 28.27341571937919 -1 0 0
815 80 3 0 60.31381450384286 -45.29952268963045 38.03055414279414 -3 -1 0
620 60 4 0 68.06716282235635 -46.838997787962406 22.218411864161986 -2 -1 0
814 80 3 0 64.86032630246343 -41.40397858225475 36.478900858301216 -3 -1 0
619 60 4 0 68.22894093704744 -50.21890423442384 26.896668869334494 -2 -1 0
618 60 3 0 67.82930063878658 -53.93326443737346 31.15033922058988 -2 -1 0
617 60 4 0 65.82688295660998 -55.760964809178766 36.50529360081422 -2 -1 0
776 76 2 0 -57.41396223257879 -21.89887790999143 34.415136870609594 -1 -2 0
600 58 4 0 -35.24414172416323 -34.10236682648995 36.25764844624986 0 0 -2
599 58 4 0 -32.48950346056116 -30.24956665997069 40.204779660359335 0 0 -2
92 7 4 0 40.68699181152572 -26.424854219037105 35.61546012867387 -1 0 0
91 7 4 0 42.842472243062026 -32.472482018911236 35.954144259914344 -1 0 0
834 82 3 0 31.60047396527317 -37.65118057815604 42.324490941967596 1 0 1
90 7 4 0 44.61114759637166 -37.6770253754199 34.355456594731436 -1 0 0
89 7 4 0 48.10390616156333 -40.32297031003612 30.427306003441263 -1 0 0
813 80 3 0 70.10428078511896 -40.47330806184024 34.63966217053356 -3 -1 0
780 76 4 0 -67.02759100853419 -6.374501426318627 24.196172644746625 -1 -2 0
779 76 4 0 -65.82479537541431 -9.975364176753994 28.93779360135494 -1 -2 0
778 76 3 0 -65.00537321322818 -15.0615688795406 31.48904731656905 -1 -2 0
777 76 4 0 -61.5711569332665 -19.536544896886408 31.510362319860057 -1 -2 0
374 36 3 0 -46.006892265693644 -14.180514490434458 26.989592338648137 1 3 -1
524 51 3 0 -55.37272822880444 -3.1757875167899954 34.914350856930234 2 -3 2
525 51 3 0 -54.16759812460458 -7.888603920188761 38.269691345344874 2 -3 2
373 36 3 0 -49.13330291554747 -11.180124188039235 23.25910810786282 1 3 -1
375 36 3 0 -45.33966832620788 -16.517745308333268 31.846780412925025 1 3 -1
470 45 4 0 -37.544009423853566 -5.080315570153735 35.74228313966086 1 -1 0
471 45 4 0 -34.803665769361366 -4.90691500380842 30.768984365139854 1 -1 0
376 36 2 0 -44.30820602755362 -15.885542875714666 37.68945063007974 1 3 -1
472 45 4 0 -35.70858393077639 -7.26739271953739 25.31003105975097 1 -1 0
321 30 4 0 -17.35423590149354 -4.127145736118897 30.589446157386643 -2 1 4
320 30 4 0 -17.31753799121689 -4.583767612644613 36.85154391340416 -2 1 4
579 56 4 0 28.01395286806817 -0.42506320436444683 21.770259380243342 0 -1 1
458 44 3 0 30.357444571652042 -0.5598954063938345 33.15645315683918 -4 3 -1
459 44 4 0 34.62558894976277 -3.903867887137079 35.75247910919697 -4 3 -1
577 56 4 0 39.20221640586606 -1.3505007086129077 24.816437137501705 0 -1 1
576 56 2 0 43.73383279608897 -2.171632240937273 28.97328641135413 0 -1 1
578 56 3 0 33.793801255850425 -2.0895843195725043 23.07823157982117 0 -1 1
460 44 4 0 37.975585463941705 -8.334522650875833 37.37070327946135 -4 3 -1
461 44 4 0 43.1874439995894 -11.085401030618486 37.349114680355186 -4 3 -1
575 56 3 0 46.82882330970818 -0.6880280773216034 33.52942014205105 0 -1 1
707 69 4 0 75.5246326284432 -7.590674929706261 62.812120569535274 -1 -2 1
462 44 4 0 46.77047379839505 -14.353747521985865 41.181650482243576 -4 3 -1
705 69 3 0 73.44699619342573 -6.168860905352949 74.09807765992511 -1 -2 1
36 2 1 0 -73.34209135922616 -71.99711225032563 52.470328643217805 2 1 0
37 2 3 0 -74.57630669451432 -77.48475017000976 53.191885750774105 2 1 0
35 2 1 0 -73.3786649433594 -66.36294268630903 54.02236674510091 2 1 0
34 2 1 0 -77.4944429827417 -62.43337711697897 53.92382860111933 2 1 0
129 11 4 0 -52.16657603523412 -70.56592622189318 45.41020927541812 0 1 4
130 11 4 0 -47.084488715707046 -72.0795749516215 47.80595783349844 0 1 4
131 11 4 0 -45.554631493791284 -75.11196302445171 52.5093215109039 0 1 4
606 59 2 0 -57.59943262438988 -70.0797017791414 54.54708859010431 0 2 -2
607 59 4 0 -57.9105070034721 -64.29684450072075 54.279952817675216 0 2 -2
608 59 3 0 -55.705022395166885 -61.00974940755624 49.569261002496184 0 2 -2
605 59 3 0 -56.208537990740886 -75.84506132057658 53.123148072237356 0 2 -2
840 82 4 0 16.20182131346212 -65.72974666512496 45.942907069148305 1 0 1
841 82 4 0 19.197668598151946 -70.46021969208533 44.40105308552211 1 0 1
842 82 4 0 24.976634638952913 -71.79600983550473 42.4301446234659 1 0 1
839 82 4 0 16.972781251385417 -59.90243116930937 46.589765811725734 1 0 1
174 16 3 0 33.80783316322269 -66.47384433968574 39.26888423613784 2 -3 0
175 16 3 0 35.67329517284902 -66.27608448037692 44.63831616099402 2 -3 0
176 16 2 0 38.40760321517622 -63.86190403725726 48.76334224884793 2 -3 0
177 16 4 0 41.22240339524671 -59.797584227418795 51.78476436780431 2 -3 0
403 39 3 0 64.04978994819147 -73.37322105000695 42.36699675151364 3 1 -4
406 39 2 0 72.6729662568604 -73.76615540556571 57.16815123275966 3 1 -4
405 39 3 0 69.78305949179261 -73.92346747369061 51.98106516022285 3 1 -4
404 39 3 0 68.04958904316756 -72.10211210262331 46.38075571214534 3 1 -4
125 11 3 0 -70.63333772776748 -62.78867642654348 40.59799040321116 0 1 4
33 2 1 0 78.72273394896155 -60.21383387778996 57.713297517262895 1 1 0
124 11 3 0 -74.19796508257302 -58.323271865283616 42.61415295837762 0 1 4
123 11 3 0 -75.11833282528869 -53.08089693969347 41.1998180456694 0 1 4
609 59 4 0 -58.270492999768834 -57.77395670648085 45.37612988377899 0 2 -2
610 59 4 0 -61.19878834361244 -53.41587153248677 42.81015917143242 0 2 -2
837 82 4 0 24.597327480297324 -53.01751587702173 42.76131555848359 1 0 1
838 82 3 0 20.26367593797239 -55.268865459509946 45.427936290704544 1 0 1
764 75 3 0 27.230418396156754 -54.279160331256286 58.710623937842456 3 1 -2
835 82 3 0 28.312255433081393 -42.55863181864006 43.240833994847684 1 0 1
768 75 3 0 36.56834781563192 -55.03002327223669 39.391478686587 3 1 -2
767 75 4 0 33.96954191982111 -53.55163645864696 44.359792158169206 3 1 -2
765 75 3 0 29.790971424264395 -56.424293581443784 54.20262094282873 3 1 -2
766 75 2 0 31.925870647752664 -53.77446700733483 49.602351573741146 3 1 -2
178 16 3 0 44.5097631132269 -59.29040944941086 56.352836748496784 2 -3 0
179 16 4 0 46.113504909891084 -57.90640197008623 62.065671772590996 2 -3 0
816 80 2 0 57.47710468085485 -49.11575897849814 41.483300339507885 -3 -1 0
818 80 3 0 57.63309298068161 -56.603094907345856 49.657571603717656 -3 -1 0
817 80 4 0 57.49172572866225 -54.51433175078292 44.17881042811976 -3 -1 0
819 80 4 0 59.33856343029722 -56.0697966950902 55.62122539760387 -3 -1 0
820 80 4 0 64.6653569928815 -56.07539521749663 58.53183003020831 -3 -1 0
616 60 2 0 66.52847872311852 -56.97850674238137 42.042761034706025 -2 -1 0
615 60 3 0 68.55418683887893 -55.36659421968793 47.46456639037001 -2 -1 0
614 60 3 0 69.45343298509496 -49.581269097967564 48.5781823691094 -2 -1 0
613 60 3 0 72.00383107231713 -44.41848973363399 49.66002175005239 -2 -1 0
530 51 4 0 -75.70225384739189 -19.388106485330862 49.479764880857495 2 -3 2
531 51 4 0 79.45602693870345 -22.78515236621847 49.71389607126035 1 -3 2
775 76 3 0 -56.112258417291564 -24.916221197772085 38.61203669709634 -1 -2 0
774 76 3 0 -54.57722673244546 -27.62261874334273 43.717600963143425 -1 -2 0
773 76 3 0 -55.19266068354613 -30.292926326342496 48.68786025439911 -1 -2 0
598 58 3 0 -32.54313462323645 -24.987017340426178 42.87140166116719 0 0 -2
597 58 4 0 -33.912932167468924 -19.31118878450643 42.140555568933564 0 0 -2
314 30 3 0 -33.17289958566104 -20.406238500190252 55.938138631218486 -2 1 4
315 30 3 0 -28.657924465506206 -21.951135761395346 52.70548234599769 -2 1 4
232 21 4 0 -17.94064961734865 -29.987147190713262 45.62079385906434 -1 -2 -1
231 21 4 0 -22.377689506388883 -32.97933902408328 47.6993894337021 -1 -2 -1
230 21 4 0 -21.532096564294093 -33.43217246795593 53.478615981366 -1 -2 -1
229 21 4 0 -17.644410731497008 -30.75508694978362 57.27235276433639 -1 -2 -1
316 30 2 0 -26.359460919146247 -19.204891565228053 48.03289725448792 -2 1 4
833 82 3 0 30.31610593724551 -31.97221911733381 40.808797394731606 1 0 1
532 51 4 0 75.61357328098379 -23.063706047194955 45.57054858339167 1 -3 2
529 51 4 0 -70.44538795194008 -16.94997817766028 50.88143602186463 2 -3 2
528 51 3 0 -65.45214911142916 -15.718671045682251 49.06258606042835 2 -3 2
463 45 3 0 -70.47815217927753 -5.8596086192346934 44.63061996334517 1 -1 0
464 45 3 0 -66.746094390476 -4.881113250725042 48.45711948860669 1 -1 0
381 36 4 0 -62.64318894479513 -12.242129614990652 57.842975681946136 1 3 -1