LAMMPS data file via write_data, version 29 Aug 2024, timestep = 100000000, units = real

1432 atoms
4 atom types
1331 bonds
1 bond types
1230 angles
1 angle types

-80 80 xlo xhi
-80 80 ylo yhi
-80 80 zlo zhi

Masses

1 329.2
2 305.2
3 345.2
4 306.2

Bond Coeffs # harmonic

1 7.5 5.9

Angle Coeffs # harmonic

1 5 150

Atoms # full

1420 101 3 0 -75.18906423541748 -62.49092627271896 -62.73373456267246 1 0 0
989 70 4 0 1.4059213486647835 -76.26921469165256 -74.3643268930166 -1 1 1
813 57 1 0 5.599350622576205 -70.98227775511795 -60.8696662210793 1 2 0
990 70 3 0 -0.3118620582625495 -71.24594489653288 -77.47653020703628 -1 1 1
988 70 2 0 6.837279959001658 -78.12485553402885 -72.88241435762647 -1 1 1
812 57 4 0 8.958646194338199 -69.12810231600449 -65.43790913375274 1 2 0
811 57 4 0 13.080657815069646 -67.20407961861297 -69.37882714897714 1 2 0
810 57 4 0 14.82745606657385 -69.15331123272016 -74.77950804816105 1 2 0
809 57 4 0 10.776981022485405 -70.14699935357922 -78.71552657150245 1 2 0
710 50 3 0 57.728586144364215 -65.90555357762256 -66.09963331807343 0 0 2
709 50 4 0 54.44043148142659 -64.14566638887717 -70.63667129479153 0 0 2
708 50 2 0 49.366889237875405 -64.41131979515563 -73.611609826748 0 0 2
288 20 2 0 59.47265380810497 -68.35540809561104 -77.23957870467402 -1 0 0
707 50 3 0 46.5501001242028 -62.94782893078211 -78.76750627256483 0 0 2
289 20 4 0 54.21253322281195 -70.70530565241276 -79.52544308713122 -1 0 0
287 20 3 0 63.0779817060387 -64.08390162880744 -75.62069495777546 -1 0 0
711 50 4 0 62.570577601757584 -69.43756510225802 -66.02183615378992 0 0 2
712 50 4 0 67.91953731704295 -71.98419252564354 -64.7896773148556 0 0 2
713 50 4 0 71.43559868474468 -76.49079925096805 -65.65958227982783 0 0 2
549 38 3 0 -71.51479459412779 -46.619178330465175 -70.4821295495291 -1 -1 0
550 38 4 0 -70.64895230867855 -48.40417356014284 -65.07409650261333 -1 -1 0
1421 101 3 0 -77.02382795549904 -57.228743420695395 -64.50254104596887 1 0 0
548 38 1 0 -73.66670263679946 -46.3650130689446 -76.10324137740211 -1 -1 0
171 11 3 0 -35.91042881691895 -43.17837142872242 -75.89950806217182 0 1 0
172 11 4 0 -30.43995400299363 -45.151737714185565 -74.83568759290526 0 1 0
884 62 1 0 15.696780561161914 -53.389005507814936 -75.19153483010288 0 2 -1
885 62 3 0 12.27201759336139 -56.42392549565434 -79.39150180341571 0 2 -1
2 1 3 0 13.129273860217838 -40.003321034125456 -67.50918411105755 -1 0 1
882 62 4 0 20.543353521315268 -44.60099805198222 -78.98295559582964 0 2 -1
883 62 1 0 18.48406886479634 -48.7959880570964 -75.26331314469675 0 2 -1
286 20 3 0 65.08129694553334 -59.58830665389916 -72.15743081528879 -1 0 0
285 20 3 0 69.9968570886967 -57.428756738633574 -69.45826628308696 -1 0 0
1422 101 2 0 78.35336154682955 -53.58700351942384 -64.23787320681079 0 0 0
1423 101 4 0 76.58006690173553 -47.7859602940151 -65.91210819941965 0 0 0
1424 101 3 0 77.4354152624593 -42.381715390922274 -66.67029325212238 0 0 0
1426 101 4 0 -77.83723912142749 -34.79628388534511 -73.30962948170576 1 0 0
1427 101 4 0 -72.93995151420587 -34.547072157772206 -76.31496120681976 1 0 0
1274 90 4 0 -79.03746291418169 -21.26204604976312 -67.22793958466545 -1 -2 1
333 23 4 0 -28.607425749513766 -21.72407438770617 -69.25330014919078 0 2 -1
334 23 4 0 -23.92379966752578 -23.47819264975557 -72.78319452912571 0 2 -1
335 23 4 0 -24.77424327515175 -25.78639627220762 -78.04651375696531 0 2 -1
1 1 3 0 7.443978963108262 -39.67335404961425 -67.47930034266162 -1 0 1
3 1 3 0 18.52227528736483 -38.372541726074815 -66.87376904174602 -1 0 1
4 1 2 0 23.1708543355613 -37.42207966220522 -63.319484999425136 -1 0 1
881 62 4 0 20.967688091230094 -39.104117217740445 -78.8336511018993 0 2 -1
880 62 4 0 22.08482280680414 -33.984133954014005 -76.07021527906097 0 2 -1
879 62 4 0 20.743849094974415 -29.44948996014632 -72.30338680403318 0 2 -1
878 62 3 0 16.80333549274157 -27.777988045480644 -68.08200817014064 0 2 -1
877 62 4 0 16.40805898714006 -27.772368850593423 -62.129335905005924 0 2 -1
5 1 4 0 26.443188778000867 -33.99577184240236 -60.31219017468773 -1 0 1
1425 101 4 0 79.0392847833527 -37.31909014775769 -69.24831513999176 0 0 0
1273 90 4 0 76.58889549555539 -20.386340038733334 -63.43353721133328 -2 -2 1
1275 90 1 0 -74.33815875965887 -17.81590116387564 -68.03527977095607 -1 -2 1
1276 90 1 0 -68.56973893441838 -16.19835245348687 -68.67805606345792 -1 -2 1
1277 90 3 0 -65.81152032691129 -11.06141404367591 -69.48207706872883 -1 -2 1
1278 90 4 0 -61.88255398761106 -7.356434278835789 -70.31272115749218 -1 -2 1
332 23 3 0 -30.57867120351296 -18.15156773578252 -65.23681482317922 0 2 -1
1282 91 2 0 -27.687783717247065 -5.967229564589668 -61.97533973071395 -1 0 0
1281 91 3 0 -23.85260386473331 -9.087978010681484 -65.57666616121251 -1 0 0
1279 91 3 0 -17.201855057592766 -17.31712556192611 -70.5014428869396 -1 0 0
1280 91 3 0 -21.406835426014343 -12.656302008852037 -69.75221572754941 -1 0 0
577 40 3 0 31.59607007066508 -1.3989424602856766 -77.93491775672946 1 -3 1
1269 90 4 0 60.695494515177764 -5.713266365286295 -64.33190153998105 -2 -2 1
1270 90 3 0 61.696317733284374 -11.427038564592157 -63.02136606631501 -2 -2 1
1272 90 4 0 71.21873048114219 -18.242442332653614 -62.69888607331928 -2 -2 1
1268 90 2 0 63.25961356184637 -1.493183432132407 -66.48173698064147 -2 -2 1
1271 90 4 0 66.23396161436187 -14.697293926514455 -63.72756694264624 -2 -2 1
1419 101 3 0 -70.73888058684433 -64.99052652132079 -59.304924645720874 1 0 0
1064 75 4 0 -40.484540667121074 -79.05462381469866 -50.56589942748239 -1 1 0
1324 94 2 0 -15.75327535159 -76.39824229816026 -48.303955466799835 0 2 -1
1147 81 4 0 -26.259919147244112 -78.13581190635723 -41.698436588538634 1 1 2
1325 94 4 0 -12.019615791460174 -72.21412768375112 -47.070774838104995 0 2 -1
816 57 4 0 -7.744970009137628 -79.8103414003125 -57.069091149151895 1 2 0
815 57 3 0 -5.544380774920209 -74.69833124045266 -58.77581070539359 1 2 0
814 57 1 0 -0.09552090402643781 -71.92541324607998 -58.43140445248112 1 2 0
1326 94 3 0 -6.387596263423962 -71.69248629470263 -44.832221424955854 0 2 -1
1327 94 4 0 -2.556279665480872 -71.81878894683742 -40.093779703235136 0 2 -1
1139 81 3 0 9.567183279195094 -76.23760560222948 -47.95969056166082 1 1 2
789 56 3 0 25.366606135127963 -77.88810480822022 -51.121503354323636 -1 0 1
324 22 1 0 78.64709373238045 -64.53703414917571 -43.017458321402074 -2 1 1
325 22 3 0 76.7695954427385 -67.49910639154481 -47.73995021854345 -2 1 1
326 22 4 0 73.58675173647495 -71.65728608190238 -50.25661156691548 -2 1 1
1208 85 4 0 63.02793555520501 -75.49915555855503 -54.56841575116752 0 0 -1
239 16 1 0 79.4417092823411 -75.02828916459245 -40.66810852933868 0 1 0
656 46 4 0 3.977792835961223 -40.94248754309685 -41.56543402235792 -1 1 0
657 46 4 0 3.332925942642779 -43.02341356529096 -47.12947046306398 -1 1 0
658 46 4 0 -0.4338543655692615 -43.97589940192355 -51.63777479402097 -1 1 0
659 46 1 0 -0.24235298925963 -40.062422021293585 -55.91056692311269 -1 1 0
873 62 3 0 21.069479921093535 -43.93523655122645 -49.83087498191911 0 2 -1
1377 98 3 0 -21.541984689253045 -36.541179365372145 -48.00184321226943 0 -2 1
1378 98 3 0 -22.40173193788458 -30.69028556509438 -49.63930228863845 0 -2 1
1379 98 3 0 -22.237807149846955 -26.331792922326706 -54.097335428070984 0 -2 1
1380 98 2 0 -19.308557104154893 -22.24245332247211 -55.775327279681306 0 -2 1
660 46 1 0 -1.1809282488592914 -34.498962010303934 -58.209485945874164 -1 1 0
661 46 3 0 -1.3793999313455625 -28.670866044701157 -58.466339196718835 -1 1 0
662 46 4 0 -0.4318597463404776 -22.873898148708815 -56.823916657523846 -1 1 0
874 62 3 0 19.015781408596162 -38.436523236707494 -49.759107712539155 0 2 -1
876 62 2 0 17.487739747919576 -29.042708976106354 -56.05505921154447 0 2 -1
875 62 3 0 17.845559555044336 -32.89780328530529 -51.32866725369212 0 2 -1
6 1 3 0 29.53533652677701 -30.21976908712021 -57.195428989880135 -1 0 1
7 1 4 0 33.13831322966424 -31.36002836777941 -52.577755462572 -1 0 1
8 1 4 0 38.400348596184365 -29.296190117784707 -50.53816440485343 -1 0 1
9 1 4 0 42.72506609947842 -30.649081584916885 -46.83455474115565 -1 0 1
10 1 4 0 43.610427131758954 -31.25824189768335 -40.93801375561453 -1 0 1
536 37 4 0 63.354463229527106 -37.48872467760339 -55.65624683615811 1 -1 2
535 37 3 0 64.34702574361059 -32.83470446450486 -58.94584357854748 1 -1 2
533 37 1 0 66.3075521963232 -21.642067123024145 -54.22283917685284 1 -1 2
534 37 1 0 65.10789836090844 -26.997841821799287 -56.75337117160099 1 -1 2
1284 91 3 0 -30.880356163967708 -1.274630759479826 -51.89192548704057 -1 0 0
1283 91 4 0 -28.91423308571379 -2.1895117736126384 -57.17165887269994 -1 0 0
331 23 4 0 -29.43967819602497 -18.05264996559661 -59.89539067233846 0 2 -1
330 23 2 0 -30.467706389789377 -14.970296504327345 -54.800110559876785 0 2 -1
329 23 3 0 -27.29851324449592 -12.74525967887131 -49.876604028000514 0 2 -1
1384 98 4 0 -16.43235281638984 -0.7528852211774967 -54.58981890179274 0 -2 1
1382 98 3 0 -18.06227457740465 -10.78041993706714 -58.68454695172023 0 -2 1
1383 98 4 0 -15.147714575121618 -5.903150460214522 -56.85838669176007 0 -2 1
1381 98 4 0 -19.463808890276244 -16.054335721752086 -56.83120559814144 0 -2 1
327 23 3 0 -17.381078725521835 -13.708630572816165 -43.62133479815995 0 2 -1
328 23 3 0 -21.887077066070862 -11.664625644084339 -47.35007391424907 0 2 -1
1385 98 4 0 -16.835647232862204 -1.195481278661354 -49.06395976243986 0 -2 1
970 68 4 0 57.90394242412562 -14.356220010484787 -42.13779917390033 -2 -1 -1
969 68 3 0 59.43946639586362 -11.298739201582507 -46.82639360705262 -2 -1 -1
532 37 4 0 67.39445983895398 -18.45750053325537 -48.990445316176604 1 -1 2
531 37 4 0 68.56468576147418 -18.49545975335732 -43.37860358222541 1 -1 2
968 68 1 0 62.66923772764442 -7.772220641687167 -49.97890680504324 -2 -1 -1
967 68 1 0 65.85191827712777 -3.1662679320552254 -49.27124753981174 -2 -1 -1
240 16 1 0 -75.17293666342994 -75.03614093027379 -38.56255289623884 1 1 0
241 16 3 0 -69.64324703332593 -75.07815664510528 -37.20630147621536 1 1 0
321 22 4 0 -74.85336407526549 -66.45320367438765 -27.810406138742298 -1 1 1
322 22 4 0 -79.07547025820182 -64.4738484019746 -31.813117371068486 -1 1 1
320 22 4 0 -71.21145625905554 -70.77673260526441 -26.92901569602762 -1 1 1
242 16 4 0 -64.26370849090286 -72.38410633221649 -35.77426257192791 1 1 0
319 22 4 0 -70.99379274892667 -74.17333283348323 -21.95322526671446 -1 1 1
323 22 1 0 -79.28694129682407 -63.76714502615241 -37.70300892668306 -1 1 1
1145 81 4 0 -15.999538435816515 -77.28391155424308 -37.12265953338027 1 1 2
1146 81 4 0 -21.66919380934417 -77.83767641217891 -38.0923920774956 1 1 2
895 63 4 0 -16.628289174500956 -78.27851899472317 -23.270381550313704 2 0 -1
894 63 4 0 -12.344540242936935 -74.25648255275007 -23.38060209077198 2 0 -1
893 63 4 0 -9.998749740713079 -69.46630876225868 -20.79326820091297 2 0 -1
1144 81 3 0 -10.557589612413807 -79.22561607661322 -35.91459333699349 1 1 2
1167 83 3 0 3.353461130655175 -60.71928787961061 -38.79579752576743 1 0 2
1329 94 4 0 3.4954526142706106 -78.5798378317928 -32.964441012955454 0 2 -1
1328 94 4 0 0.7628543459693068 -74.28686825719778 -35.87911468418685 0 2 -1
1186 84 3 0 2.345876715092386 -78.05635151657452 -20.51749240790173 0 1 0
1187 84 4 0 7.802619698941562 -76.74719663195935 -22.318096676147047 0 1 0
1168 83 3 0 -0.4973933325787835 -61.89024873270863 -34.265509050910424 1 0 2
1169 83 3 0 -4.576383581137201 -60.799169097810456 -30.06765708482915 1 0 2
892 63 3 0 -4.83532080915767 -67.23728456580861 -20.796020812156545 2 0 -1
1188 84 4 0 9.824674392001283 -71.8207293690302 -25.173511768090663 0 1 0
342 24 3 0 17.196555755883672 -78.4137815591666 -32.082261075831966 1 1 -1
1190 84 4 0 15.029815080188273 -64.37889483042734 -30.755973583512628 0 1 0
1189 84 4 0 11.047446873153035 -68.28307574074245 -29.300741355566142 0 1 0
343 24 3 0 19.496532795962125 -76.80451738719478 -26.577272728350028 1 1 -1
341 24 3 0 15.140791771784764 -76.8120699729272 -37.258891900447765 1 1 -1
1192 84 1 0 24.780743846793275 -60.83545989886653 -25.34679434764399 0 1 0
1191 84 1 0 19.910406652151238 -61.9249360754995 -28.65570471343934 0 1 0
344 24 2 0 19.67160952217761 -75.00460180522047 -21.11309322961573 1 1 -1
1193 84 3 0 26.595298260867583 -63.49589751721819 -20.593572730733634 0 1 0
236 16 4 0 67.17677429202787 -67.65959065345506 -36.79185677430863 0 1 0
237 16 4 0 68.90747705936309 -73.13369852351481 -38.33390485604936 0 1 0
235 16 4 0 63.23414929073826 -63.6685945516998 -37.82200293312515 0 1 0
238 16 4 0 73.85964942006211 -75.9579535567675 -38.52148706162199 0 1 0
649 46 3 0 -20.5705977360599 -53.47426764432063 -37.28479553565061 -1 1 0
650 46 3 0 -16.80942733777047 -51.39018673264226 -33.37225532020213 -1 1 0
651 46 3 0 -14.020181123000599 -47.61403723351939 -30.205256837586443 -1 1 0
1171 83 4 0 -12.741004346879961 -56.57893049531693 -24.073020177170896 1 0 2
1172 83 3 0 -17.416750101405547 -58.90164815013934 -21.97715161709392 1 0 2
1170 83 2 0 -7.592336816268297 -58.64868422683087 -25.836194016765234 1 0 2
655 46 4 0 3.6592630149423195 -43.28792789771546 -36.37575948127868 -1 1 0
652 46 2 0 -8.330314544372238 -47.72718829766666 -28.356177598425607 -1 1 0
653 46 4 0 -2.466550760313598 -47.76963652975951 -28.461552351479604 -1 1 0
654 46 3 0 0.2747040723709668 -46.87409077072349 -33.44329360858181 -1 1 0
349 24 4 0 12.687382840104062 -50.04599922305204 -24.203744198537862 1 1 -1
350 24 4 0 13.151347273329554 -44.741000608087255 -22.26702671174817 1 1 -1
348 24 4 0 13.00343521540051 -55.32468042068441 -22.089676475865947 1 1 -1
234 16 3 0 62.4197006062048 -57.95472220549836 -35.4223771921805 0 1 0
233 16 4 0 62.952621327998074 -53.73757605271282 -31.229981224324632 0 1 0
232 16 2 0 62.2888599126795 -50.90130211612396 -25.857854351509864 0 1 0
231 16 3 0 64.56432390962676 -45.75495285534894 -24.5962407124356 0 1 0
230 16 3 0 63.11987601180329 -40.149202613148574 -24.949830293662924 0 1 0
735 52 3 0 -66.01666887238326 -30.909894233442156 -20.618793126262403 0 -1 2
734 52 3 0 -64.04574535381242 -28.99392492554947 -25.803809649241565 0 -1 2
733 52 3 0 -59.47773363894921 -26.850558788870664 -29.365659788784928 0 -1 2
1017 72 4 0 -44.29254200381789 -23.109316148303044 -31.527020487611964 1 0 1
1018 72 3 0 -41.999253578729686 -28.47825378620078 -30.190337215414306 1 0 1
1019 72 4 0 -38.3970452340747 -32.4038150863929 -27.190692158710213 1 0 1
1020 72 4 0 -34.23820657380101 -32.93844925128694 -22.64643733540211 1 0 1
689 48 3 0 -33.226968982622616 -20.011921375042792 -23.488183503410102 1 0 1
690 48 4 0 -31.572130279979334 -22.94629393790145 -28.204144273664472 1 0 1
11 1 1 0 40.063535397682166 -31.407043171800808 -36.127884153788756 -1 0 1
12 1 1 0 39.25142143995754 -29.94369314870785 -30.379242636566346 -1 0 1
13 1 3 0 34.61172190157899 -30.98825220024563 -26.817454509580156 -1 0 1
14 1 4 0 33.28934541158872 -30.407026331649167 -21.275422463988008 -1 0 1
229 16 3 0 66.35955692267089 -35.26996486218553 -24.80442407763367 0 1 0
678 48 3 0 75.10503152829885 -25.568350242018003 -29.165667480040636 0 0 1
679 48 3 0 76.60264182788336 -21.40908461072219 -24.798669065873906 0 0 1
677 48 3 0 73.96869221226966 -31.41034588975302 -29.094730479584047 0 0 1
680 48 2 0 -79.98732382553511 -17.565210045735295 -22.861595055209918 1 0 1
681 48 4 0 -74.06048328916742 -16.42922740236961 -20.970400170598833 1 0 1
1016 72 2 0 -45.71496684697642 -17.860591522890886 -28.70362954459312 1 0 1
1015 72 3 0 -49.35979756181833 -13.294204490117338 -27.052568571495577 1 0 1
1013 72 3 0 -53.794507063535555 -4.992256622034335 -21.533699574480824 1 0 1
1014 72 3 0 -50.84362880404231 -8.45968826538039 -24.471848785905994 1 0 1
1289 91 1 0 -28.76335684387857 -4.4039075564000285 -28.978012787687724 -1 0 0
1288 91 4 0 -32.03490144544122 -0.11402524715404948 -31.200933564044046 -1 0 0
1290 91 1 0 -23.307123994595873 -6.09284919998625 -27.30640134347188 -1 0 0
1291 91 3 0 -17.568582781726754 -5.438574838265377 -25.942801128865064 -1 0 0
1292 91 4 0 -11.744009390223399 -5.324638004514521 -26.358848214437394 -1 0 0
369 26 3 0 18.859684904404098 -15.750724813657719 -35.575470957272856 0 -1 2
370 26 3 0 23.187685804784287 -14.163418923702213 -32.059553282005275 0 -1 2
371 26 3 0 26.041562739114266 -14.605962511480469 -26.41881149656584 0 -1 2
372 26 2 0 27.547809667768043 -9.813305567216615 -23.289687500127535 0 -1 2
373 26 4 0 28.908795269034574 -4.151970729595295 -23.20811582615403 0 -1 2
530 37 4 0 68.33746152949335 -16.226928370398998 -37.80779562550194 1 -1 2
529 37 4 0 69.07756124717066 -11.971326357625195 -34.23574795181631 1 -1 2
528 37 3 0 67.5553168101964 -7.9586541216042175 -30.240612827762973 1 -1 2
527 37 4 0 68.73279560319614 -7.813776061247037 -24.476720520745495 1 -1 2
625 44 4 0 -64.0124348224835 -78.89094407396779 -14.594970865818867 0 0 1
318 22 3 0 -75.21154411369331 -74.10606346711519 -17.866063036432006 -1 1 1
317 22 4 0 -76.81457031171621 -74.99201753057432 -12.337761989070932 -1 1 1
316 22 2 0 -77.86178414056634 -74.07470563178244 -6.487523152206124 -1 1 1
627 44 4 0 -67.47824805492483 -69.26274849152506 -9.46252164191486 0 0 1
626 44 3 0 -65.72731148294366 -73.37949315114675 -12.982819122909945 0 0 1
628 44 4 0 -70.15792727096401 -65.76750668760323 -5.22712967563955 0 0 1
315 22 3 0 -76.54588334804797 -77.3392315559123 -1.5612840940031774 -1 1 1
1182 84 3 0 -16.25629700995039 -76.87409733852247 -6.98046484041798 0 1 0
1181 84 3 0 -21.00445293294637 -79.4975759416208 -5.439990752019998 0 1 0
1175 83 4 0 -11.478972303391556 -65.51265765384365 -8.690999000504547 1 0 2
1174 83 4 0 -13.800662159560915 -61.39626708353875 -12.550567149523053 1 0 2
1183 84 3 0 -11.285323719654095 -78.49778474688785 -10.088520410665852 0 1 0
1173 83 4 0 -17.181030965012184 -61.85020231807713 -17.286329613045478 1 0 2
1185 84 4 0 -1.7968415224924559 -79.8595675604946 -16.802089237711165 0 1 0
1176 83 4 0 -6.4321958293652415 -67.88407015264127 -7.806857049442653 1 0 2
1179 83 3 0 5.916807137834192 -77.59335333894548 -7.088176968335304 1 0 2
1177 83 1 0 -0.6373088692769556 -69.2367601770996 -8.208060058464286 1 0 2
891 63 4 0 -0.33598390227599645 -65.2823448537291 -17.864916013014625 2 0 -1
1178 83 1 0 4.226413926587127 -71.84502296657335 -6.520390618563629 1 0 2
890 63 2 0 1.907106858245183 -60.82257408824016 -14.613117347162442 2 0 -1
1184 84 2 0 -6.9791516332061665 -79.19145006072155 -14.409656128254856 0 1 0
888 63 3 0 6.235056998420331 -60.728615703943866 -3.5819276477587554 2 0 -1
668 47 3 0 -3.657456226584185 -79.54775447131009 -3.4253151325531834 -2 0 -2
347 24 4 0 14.065685333559903 -60.844358223948454 -19.96467772410672 1 1 -1
346 24 3 0 17.011133318702953 -64.83016953070505 -17.038260260051906 1 1 -1
345 24 4 0 19.086779769253553 -70.33999799410081 -17.53090897697352 1 1 -1
1194 84 4 0 30.12056593492667 -68.34951150055731 -19.097980619178976 0 1 0
184 12 1 0 -29.10324666105861 -41.3987915032801 -10.921717933207898 0 1 -2
185 12 3 0 -34.923450275815355 -40.622878944482736 -11.339458050115148 0 1 -2
675 47 3 0 -13.0276921072078 -52.094303174034984 -7.642811987715531 -2 0 -2
676 47 4 0 -14.086068576191577 -51.18428400337535 -13.18846941085422 -2 0 -2
889 63 3 0 5.109851568096655 -59.971627683213 -9.542248890605377 2 0 -1
674 47 1 0 -7.763256145456136 -53.3607987140065 -4.836394161740499 -2 0 -2
673 47 1 0 -5.134477309109469 -56.82449501320141 -0.8988155266350156 -2 0 -2
351 24 1 0 9.27933872368377 -42.86637884593066 -18.72321073862121 1 1 -1
766 54 3 0 9.767538548754265 -44.19254277400336 -0.23805089050309647 2 -1 0
765 54 4 0 11.690172922062601 -49.019032252443075 -2.9815975280481006 2 -1 0
764 54 2 0 16.618212722831142 -51.494903946856475 -5.55079690461438 2 -1 0
763 54 3 0 21.064587897144232 -52.396125267751 -9.497721800363973 2 -1 0
762 54 3 0 25.522492270896535 -54.23686518511997 -13.101368002919267 2 -1 0
761 54 3 0 30.742274220141226 -53.135200424268206 -14.564920858061727 2 -1 0
736 52 2 0 -69.02222233080639 -30.958469780317895 -15.528877697542768 0 -1 2
737 52 4 0 -73.63833277127344 -29.237209442539992 -12.600558053389443 0 -1 2
738 52 3 0 -76.34924831409545 -24.363722079858505 -11.245685480658507 0 -1 2
121 8 4 0 -59.75063988441774 -27.76069412630528 -3.161391703253636 1 -2 1
122 8 3 0 -56.497370275836474 -22.963592153155243 -4.639155705033503 1 -2 1
684 48 4 0 -60.75086310684518 -20.34393259005101 -18.237069840588646 1 0 1
186 12 4 0 -39.92608007950314 -37.80197389267659 -13.174551745994954 0 1 -2
1022 72 4 0 -32.2132832110922 -27.453084593767827 -13.50890024582697 1 0 1
1021 72 4 0 -31.967904677904663 -29.49538893721034 -18.811129131541804 1 0 1
1024 72 1 0 -30.31309701128327 -30.934616982995912 -2.335340693361344 1 0 1
1023 72 1 0 -30.480159689029378 -29.539315066777345 -7.952311843128782 1 0 1
687 48 1 0 -43.225248162216744 -20.149583254095827 -17.315522419331472 1 0 1
183 12 1 0 -24.07753460065853 -39.053803068110945 -10.116751577472868 0 1 -2
180 12 4 0 -12.917803478266492 -27.9564384028606 -9.601668105742569 0 1 -2
182 12 4 0 -18.553943692437073 -37.53781849870234 -11.399755333368054 0 1 -2
181 12 4 0 -14.145487912837021 -33.511026420274455 -10.563369373701645 0 1 -2
179 12 4 0 -11.76482906441461 -23.434871050293786 -5.868575123958774 0 1 -2
772 54 1 0 -9.666814776185468 -24.56539642086866 -19.43103379874 2 -1 0
768 54 4 0 1.7841486295561764 -36.01688821506463 -3.921062283163796 2 -1 0
353 24 3 0 6.969676720119378 -31.760469130814702 -15.794192478295898 1 1 -1
771 54 1 0 -6.5988736687721605 -29.372536137254563 -17.011643299082227 2 -1 0
770 54 4 0 -5.0495989519687505 -34.136693092738405 -13.397295766833485 2 -1 0
769 54 4 0 -1.6694592062972637 -36.38476708983885 -8.88419148717877 2 -1 0
352 24 1 0 7.602990716395323 -37.63880638809204 -16.655608471674956 1 1 -1
767 54 4 0 6.477857114932613 -39.409646014931255 -2.3132632482161686 2 -1 0
354 24 4 0 3.2507308870676868 -26.517529116116293 -16.88653994676792 1 1 -1
1311 93 4 0 32.83963587550939 -23.82234795680904 -0.12332047578318954 0 1 0
739 52 4 0 78.03416984067995 -23.21459098899733 -11.40892510931976 -1 -1 2
683 48 4 0 -65.61707698411688 -17.796776472656717 -16.154942074177978 1 0 1
682 48 3 0 -71.22489029223759 -16.232671391204153 -15.667729819311635 1 0 1
312 21 4 0 -68.29895096839826 -7.282401490242289 -8.837682457766126 -1 -1 1
311 21 3 0 -65.70147179236506 -1.8580099303371158 -8.826343611007458 -1 -1 1
523 37 3 0 -79.17840328751883 -2.679844711343527 -7.496389186844525 2 -1 2
270 18 4 0 -65.55185632096311 -18.186638853832118 -0.5204648315253023 -1 -1 -1
686 48 4 0 -48.787234846948294 -18.57858053192458 -17.24423684611146 1 0 1
124 8 4 0 -56.656898000961284 -11.633006664411276 -3.627223693891087 1 -2 1
685 48 4 0 -54.801642136756534 -19.47009292628642 -16.609117135535993 1 0 1
123 8 4 0 -55.06590086400177 -17.23840804511046 -3.5261128456322144 1 -2 1
688 48 1 0 -37.28274182357797 -19.88679634954016 -19.187313808024022 1 0 1
359 25 4 0 -35.98666577141844 -7.558969324429148 -2.16235139232672 1 0 3
360 25 3 0 -32.53640266955753 -4.417126523875006 -4.681357886639079 1 0 3
773 54 3 0 -10.98946413966672 -19.204195794124765 -18.96646483242637 2 -1 0
178 12 3 0 -9.564291712484133 -18.814560727358227 -4.010398639949414 0 1 -2
774 54 4 0 -10.720999461391113 -14.188732090979531 -15.761038546624492 2 -1 0
842 59 1 0 5.625201914608317 -0.21421520938347627 -7.59810710837607 -4 1 0
841 59 1 0 6.4679611970765265 -1.0460903697163177 -13.448078505784709 -4 1 0
1110 78 4 0 22.380348047245796 -19.752391798980668 -3.868829969527997 0 0 -1
1315 93 4 0 21.41694183655869 -5.96451996409181 -4.427990996405697 0 1 0
1316 93 4 0 17.035323361471995 -4.259822581916323 -0.8068653336510775 0 1 0
1314 93 4 0 26.81664104699046 -8.70705639958061 -5.100759016226783 0 1 0
1102 78 3 0 40.10963926813673 -0.754859959574842 -4.849182267331192 0 0 -1
1313 93 4 0 30.831660430277132 -12.472317258956739 -3.6562186465318054 0 1 0
1103 78 4 0 36.65994774214781 -4.251963605068089 -1.4967800846402894 0 0 -1
1312 93 3 0 32.93597368660588 -17.92917880267582 -1.843014391114341 0 1 0
741 52 4 0 70.04603040511809 -15.957261866614282 -8.461867749004266 -1 -1 2
740 52 4 0 75.62297009743872 -18.03768463754373 -9.420395109326849 -1 -1 2
525 37 3 0 74.90791036591115 -5.951044776349354 -16.830382406793948 1 -1 2
526 37 2 0 69.54369220925902 -5.692364187961715 -19.068804463811617 1 -1 2
524 37 3 0 77.51347430953044 -4.906388645699376 -11.69420562371322 1 -1 2
742 52 4 0 66.12525209023458 -13.822745094262897 -4.447750007468047 -1 -1 2
631 44 1 0 -68.7441685469106 -72.93790908454666 10.080081833194571 0 0 1
630 44 4 0 -70.18503123504127 -70.27836928108796 4.999606701425664 0 0 1
629 44 4 0 -71.60021919864216 -66.95356582193655 0.4626067660696993 0 0 1
632 44 1 0 -68.8091005816793 -72.12710194555753 15.949074894840862 0 0 1
1346 95 1 0 -12.784793461330658 -63.897715541606146 10.866730132132723 -1 -2 0
1347 95 3 0 -15.906681560499573 -69.23649909674084 11.382777923720209 -1 -2 0
1348 95 4 0 -16.635032168266832 -74.69697661143346 10.187998413466993 -1 -2 0
1345 95 1 0 -9.23281872821267 -61.44099702144597 15.162900848269764 -1 -2 0
669 47 4 0 -3.700221885003518 -75.59890968639448 0.8988721047760501 -2 0 -2
672 47 4 0 -2.9877797613276154 -62.00917098110235 0.5464635302142827 -2 0 -2
671 47 4 0 -1.4366699237050469 -66.18909220046287 4.415661971260967 -2 0 -2
670 47 4 0 -1.9495137845435933 -71.81098226729661 5.090234017767314 -2 0 -2
1344 95 4 0 -5.702731483959137 -63.98516069630135 19.01906495127626 -1 -2 0
887 63 3 0 10.084735009568943 -62.71548115655354 0.2410326768468794 2 0 -1
454 32 3 0 5.934978487920759 -45.66765314650278 18.64432167494683 -1 0 -1
455 32 3 0 11.394923916921872 -47.397130206096286 16.751253635438086 -1 0 -1
458 32 3 0 23.936643770628347 -47.92470183258016 8.689290823085999 -1 0 -1
456 32 2 0 14.674062332538371 -50.18613108988969 12.825591912679553 -1 0 -1
457 32 4 0 20.668634732333487 -50.2572282260376 12.679224588099213 -1 0 -1
459 32 4 0 29.069494412423683 -48.75705891880969 5.943968376882695 -1 0 -1
460 32 4 0 33.95345075877804 -46.01995823982982 3.3935454807867926 -1 0 -1
461 32 4 0 38.75023922019595 -46.21877923136447 0.5626230808840058 -1 0 -1
462 32 4 0 43.90882826050165 -44.43692984000866 1.2757995602709529 -1 0 -1
463 32 1 0 48.50193564839787 -40.805707944589315 2.716784962849709 -1 0 -1
119 8 3 0 -62.395335565778865 -30.789252634355353 8.082682055442046 1 -2 1
120 8 2 0 -62.763260172317146 -29.35491291396905 1.9737010598657627 1 -2 1
117 8 3 0 -53.6683197165153 -33.72315259654462 15.167450030036099 1 -2 1
118 8 3 0 -58.61145775788712 -32.89998109359166 11.95172703138164 1 -2 1
499 35 4 0 -33.16241655951149 -21.903162837726054 8.705626133832727 0 -1 1
498 35 2 0 -38.6456239293508 -21.81773319332699 10.720604451506334 0 -1 1
1025 72 3 0 -27.283981026473423 -32.292661479165226 2.601753519685465 1 0 1
497 35 3 0 -40.99685555272818 -24.9396470266979 15.336688705639887 0 -1 1
1026 72 4 0 -26.940885483313544 -30.395219129191076 7.882256316510646 1 0 1
496 35 3 0 -44.00898938710369 -23.62647905656419 19.854775867748298 0 -1 1
257 18 3 0 -16.331372900446244 -36.396064178759744 14.561835488908988 -1 -1 -1
503 35 4 0 -13.234969467421097 -22.8061034074196 10.665402111934457 0 -1 1
258 18 3 0 -19.73529912911668 -31.70478279044427 16.064825904206877 -1 -1 -1
504 35 4 0 -10.43737665930825 -27.951764851307626 10.527932442617665 0 -1 1
506 35 1 0 -2.8202197525642947 -31.29305174595898 17.97106116929928 0 -1 1
507 35 3 0 3.1336794727096775 -31.501334871570446 17.13522802000488 0 -1 1
505 35 1 0 -7.792853904586235 -30.062744819922354 15.506657455246211 0 -1 1
508 35 4 0 8.470807689069257 -30.05106245369746 15.045786292019093 0 -1 1
977 69 4 0 25.085624404042626 -28.116547167618492 17.355410161596772 0 0 0
976 69 3 0 27.509768126932684 -22.61217825891728 16.854381392818986 0 0 0
1310 93 2 0 30.6691767494259 -27.070318886928977 4.614714371110936 0 1 0
1309 93 3 0 31.013917178811568 -30.351850761121998 9.53660936936515 0 1 0
1308 93 3 0 34.1552256643778 -31.79656495411165 14.280603524949353 0 1 0
1307 93 3 0 39.18021732810488 -32.14948049943341 16.760242405549572 0 1 0
465 32 3 0 50.87965791864905 -31.816869199383863 7.552292566836749 -1 0 -1
466 32 4 0 54.708831657866355 -29.927792357121206 12.064822628940531 -1 0 -1
464 32 1 0 49.456734123801766 -35.40524058797005 2.7905551816047205 -1 0 -1
494 34 4 0 68.10368355118274 -28.22876876573101 3.7521032337580746 0 -2 1
493 34 3 0 70.61919319433729 -23.371321480188683 1.2446362148544943 0 -2 1
915 65 3 0 -68.67092974944927 -7.731896090367149 19.677068937501506 1 0 -1
269 18 3 0 -62.105317121254046 -15.75920314802876 3.4555445588434703 -1 -1 -1
126 8 4 0 -58.11507360485026 -2.212211024531694 3.3969651509125205 1 -2 1
268 18 1 0 -60.311990891039635 -14.48853349374323 9.17520315392426 -1 -1 -1
267 18 1 0 -56.26275261761636 -12.280088423837716 12.92792177438628 -1 -1 -1
266 18 4 0 -50.04753844810203 -12.478871414117926 13.065732111319823 -1 -1 -1
125 8 4 0 -58.005349138479886 -7.283434753449789 0.08806053295932764 1 -2 1
129 8 3 0 -50.07136837887061 -2.079481307951545 17.61904375768158 1 -2 1
265 18 4 0 -43.91658220664971 -13.031017139117074 12.075961670908724 -1 -1 -1
500 35 3 0 -27.96267784373497 -19.229043214714956 9.355597151274015 0 -1 1
357 25 3 0 -37.281805142154475 -3.006604701555324 7.291597879060197 1 0 3
358 25 2 0 -38.32563033460746 -7.109011172575451 3.4722481230167124 1 0 3
264 18 4 0 -38.92710119585711 -10.991160743052005 14.6701014707342 -1 -1 -1
263 18 4 0 -34.41162679964061 -12.521142259042458 17.55778837446407 -1 -1 -1
262 18 3 0 -29.914061553833363 -15.952832562444197 19.870157953486775 -1 -1 -1
502 35 4 0 -17.278504295019182 -18.89135249028349 10.922253509652696 0 -1 1
501 35 4 0 -22.67510339210114 -16.850082608371117 11.227602846734433 0 -1 1
176 12 2 0 -11.120297825502231 -10.386078788117278 2.4298323483293673 0 1 -2
175 12 3 0 -11.198469426001525 -6.962715466571717 6.981136383073132 0 1 -2
177 12 4 0 -9.283621392782727 -15.764061167309965 0.9473785637655002 0 1 -2
174 12 3 0 -8.865186156014735 -3.879233749572079 11.542655732401002 0 1 -2