LAMMPS data file via write_data, version 29 Aug 2024, timestep = 105000000, units = real

532 atoms
4 atom types
481 bonds
1 bond types
430 angles
1 angle types

-80 80 xlo xhi
-80 80 ylo yhi
-80 80 zlo zhi

Masses

1 329.2
2 305.2
3 345.2
4 306.2

Bond Coeffs # harmonic

1 7.5 5.9

Angle Coeffs # harmonic

1 5 150

Atoms # full

432 41 4 0 -7.589489363984013 -77.22507842871617 -75.15149156570301 -2 0 -1
200 18 4 0 26.319309231895286 -44.18076331158605 -63.86114593223739 -2 3 5
202 18 4 0 36.2510011291868 -41.83592885917889 -67.96597032254029 -2 3 5
201 18 4 0 30.210373847118532 -41.363264375684295 -67.2422342927789 -2 3 5
263 25 3 0 51.030425290735344 -48.183484206359175 -57.05652904937534 -3 -1 3
502 48 4 0 68.20084551057607 -42.63225185749459 -66.52958948892865 0 -2 0
501 48 4 0 62.66302114504401 -42.468084993901144 -68.70868722563216 0 -2 0
414 40 3 0 -66.0368799263955 -39.5334964421007 -77.27959849694876 2 -2 3
413 40 3 0 -60.69048577772232 -37.52251007477204 -75.13813229224861 2 -2 3
137 12 4 0 1.1400779537736254 -21.561384392696926 -77.68462035303635 -3 2 -3
78 6 3 0 49.976846830389206 -26.53549606587782 -77.97315866743722 -2 0 3
500 48 4 0 57.43643396331483 -39.49866646164097 -69.62888117983077 0 -2 0
498 48 3 0 51.55114456815869 -30.86523299772033 -66.9657853276281 0 -2 0
499 48 4 0 53.058820684540244 -36.31472052110694 -67.25165100850805 0 -2 0
497 48 4 0 52.424067570287356 -25.28173627762546 -66.36831538134847 0 -2 0
79 6 4 0 47.32931064424687 -21.18454107790488 -77.76885424892801 -2 0 3
135 12 3 0 4.782724985388987 -10.783806416511844 -77.10232787737039 -3 2 -3
136 12 2 0 4.421540726775082 -16.68580036239325 -77.50958174004472 -3 2 -3
134 12 3 0 6.810043895141435 -5.618323554433476 -76.70665753068815 -3 2 -3
133 12 3 0 11.793199445199981 -3.2713750552557426 -77.88784889657519 -3 2 -3
81 6 4 0 39.487907388732495 -19.070074059185306 -71.38937905952616 -2 0 3
82 6 4 0 34.10751512502596 -17.049271569176554 -71.63829190917144 -2 0 3
80 6 4 0 44.74222695588774 -17.685359102972857 -73.50822609532733 -2 0 3
496 48 2 0 55.617253435161736 -20.308288305584032 -66.92684863551536 0 -2 0
494 48 3 0 56.304907430781896 -11.145009331224845 -73.7363185298125 0 -2 0
493 48 3 0 57.71499508103507 -8.354902904143994 -78.90769687263797 0 -2 0
495 48 3 0 57.128816869424455 -15.551163209721494 -70.34806724559864 0 -2 0
272 25 4 0 68.75412441668308 -11.852318336934546 -63.75238733387725 -3 -1 3
199 18 4 0 26.156149954362817 -45.91701549388946 -58.198607326040964 -2 3 5
198 18 3 0 26.729830094899906 -42.255496553734105 -53.70939149081632 -2 3 5
264 25 3 0 55.82510541582698 -44.75712386767644 -56.852314943287276 -3 -1 3
132 11 4 0 -59.472536818600155 -22.839474232861082 -49.48175015115733 1 1 -2
471 45 4 0 -0.887206528103969 -26.453955485593557 -50.124182303322335 -4 -1 2
470 45 4 0 4.348999881703719 -27.29614026456916 -47.84425365516508 -4 -1 2
472 45 4 0 -3.1131183810109864 -22.015663883579705 -53.543033215155496 -4 -1 2
197 18 4 0 24.026077050269585 -38.237347054438615 -50.13789834619569 -2 3 5
195 18 3 0 15.503915574829573 -37.41021445936103 -43.16944893592166 -2 3 5
196 18 2 0 18.234705289045227 -37.0824884064689 -48.00520873302491 -2 3 5
467 45 4 0 20.712025019493836 -24.491353946722587 -45.240715180514194 -4 -1 2
466 45 2 0 25.336329290780288 -27.61973446924363 -43.17620999456987 -4 -1 2
468 45 3 0 15.260570915295492 -25.969508581444106 -46.81329490989496 -4 -1 2
469 45 4 0 9.851015039045757 -25.667148561630007 -49.20179691775889 -4 -1 2
465 45 3 0 28.87233974938328 -31.819710307887565 -40.54452572446858 -4 -1 2
9 1 4 0 40.551612166396474 -22.69973369034385 -40.235079953982805 -2 -1 2
10 1 4 0 37.18554195364326 -27.329121331251766 -38.968437447415155 -2 -1 2
265 25 3 0 57.418555499912635 -38.76882186358922 -57.693651520526714 -3 -1 3
269 25 4 0 56.817665969854026 -19.356508985169885 -54.00500829220905 -3 -1 3
266 25 2 0 53.958099660151305 -34.7658234451001 -54.61619985674487 -3 -1 3
268 25 3 0 53.37905314887888 -23.91382477284985 -51.773841374265956 -3 -1 3
267 25 4 0 54.31749493976574 -29.700230067313253 -51.071329612844586 -3 -1 3
1 1 3 0 66.552184401771 -33.642614506896 -55.5611823074834 -2 -1 2
2 1 3 0 68.24266879721569 -28.190837547898447 -53.44418128391288 -2 -1 2
3 1 3 0 68.66995088532454 -24.118951507471458 -49.63175718448475 -2 -1 2
4 1 2 0 65.62185017888744 -20.1336472552371 -46.594439258889054 -2 -1 2
244 23 3 0 -65.48406692245008 -11.001806875189212 -46.28268751767403 1 -1 2
243 23 3 0 -71.12834230232207 -9.670551524206694 -47.32761142345079 1 -1 2
131 11 4 0 -57.889536269046886 -19.629461105481255 -54.13664734787787 1 1 -2
129 11 4 0 -58.89875035566062 -9.869547448195881 -59.37890211729907 1 1 -2
130 11 4 0 -56.44571739890742 -14.56588654902053 -56.74836075277814 1 1 -2
128 11 3 0 -61.60699491924623 -4.437565459495344 -58.8438603906764 1 1 -2
245 23 3 0 -59.99552772951001 -10.622072069214415 -45.689147505323525 1 -1 2
246 23 2 0 -55.33406421211226 -7.316569604209172 -46.65330793179962 1 -1 2
247 23 4 0 -51.82002406988852 -3.988986123726259 -50.31864054859557 1 -1 2
5 1 4 0 60.35163976734694 -17.789875688658768 -44.592081572927555 -2 -1 2
270 25 4 0 60.9416933500381 -17.742182488929902 -58.220300306039675 -3 -1 3
271 25 4 0 63.285045595837694 -13.962741441919656 -62.0690590180277 -3 -1 3
256 24 2 0 -36.5874078522642 -61.160112629370396 -34.747533910287935 1 -1 0
258 24 3 0 -28.299868379638113 -68.53783961988835 -30.811722831537107 1 -1 0
257 24 4 0 -33.09608268173728 -65.85947130548024 -32.59546446259547 1 -1 0
259 24 4 0 -23.921800934313843 -70.72173482215672 -27.940799640659918 1 -1 0
260 24 4 0 -19.829090492322486 -74.80485343386694 -28.28906156929663 1 -1 0
261 24 4 0 -17.575837770170523 -78.27141030529016 -32.1516444293292 1 -1 0
462 44 4 0 -71.6635222333694 -55.020664811502996 -29.771100256820546 2 4 0
461 44 4 0 -71.57970292687233 -59.37089201337826 -25.45607395088493 2 4 0
253 24 3 0 -36.21644626635523 -48.37001330272646 -41.78250048753148 1 -1 0
255 24 3 0 -38.44601346702801 -56.00383585254198 -34.66846233959877 1 -1 0
254 24 3 0 -39.434591288338424 -50.83093475651452 -37.24103354974584 1 -1 0
42 2 2 0 -21.78591018842081 -58.32312300928698 -39.60924070835766 0 1 0
442 42 4 0 -24.850465553473942 -39.654425087072724 -34.00086223902513 0 -3 1
41 2 3 0 -21.40725618230005 -60.918926019184745 -33.87042373244913 0 1 0
40 2 1 0 -21.172930595417476 -60.506282658044455 -27.705262286600846 0 1 0
39 2 2 0 -23.412377524078412 -58.37750937683299 -22.673988823179368 0 1 0
463 45 3 0 27.086857454685177 -41.6696515156868 -36.86175360048031 -4 -1 2
437 42 4 0 -47.99490390435344 -27.661618334675545 -30.046067320161974 0 -3 1
436 42 2 0 -51.41832231463349 -23.834454201713125 -26.734982928079656 0 -3 1
438 42 3 0 -45.04441227122164 -32.8439109559112 -28.923891258899918 0 -3 1
439 42 4 0 -39.61888742812475 -34.406828178759305 -31.015098131414767 0 -3 1
440 42 4 0 -34.32459547364013 -33.74611098401084 -32.69819865605686 0 -3 1
44 3 3 0 -35.92579754891781 -26.019807130740393 -22.11023137442114 1 0 0
441 42 4 0 -29.854282950972635 -36.85410891276421 -34.5534357764276 0 -3 1
45 3 3 0 -37.38678440057 -23.104494576856183 -27.210580509255653 1 0 0
194 18 3 0 15.755138000712888 -38.71788186999946 -37.44304406663331 -2 3 5
193 18 3 0 12.978186180096577 -39.22546110122069 -32.062553139039714 -2 3 5
464 45 3 0 29.37215671527022 -37.426885627982955 -39.847485760405675 -4 -1 2
52 3 4 0 -66.4686251999909 -12.553493418446823 -30.651433325342097 1 0 0
48 3 3 0 -46.69802776583534 -11.24943718139763 -33.993175024262804 1 0 0
51 3 4 0 -62.55421274700075 -8.25696073941866 -32.21577434253441 1 0 0
49 3 4 0 -52.01939970742561 -8.754431417355113 -34.86798778413765 1 0 0
50 3 4 0 -57.56212410698563 -6.198112502426291 -34.20554388612015 1 0 0
434 42 3 0 -51.835792024579106 -14.253637467697265 -20.76596712411032 0 -3 1
435 42 3 0 -53.579596927240544 -18.391759946616943 -24.762835382801924 0 -3 1
46 3 2 0 -40.41755511415026 -18.142241369087188 -28.043260024440677 1 0 0
47 3 4 0 -43.58731605169633 -15.715641054598645 -32.115521574890295 1 0 0
8 1 4 0 45.52324012800194 -19.993372366026634 -38.591829410515594 -2 -1 2
295 28 3 0 53.42566639358473 -0.8336135765264215 -29.580390037745143 0 0 2
6 1 3 0 55.734775130422506 -16.835631604184105 -41.23580205485196 -2 -1 2
7 1 4 0 50.198297725719534 -17.324101222694516 -39.99380977098909 -2 -1 2
512 49 4 0 60.889645694939254 -6.121781406209521 -24.227504672826274 0 -2 -2
511 49 4 0 62.4677215659825 -1.239979213324129 -21.654946316174208 0 -2 -2
294 28 3 0 56.99679564279882 -1.6249320212099523 -34.19073671699428 0 0 2
457 44 4 0 -79.64487644251429 -67.77075154365245 -7.3409190693947135 2 4 0
456 44 2 0 -78.0973139894958 -72.36117256576242 -3.8535797728533967 2 4 0
458 44 3 0 79.1301939312301 -65.75179239627693 -12.69423293682126 1 4 0
459 44 4 0 -78.31973859719855 -62.07468382686145 -16.535863868549214 2 4 0
37 2 3 0 -24.48052606287937 -63.921376735613514 -13.234550798705877 0 1 0
36 2 1 0 -21.520274289558223 -68.14196547633007 -10.406263308581051 0 1 0
35 2 1 0 -19.185989802345176 -68.69400655342363 -5.156852992349771 0 1 0
34 2 1 0 -13.978166936323907 -68.2872812603763 -2.0235667946305504 0 1 0
38 2 4 0 -25.53896841330205 -60.08662403302174 -17.418966238670585 0 1 0
180 16 4 0 57.73881236049897 -77.51914528049358 -3.578475224241361 1 -1 3
179 16 4 0 62.722073901629756 -75.39429836427094 -0.588052835659816 1 -1 3
127 11 4 0 -62.566099382914096 -0.29466522301779746 -54.81598775092682 1 1 -2
460 44 4 0 -74.05650401631576 -61.90548956861485 -20.37813869548735 2 4 0
278 26 3 0 -23.09692822000016 -58.147978212876225 -0.6326881241605051 1 -3 0
277 26 4 0 -21.56106783392844 -55.14265311182773 -5.903262463923517 1 -3 0
276 26 2 0 -20.566421075203394 -50.87885051491826 -9.86473502450385 1 -3 0
274 26 3 0 -15.078278373466086 -45.47017193475917 -16.906798362023423 1 -3 0
275 26 3 0 -16.372229143255158 -50.451914782589064 -13.776200716393499 1 -3 0
11 2 3 0 -3.800446852163588 -47.05865469407148 -16.3476971676879 0 1 0
12 2 2 0 -6.292386954895752 -43.52047727674527 -12.393990637184652 0 1 0
43 3 3 0 -31.19679245478354 -25.727778360194996 -18.404532745945705 1 0 0
273 26 3 0 -15.686020840655917 -39.85051300025805 -15.08279492441847 1 -3 0
16 2 2 0 -5.208863356953882 -26.65442983514439 -1.1817923340288572 0 1 0
15 2 1 0 -5.989786907018778 -27.965557566791023 -7.294492174789504 0 1 0
14 2 3 0 -6.407371309674012 -31.921983527901425 -11.956617100016999 0 1 0
13 2 4 0 -5.707246301615656 -37.54683827352852 -12.416144524733733 0 1 0
433 42 3 0 -47.95652619550735 -9.94836982363401 -20.07813386091846 0 -3 1
242 22 4 0 61.17127825298104 -4.890128179648426 -3.0842093541878017 1 -1 -1
77 6 4 0 52.89336016697962 -31.44727992277884 -79.72585143099812 -2 0 3
76 6 2 0 56.35151315075458 -36.12132500838823 -78.40591695437337 -2 0 3
75 6 3 0 62.07333759927519 -37.174693017873686 -79.39106554617688 -2 0 3
455 44 3 0 -78.05144949083552 -75.33272467104123 1.3706048063820024 2 4 0
479 46 4 0 -48.30575638368767 -74.41742276752571 18.420920678086997 -2 0 0
478 46 3 0 -45.93727505647528 -78.38635572057458 14.693459520447917 -2 0 0
93 8 3 0 -32.41333301402587 -74.77270362875291 11.422601308673755 1 4 -3
94 8 3 0 -31.882717511021976 -76.55012739800797 17.004718008530197 1 4 -3
279 26 4 0 -22.21422484348696 -61.94251827509803 3.170672640791393 1 -3 0
280 26 4 0 -21.59955399806635 -67.58297129770453 5.123048569972653 1 -3 0
281 26 4 0 -19.504918429753257 -70.56417044477625 9.870691801709144 1 -3 0
282 26 4 0 -17.78170850609628 -75.71518835406168 12.510540371899424 1 -3 0
31 2 1 0 -10.590563970280154 -64.42278120128925 13.00692151414954 0 1 0
30 2 2 0 -10.803774048825076 -60.982801611025856 17.824954533718415 0 1 0
33 2 1 0 -10.635084909432045 -69.18928367560248 3.1184957875201404 0 1 0
32 2 1 0 -8.60408833405688 -65.83581186331656 7.390430226245004 0 1 0
454 44 3 0 -79.08178878659463 -75.75600584145099 7.367527862854087 2 4 0
453 44 3 0 79.79819914831282 -75.11235812479626 12.940889362793273 1 4 0
176 16 2 0 74.95651961537574 -64.11592864514542 4.02895313513372 1 -1 3
177 16 4 0 71.77854682549712 -69.33207274522124 3.4167202110756634 1 -1 3
175 16 3 0 79.04827157551826 -60.45938069183582 3.0262767390995116 1 -1 3
174 16 3 0 -75.6243605914949 -59.17969345855705 1.0938556126966816 2 -1 3
173 16 3 0 -70.31731870564808 -58.2151076672819 2.497145680524776 2 -1 3
383 37 3 0 -4.572143049698963 -42.31281125097557 13.518483164921461 1 -2 0
384 37 3 0 -8.561498190899904 -40.42414607906608 17.164188098878924 1 -2 0
17 2 4 0 -3.1265360468502434 -22.837275474218288 3.0785486783456566 0 1 0
20 2 2 0 -0.605361923037711 -19.195118658012962 18.51404020354488 0 1 0
19 2 4 0 -1.9764593198212124 -19.580214458992184 13.10244868298014 0 1 0
18 2 4 0 -0.2863849813021129 -20.754545419944527 7.859542844684327 0 1 0
233 22 3 0 33.489709691311774 -30.613989182404858 19.43770721145792 1 -1 -1
234 22 3 0 35.86017221272627 -25.627154229961636 20.73886089972019 1 -1 -1
443 43 3 0 47.09648530367324 -35.30373326573548 11.755335695204533 0 -2 1
444 43 3 0 50.483024615492454 -31.468676177788513 14.586789696628308 0 -2 1
445 43 3 0 53.90086528439003 -30.130241887564566 19.503887310863593 0 -2 1
238 22 3 0 54.177777949825526 -17.044748193748994 13.703870607072353 1 -1 -1
240 22 4 0 54.84853191962176 -9.111175843809841 5.013851056824852 1 -1 -1
239 22 4 0 54.45278335801001 -12.571130343242974 9.825680193488258 1 -1 -1
241 22 4 0 58.19107505800136 -5.483143837895087 1.903883760700227 1 -1 -1
237 22 4 0 50.629134815620446 -18.530423649187373 17.986116326953024 1 -1 -1
480 46 4 0 -45.571583645398434 -73.73659105581298 23.319966912530685 -2 0 0
481 46 4 0 -40.712748845172904 -71.72475277448855 26.316277709627855 -2 0 0
482 46 4 0 -34.90711096381147 -70.01394300990884 25.49956627981962 -2 0 0
28 2 1 0 -12.283951843840557 -52.34463204970854 25.20527071877055 0 1 0
27 2 1 0 -12.165686681355327 -47.07182173295669 27.96720338554613 0 1 0
26 2 2 0 -9.890675111786337 -42.43691750014433 31.121229773974616 0 1 0
29 2 1 0 -11.513156323877688 -56.12226407309558 20.846413479485328 0 1 0
25 2 2 0 -5.007057917528764 -40.79543676186258 33.5982712381249 0 1 0
408 39 3 0 -57.73657562102282 -21.135218929971863 33.23180990089758 -1 -4 1
407 39 4 0 -53.66919417147816 -19.262347053669654 29.71130917567832 -1 -4 1
409 39 4 0 -58.83337360272845 -24.157484578066597 38.12561133211949 -1 -4 1
385 37 3 0 -10.897099309684888 -37.17498773826972 21.499301065776834 1 -2 0
386 37 2 0 -11.063825382886147 -32.78021488017022 25.458589868293693 1 -2 0
387 37 4 0 -10.166491036031436 -28.091205940337844 28.366492063187806 1 -2 0
388 37 3 0 -10.609255566047638 -22.269665936123015 27.83343438158882 1 -2 0
21 2 1 0 1.2277205785362102 -21.816106840207183 23.609929696610433 0 1 0
24 2 2 0 -1.7480714692523358 -36.04577046056547 32.081347961062555 0 1 0
23 2 2 0 -0.856639036785545 -31.226772335315793 29.457212805637724 0 1 0
22 2 3 0 1.460806167440671 -27.03993244255233 26.039401472204844 0 1 0
61 4 4 0 11.521498612266425 -32.293892540145045 41.081921891086544 1 -1 0
62 4 4 0 11.238589506247907 -36.389435521306304 36.94783381648329 1 -1 0
452 43 4 0 25.81095837720292 -29.699966077622825 29.236102829246953 0 -2 1
451 43 4 0 30.525065953667948 -31.09997427301856 31.87341236218944 0 -2 1
450 43 4 0 36.11592032383146 -29.920455936621238 33.77781594214003 0 -2 1
449 43 4 0 40.64943127336859 -26.106660514293804 31.767551049777545 0 -2 1
235 22 3 0 40.26631447102974 -22.31682742409528 22.37324226645432 1 -1 -1
448 43 3 0 46.2430797495693 -24.955857290444666 32.25061808411071 0 -2 1
447 43 4 0 50.90259500188501 -27.442563587117636 29.443179106016572 0 -2 1
446 43 2 0 52.92210690460966 -27.365264831046733 24.464854922720072 0 -2 1
213 20 3 0 -66.95277450846282 -16.915457931118485 30.664368690060744 -1 0 -3
214 20 3 0 -63.80892671228675 -11.98053459989031 31.908716385907013 -1 0 -3
403 39 3 0 -57.18247208130858 -1.4816022969980525 20.034308468927286 -1 -4 1
215 20 3 0 -60.815130082308976 -9.697187070287612 35.961375211677556 -1 0 -3
406 39 2 0 -50.93086353640644 -14.585908028214874 27.85840363332009 -1 -4 1
405 39 3 0 -52.34556485241316 -11.548572468844139 23.015372849102686 -1 -4 1
404 39 3 0 -55.909261608654035 -6.889264656967305 22.113506474023342 -1 -4 1
217 20 4 0 -49.53316824421218 -6.484304972478988 32.96839804001368 -1 0 -3
216 20 2 0 -54.8224242218346 -7.922325281276187 35.673078652326026 -1 0 -3
218 20 3 0 -43.64310714877457 -7.7059480596596 33.75562462362433 -1 0 -3
221 20 4 0 -28.1634410162481 -12.06452560553672 38.24286827795793 -1 0 -3
220 20 4 0 -34.179087238071645 -11.650782178889068 37.20899161489421 -1 0 -3
219 20 4 0 -38.502606799921956 -7.883523413014036 36.67346388389201 -1 0 -3
389 37 4 0 -8.544120649565912 -17.0290379492192 25.708068406931908 1 -2 0
392 37 4 0 -1.1079899091339636 -1.075828468177914 24.377254597490285 1 -2 0
390 37 4 0 -4.884111873974495 -12.576650502011605 25.092297603820125 1 -2 0
391 37 4 0 -2.58899720455009 -7.1038460443247615 23.352220459045846 1 -2 0
236 22 2 0 45.14914694924144 -19.293799559666372 19.944805281564026 1 -1 -1
423 41 3 0 1.5100768375224847 -56.52957448333011 51.56131238706942 -2 0 -2
340 32 4 0 31.177150225188832 -46.038474530861315 51.46643451497216 1 0 0
341 32 4 0 32.207851341493914 -51.90088846382406 52.67348682978525 1 0 0
342 32 4 0 29.24954058700428 -56.46179696555088 55.355046560419304 1 0 0
339 32 4 0 31.341228828936185 -40.57306895471435 53.38300424398168 1 0 0
411 39 4 0 -61.37204137946453 -23.71326933326731 49.245914209653236 -1 -4 1
410 39 4 0 -61.12139654151859 -25.019165147212494 43.34265255613464 -1 -4 1
142 12 4 0 -1.645897419750206 -36.86458283083206 60.15813489923098 -3 2 -4
60 4 4 0 14.33345951076327 -28.03819263720089 44.42143457093281 1 -1 0
59 4 4 0 12.872619682099302 -23.803855702687787 48.437279055372606 1 -1 0
336 32 2 0 40.191946342384526 -27.902513275144575 51.14809260195749 1 0 0
337 32 4 0 36.183736739852314 -31.68892916643165 50.48496253457424 1 0 0
338 32 3 0 32.124209655866494 -35.0497485346894 52.012524980120524 1 0 0
335 32 3 0 46.05921902181694 -26.353696432114084 51.64798251933128 1 0 0
334 32 3 0 50.49951162765683 -22.969185157633472 53.84925754003858 1 0 0
333 32 3 0 56.2181728587459 -20.02764701202926 53.63112425272016 1 0 0
412 39 4 0 -59.38300690915373 -23.495960372893407 54.50341138357715 -1 -4 1
306 29 2 0 -32.0403755449005 -2.9581420477184257 49.17198061541488 -3 2 2
307 29 4 0 -36.89056277086995 -0.14448267839680287 49.719753558693746 -3 2 2
222 20 4 0 -22.813755165459373 -10.335704403197035 38.73948484985631 -1 0 -3
304 29 3 0 -20.580069203947694 -0.539310434725347 47.990317217210205 -3 2 2
305 29 3 0 -26.194752698508328 -1.9335662533080973 49.29734714804567 -3 2 2
303 29 3 0 -15.282006614439185 -2.2494886598670703 47.46426434651708 -3 2 2
56 4 2 0 17.459033070142922 -16.950915146277605 60.4315714293491 1 -1 0
58 4 3 0 13.889302701623741 -19.168586990751677 51.93592182951581 1 -1 0
57 4 4 0 12.659982298862003 -16.347486996223136 57.05968408678186 1 -1 0
428 41 3 0 -11.668872646453949 -67.05838101177751 67.13432594134632 -2 0 -2
429 41 4 0 -10.448929608444619 -72.16863063196362 69.27287217720728 -2 0 -2
430 41 4 0 -10.260146382358954 -75.42553630762275 74.29828431157497 -2 0 -2
427 41 4 0 -9.837304317462493 -61.54533209527096 67.60156185520177 -2 0 -2
431 41 4 0 -7.677334167322319 -77.94197768450469 78.84193408384498 -2 0 -2
420 40 4 0 -64.80481729878902 -56.93812816770155 64.83551744919244 2 -2 2
417 40 4 0 -72.49047908705101 -48.73300818543518 71.97667392944103 2 -2 2
418 40 3 0 -73.3683576967416 -52.09478384428455 67.38849488509629 2 -2 2
419 40 4 0 -70.89796693696894 -56.610012456624325 64.69349940270536 2 -2 2
416 40 2 0 -72.42843809306332 -43.29659863561915 74.23671324021022 2 -2 2
415 40 3 0 -68.48440627880035 -40.53355695883918 77.50358243562172 2 -2 2
422 40 4 0 -56.34800834438588 -49.64773176395187 66.28245941232163 2 -2 2
421 40 4 0 -59.77394595626018 -54.387584449907045 67.01138691950169 2 -2 2
426 41 2 0 -6.767948713417621 -57.669924718139114 64.79540934205626 -2 0 -2
424 41 3 0 0.9794468642607032 -56.71805656923803 57.370672554427124 -2 0 -2
425 41 3 0 -2.1218359224397974 -55.59631781834921 61.61865522426745 -2 0 -2
74 6 3 0 65.73693441229135 -40.1802472382234 77.12168562594402 -2 0 2
73 6 3 0 67.48805799632248 -44.7316711263517 73.40167778077408 -2 0 2
141 12 4 0 -1.6342293781709547 -31.704469260714376 63.20231338918797 -3 2 -4
139 12 4 0 1.6740886345297006 -27.02707015054817 72.76853188556396 -3 2 -4
140 12 4 0 1.2726051768512185 -28.943768115755688 67.45348904854791 -3 2 -4
138 12 3 0 -0.34692254567398184 -25.27687678105067 77.8301915873259 -3 2 -4
53 4 3 0 20.31465503406882 -31.60761511503862 63.12335685290012 1 -1 0
55 4 3 0 20.899855832360043 -21.19727068302124 62.087584200311134 1 -1 0
54 4 3 0 22.544930350276772 -26.633270661455153 61.011513800989654 1 -1 0
178 16 3 0 67.98951689488098 -72.62811372019516 0.16824963290774347 1 -1 3
372 35 4 0 -72.77308852344068 16.75341518338802 -79.26441431068275 0 0 1
373 36 3 0 -50.733943984063366 5.68784018578125 -68.74668745155671 0 -3 0
374 36 3 0 -54.43144045377447 7.722247446921768 -64.78600383065955 0 -3 0
251 23 4 0 -41.22532540616854 13.380152770587467 -61.03499367564077 1 -1 2
252 23 4 0 -41.038184098922 19.39974318460417 -61.71531071591709 1 -1 2
371 35 4 0 -75.11425838149397 21.874790698895403 -79.46775282314498 0 0 1
370 35 4 0 -77.72586951517715 26.403803021490212 -76.70700849090619 0 0 1
151 13 4 0 -7.681176514299506 26.855738860301262 -65.10677893309071 1 0 2
150 13 4 0 -7.251923383567897 24.99860446221622 -70.61066553573811 1 0 2
149 13 4 0 -6.713267428892361 25.437401688251473 -76.20908925624983 1 0 2
526 51 2 0 59.67110091426141 37.06004718288269 -78.59838948668495 3 0 -3
369 35 4 0 78.27594728312103 27.73412094431873 -72.90667498700343 -1 0 1
368 35 3 0 77.22463155781732 28.857808668356867 -67.32807680847961 -1 0 1
319 30 4 0 65.07995530051802 29.65986463709223 -60.9327495389898 4 -1 -2
317 30 4 0 65.57665212930233 34.40941718099331 -70.88454751325152 4 -1 -2
318 30 3 0 64.87764068381581 30.816808827627415 -66.42106188796228 4 -1 -2
181 16 4 0 53.301792576548316 78.826055845689 -5.155259111502106 1 -2 3
316 30 2 0 69.01706730709867 38.872755448429906 -72.79127363804585 4 -1 -2
367 35 4 0 77.96790740465366 31.458393108853915 -62.14592460241128 -1 0 1
523 51 3 0 71.06801103542355 26.409628208167504 -79.4325658919453 3 0 -3
191 17 4 0 -46.82989151576107 54.227004342515016 -76.79645569417596 1 0 0
190 17 4 0 -42.76187887607792 52.74060692181204 -72.50940974127171 1 0 0
189 17 4 0 -43.665000369857246 53.35524613039941 -66.58341251779648 1 0 0
188 17 3 0 -41.81101752691784 56.43492332637448 -61.727622116994056 1 0 0
83 7 3 0 -15.370115421676319 52.71580163865802 -64.45526702758335 -1 1 2
84 7 3 0 -18.93351555813194 57.38922936379074 -63.57327591774565 -1 1 2
527 51 4 0 57.51402832606337 40.241914719697476 -74.3073123288335 3 0 -3
528 51 3 0 57.17539884188231 45.13413652294756 -70.49216837591884 3 0 -3
529 51 4 0 60.782307045627384 46.82433812731815 -65.88331151338944 3 0 -3
530 51 4 0 64.81477834398484 50.8691546427312 -64.79474294672944 3 0 -3
315 30 3 0 70.75090866564061 44.06024087276193 -75.0248595762767 4 -1 -2
531 51 4 0 69.44522221389835 52.66896478819962 -61.652482034403135 3 0 -3
87 7 4 0 -13.975573724207049 71.68007938842639 -69.73118049285635 -1 1 2
86 7 2 0 -17.47077517071939 67.82562317512613 -67.60137806820572 -1 1 2
85 7 3 0 -18.127845476118033 63.34868653730161 -63.61864704427397 -1 1 2
88 7 3 0 -8.612865062787682 74.52364336840753 -68.75965117066536 -1 1 2
89 7 4 0 -4.299785203010416 74.33576448202739 -65.23563526062115 -1 1 2
378 36 3 0 -67.91495360539922 11.669433127914132 -47.872282540501395 0 -3 0
379 36 4 0 -70.69794155096542 11.396595486352973 -42.54219071515624 0 -3 0
377 36 4 0 -64.0147579602068 13.359119208591173 -51.753736102709254 0 -3 0
182 16 4 0 52.86766440457308 73.0214601251181 -6.622193126767338 1 -2 3
248 23 3 0 -50.5886008980136 1.2819538472697283 -52.903565218015935 1 -1 2
375 36 3 0 -56.93541162319443 10.004618596398604 -59.786540179116535 0 -3 0
126 11 2 0 -62.44335970070526 2.493945114060125 -49.50885165261725 1 1 -2
376 36 2 0 -61.71975718430175 10.797696375382264 -55.96846464398775 0 -3 0
125 11 3 0 -58.8336512749636 3.0375427520541196 -44.78970861981789 1 1 -2
249 23 4 0 -47.52437946615185 5.5329273154862975 -55.64236985474238 1 -1 2
124 11 3 0 -54.563517185850735 5.082628658781422 -40.872037220547334 1 1 -2
123 11 3 0 -49.36874013871161 3.218215138012594 -38.54244311296113 1 1 -2
250 23 4 0 -44.809807666436676 9.276559677357286 -59.130815112262404 1 -1 2
492 47 4 0 -8.30171704410497 14.823346307735767 -42.188040682174496 0 -1 -2
491 47 4 0 -10.744779637089874 10.225982988856403 -40.28315252505579 0 -1 -2
111 9 4 0 38.60133694727834 18.88979915532562 -39.68383795278444 -3 0 0
210 19 4 0 -71.8070733828342 36.461691248741424 -42.11969838333647 -1 1 -4
211 19 4 0 -66.8672895762599 40.166011225400425 -42.61995937067824 -1 1 -4
152 13 4 0 -11.256016998193152 30.90032582523965 -63.279514793103125 1 0 2
160 14 4 0 -10.720652278221555 30.988649525160838 -46.22909445221657 -1 -2 -1
159 14 4 0 -12.827039513266742 26.494355489939355 -43.25880639191764 -1 -2 -1
161 14 4 0 -12.387422158644817 33.70226737574468 -50.87902924967465 -1 -2 -1
162 14 4 0 -11.500256179255636 37.92805415964755 -54.73222844772321 -1 -2 -1
112 9 4 0 36.76368196451463 15.280150015028385 -44.19142831410277 -3 0 0
113 10 3 0 28.25904691373012 30.963381994030204 -53.35225708606763 2 0 1
114 10 3 0 31.826705427125155 34.710756045928534 -49.74648998649705 2 0 1
115 10 3 0 34.19353015062518 35.735325268475364 -44.47367170411604 2 0 1
116 10 2 0 37.92764449293133 37.93320543495693 -40.62197382464474 2 0 1
320 30 4 0 66.58977209961097 25.487881231073644 -56.820412796213496 4 -1 -2
321 30 4 0 68.22677267027395 23.458638858827445 -51.11639528297832 4 -1 -2
322 30 4 0 69.86817217934791 25.110526664625603 -45.69814170653753 4 -1 -2
366 35 2 0 75.4222738910973 31.35050618792032 -57.09686310167283 -1 0 1
365 35 3 0 74.8148084801388 35.418377619488716 -52.98217124298602 -1 0 1
212 19 4 0 -63.93357901156856 43.31787970901007 -46.828720875398815 -1 1 -4
532 51 4 0 72.53297625486984 56.806507188855555 -58.5998729918806 3 0 -3
364 35 3 0 70.3265566989172 39.762665447849294 -53.01653259532794 -1 0 1
363 35 3 0 67.00366113878465 43.27734117079142 -56.074546613884806 -1 0 1
187 17 4 0 -43.12611390006682 61.02530525209841 -57.867184442178484 1 0 0
186 17 2 0 -41.03094250819217 65.33318809590415 -54.26271511221295 1 0 0
185 17 3 0 -36.51990359021987 69.21158012959418 -53.00431496058947 1 0 0
184 17 3 0 -32.78433202014628 71.42714573274023 -48.412440076364824 1 0 0
183 17 3 0 -31.758590570941358 69.70642974549963 -42.836795141919445 1 0 0
92 7 4 0 -3.086675959994442 77.20223834425323 -50.336348938497345 -1 1 2
91 7 4 0 -0.4050418359026164 74.5845800809112 -55.27164614489633 -1 1 2
90 7 4 0 -1.7775359385426657 73.2177407575096 -60.34275535229092 -1 1 2
380 36 4 0 -69.81450130822448 9.729749420170364 -37.20917852520338 0 -3 0
381 36 4 0 -65.83386799226817 7.208728330315442 -33.676072731877156 0 -3 0
382 36 4 0 -61.61439761188586 3.41433203612445 -32.28570722405188 0 -3 0
490 47 4 0 -12.17681085085063 6.458111713316537 -35.51605047308931 0 -1 -2
489 47 4 0 -11.181861273961415 6.189115862946653 -29.530849705588203 0 -1 -2
488 47 3 0 -6.8933051442322935 6.55044519115344 -25.653209726989267 0 -1 -2
486 47 2 0 3.5569134087441356 10.549441957175674 -28.406242508878115 0 -1 -2
487 47 4 0 -1.1713152540262803 7.516920480137634 -27.28418661885796 0 -1 -2
485 47 3 0 7.759502160642508 15.28482132236357 -28.006058698255266 0 -1 -2
484 47 3 0 9.625760081229288 20.483450936390557 -29.274848468464732 0 -1 -2
503 49 3 0 33.784203643262 6.223753498021568 -35.658178451366176 0 -2 -2
504 49 3 0 39.10186284860593 7.697178380073276 -37.86808329776344 0 -2 -2
299 28 4 0 39.845187582354185 14.171946680888292 -22.166965184165893 0 0 2
298 28 3 0 41.208010045303766 9.005598156817003 -24.330642494915313 0 0 2
297 28 4 0 45.14411122027244 5.540091838233975 -27.29549979413963 0 0 2
300 28 4 0 38.05931570521349 19.17158670137532 -23.806695230783486 0 0 2
293 28 3 0 59.52429297138721 0.909986132879409 -38.97995692305918 0 0 2
505 49 3 0 45.1334082988579 8.505828239945847 -37.39553562043106 0 -2 -2
296 28 2 0 49.52824017629558 1.93312121974185 -25.932547029390832 0 0 2
507 49 4 0 54.639302241538985 9.993983733352655 -32.00708567699099 0 -2 -2
506 49 2 0 50.476409631802845 10.750207951606324 -35.94914627184044 0 -2 -2
508 49 3 0 58.599517437372974 11.836825305750587 -27.11573757430302 0 -2 -2
509 49 4 0 59.99014356039532 8.736418839156812 -22.059900749100763 0 -2 -2
510 49 4 0 62.214176098901504 4.180197254955322 -19.583823184383743 0 -2 -2
107 9 4 0 50.58577348602688 18.623089412473906 -21.339473054974615 -3 0 0
209 19 4 0 -76.93938249169898 34.545360957199115 -39.937864143436926 -1 1 -4
208 19 3 0 79.1807876433309 34.76191341757704 -35.74143748862597 -2 1 -4
158 14 3 0 -13.403337535045544 23.81361892234721 -38.202951946300054 -1 -2 -1
167 15 4 0 -17.03869157801229 22.826095806328986 -22.305016663775923 -2 -1 0
166 15 2 0 -19.029792678412218 25.42182857757941 -27.01420444273565 -2 -1 0
165 15 3 0 -20.360730659700543 30.722892031378855 -29.468250701049527 -2 -1 0
164 15 3 0 -19.51064060061356 34.66703497944708 -33.63026059167517 -2 -1 0
157 14 4 0 -11.276997782784424 22.58723200684826 -32.744971788878495 -1 -2 -1
163 15 3 0 -16.134259347827008 39.75644462820943 -32.75703648249394 -2 -1 0
156 14 2 0 -8.057496179713866 24.498184115796533 -27.741944365555497 -1 -2 -1
155 14 3 0 -6.018102618688639 26.757545116644103 -22.635988638809202 -1 -2 -1
154 14 3 0 -6.406429278842849 31.33998051270473 -19.776016599630292 -1 -2 -1
483 47 3 0 11.796608207754169 24.138077439313896 -33.13115439303917 0 -1 -2
117 10 4 0 42.919065280966244 38.77027177734607 -38.23135047865807 2 0 1
301 28 4 0 37.40029567901461 24.379980518061405 -26.627323257317972 0 0 2