
# ===============================
# FORCE FIELD (same as original)
# ===============================
bond_style harmonic
bond_coeff 1 7.5 5.9

angle_style harmonic
angle_coeff 1 5.0 150.0

pair_style hybrid/overlay lj/cut 10.0 base/rna 18.0
pair_modify shift yes
pair_coeff * * lj/cut 2.0 8.9089871814

pair_coeff 1 1 base/rna 0.00000 3.0 13.8 1.5 0.5 1.8326 0.9425 1.8326 1.1345
pair_coeff 1 2 base/rna 0.00000 3.0 13.8 1.5 0.5 1.8326 0.9425 1.8326 1.1345
pair_coeff 1 3 base/rna 0.00000 3.0 13.8 1.5 0.5 1.8326 0.9425 1.8326 1.1345
pair_coeff 1 4 base/rna 3.33333 3.0 13.8 1.5 0.5 1.8326 0.9425 1.8326 1.1345
pair_coeff 2 2 base/rna 0.00000 3.0 13.8 1.5 0.5 1.8326 0.9425 1.8326 1.1345
pair_coeff 2 3 base/rna 5.00000 3.0 13.8 1.5 0.5 1.8326 0.9425 1.8326 1.1345
pair_coeff 2 4 base/rna 0.00000 3.0 13.8 1.5 0.5 1.8326 0.9425 1.8326 1.1345
pair_coeff 3 3 base/rna 0.00000 3.0 13.8 1.5 0.5 1.8326 0.9425 1.8326 1.1345
pair_coeff 3 4 base/rna 3.33333 3.0 13.8 1.5 0.5 1.8326 0.9425 1.8326 1.1345
pair_coeff 4 4 base/rna 0.00000 3.0 13.8 1.5 0.5 1.8326 0.9425 1.8326 1.1345

special_bonds lj 0.0 0.0 1.0
Finding 1-2 1-3 1-4 neighbors ...
  special bond factors lj:    0        0        1       
  special bond factors coul:  0        0        0       
     2 = max # of 1-2 neighbors
     2 = max # of 1-3 neighbors
     4 = max # of 1-4 neighbors
     6 = max # of special neighbors
  special bonds CPU = 0.000 seconds
neighbor 15.0 bin
neigh_modify every 10 delay 0
comm_style tiled
timestep 10

# ===============================
# 1. MINIMIZATION
# ===============================
minimize 1.0e-4 1.0e-6 1000 10000

CITE-CITE-CITE-CITE-CITE-CITE-CITE-CITE-CITE-CITE-CITE-CITE-CITE

Your simulation uses code contributions which should be cited:

- Type Label Framework: https://doi.org/10.1021/acs.jpcb.3c08419

@Article{Gissinger24,
 author = {Jacob R. Gissinger, Ilia Nikiforov, Yaser Afshar, Brendon Waters, Moon-ki Choi, Daniel S. Karls, Alexander Stukowski, Wonpil Im, Hendrik Heinz, Axel Kohlmeyer, and Ellad B. Tadmor},
 title = {Type Label Framework for Bonded Force Fields in LAMMPS},
 journal = {J. Phys. Chem. B},
 year =    2024,
 volume =  128,
 number =  13,
 pages =   {3282–-3297}
}

CITE-CITE-CITE-CITE-CITE-CITE-CITE-CITE-CITE-CITE-CITE-CITE-CITE

Switching to 'neigh_modify every 1 delay 0 check yes' setting during minimization
Generated 0 of 6 mixed pair_coeff terms from geometric mixing rule
Neighbor list info ...
  update: every = 1 steps, delay = 0 steps, check = yes
  max neighbors/atom: 2000, page size: 100000
  master list distance cutoff = 33
  ghost atom cutoff = 33
  binsize = 16.5, bins = 10 10 10
  2 neighbor lists, perpetual/occasional/extra = 2 0 0
  (1) pair lj/cut, perpetual, trim from (2)
      attributes: half, newton on, cut 25
      pair build: trim
      stencil: none
      bin: none
  (2) pair base/rna, perpetual
      attributes: half, newton on
      pair build: half/bin/newton
      stencil: half/bin/3d
      bin: standard
Per MPI rank memory allocation (min/avg/max) = 8.424 | 8.424 | 8.424 Mbytes
   Step          Temp          E_pair         E_mol          TotEng         Press     
         0   0              3.0604728e+15  2470.137       3.0604728e+15  2.0493338e+14
      1000   0             -513.61178      21.250428     -492.36135     -0.70934787   
Loop time of 0.633814 on 4 procs for 1000 steps with 1032 atoms

99.5% CPU use with 4 MPI tasks x 1 OpenMP threads

Minimization stats:
  Stopping criterion = max iterations
  Energy initial, next-to-last, final = 
    3.06047281719132e+15  -492.116421229492  -492.361349663844
  Force two-norm initial, final = 8.6558392e+16 3.1996533
  Force max component initial, final = 5.9795665e+16 0.86231436
  Final line search alpha, max atom move = 0.072096287 0.062169663
  Iterations, force evaluations = 1000 1460

MPI task timing breakdown:
Section |  min time  |  avg time  |  max time  |%varavg| %total
---------------------------------------------------------------
Pair    | 0.38166    | 0.45376    | 0.54061    |   9.4 | 71.59
Bond    | 0.027566   | 0.031131   | 0.03439    |   1.8 |  4.91
Neigh   | 0.0031955  | 0.0031976  | 0.0032017  |   0.0 |  0.50
Comm    | 0.041987   | 0.13062    | 0.20476    |  17.9 | 20.61
Output  | 2.4826e-05 | 2.5193e-05 | 2.5932e-05 |   0.0 |  0.00
Modify  | 0          | 0          | 0          |   0.0 |  0.00
Other   |            | 0.01508    |            |       |  2.38

Nlocal:            258 ave         293 max         223 min
Histogram: 1 0 0 1 0 0 1 0 0 1
Nghost:            852 ave         900 max         810 min
Histogram: 1 1 0 0 0 0 0 1 0 1
Neighs:           2568 ave        3142 max        1895 min
Histogram: 1 0 0 1 0 0 0 0 1 1

Total # of neighbors = 10272
Ave neighs/atom = 9.9534884
Ave special neighs/atom = 4.8255814
Neighbor list builds = 6
Dangerous builds = 0
reset_timestep 0

# ===============================
# 2. OUTPUTS
# ===============================
dump d1 all custom 50000 outputs/${tag}.lammpstrj id mol type q xu yu zu
dump d1 all custom 50000 outputs/100ASO_unmod.lammpstrj id mol type q xu yu zu
dump_modify d1 sort id

thermo_style custom step pe ke etotal temp press density
thermo 10000
thermo_modify flush yes

variable vpe equal pe
variable vke equal ke
variable vT  equal temp
variable vE  equal etotal
variable vRg equal gyration(all)

fix favg all ave/time 10000 10 100000 v_vpe v_vke v_vT v_vE v_vRg     file outputs/thermo_${tag}_averaged.dat
fix favg all ave/time 10000 10 100000 v_vpe v_vke v_vT v_vE v_vRg     file outputs/thermo_100ASO_unmod_averaged.dat

# ===============================
# 3. EQUILIBRATION (NVT)
# ===============================
velocity all create ${T_target} 74382 rot yes dist gaussian
velocity all create 325 74382 rot yes dist gaussian

# Langevin thermostat for equilibration
fix fxlang all langevin ${T_target} ${T_target} 1000.0 36237
fix fxlang all langevin 325 ${T_target} 1000.0 36237
fix fxlang all langevin 325 325 1000.0 36237
fix fxnve  all nve
fix recenter all momentum 1000 linear 1 1 1

# Equilibration run
run 5000000
Generated 0 of 6 mixed pair_coeff terms from geometric mixing rule
Per MPI rank memory allocation (min/avg/max) = 7.314 | 7.314 | 7.315 Mbytes
   Step         PotEng         KinEng         TotEng          Temp          Press         Density    
         0  -492.36135      998.79493      506.43358      325            10.437427      0.134578     
     10000   404.4628       966.4993       1370.9621      314.49126     -1.8177917      0.134578     
     20000   385.10362      1026.0318      1411.1354      333.86266      2.0096885      0.134578     
     30000   363.32168      1051.1691      1414.4908      342.04214      3.1699988      0.134578     
     40000   406.57865      1020.7756      1427.3542      332.15232      6.989499       0.134578     
     50000   313.58948      989.5024       1303.0919      321.97628      1.7313255      0.134578     
     60000   294.67639      996.41891      1291.0953      324.22686     -4.339339       0.134578     
     70000   216.55722      955.95261      1172.5098      311.05945      1.8464252      0.134578     
     80000   166.60094      906.87264      1073.4736      295.08921     -1.7871726      0.134578     
     90000   158.15515      890.52184      1048.677       289.76879     -2.5319637      0.134578     
    100000   98.37586       922.82836      1021.2042      300.28108      6.0049646      0.134578     
    110000   102.56937      904.57626      1007.1456      294.34199      1.1049784      0.134578     
    120000   61.373623      899.29044      960.66407      292.62203     -1.7616389      0.134578     
    130000   66.64448       940.40958      1007.0541      306.00187     -2.6593685      0.134578     
    140000   14.109566      922.15956      936.26912      300.06345      0.45854128     0.134578     
    150000   43.066394      937.73964      980.80603      305.13309     -0.020196617    0.134578     
    160000   34.982102      956.11257      991.09467      311.1115      -1.0554849      0.134578     
    170000   30.261087      910.97664      941.23773      296.42462      3.7247127      0.134578     
    180000   60.434421      921.83591      982.27033      299.95814      3.9674556      0.134578     
    190000   39.24523       935.38672      974.63195      304.36747      3.2660786      0.134578     
    200000   51.061264      901.37116      952.43242      293.29907      0.85818135     0.134578     
    210000   62.682158      955.96158      1018.6437      311.06237     -2.3151917      0.134578     
    220000  -17.695135      855.4398       837.74467      278.35337      2.1937663      0.134578     
    230000  -51.913474      941.53581      889.62233      306.36833      4.6854679      0.134578     
    240000  -35.636608      890.43287      854.79626      289.73984      5.87946        0.134578     
    250000  -42.502019      878.56688      836.06486      285.87874     -5.1390756      0.134578     
    260000   6.7769346      899.54955      906.32649      292.70634      1.5954502      0.134578     
    270000   4.3013872      935.10467      939.40606      304.27569     -4.4482529      0.134578     
    280000   20.676453      936.12216      956.79861      304.60677     -0.73950138     0.134578     
    290000  -40.104035      934.08287      893.97884      303.94321      4.3541652      0.134578     
    300000  -11.17863       942.43186      931.25323      306.6599       9.5709802      0.134578     
    310000  -40.503423      927.18235      886.67893      301.69783      1.8517311      0.134578     
    320000  -21.570873      922.54225      900.97138      300.18798      0.9150015      0.134578     
    330000  -31.12163       927.57469      896.45306      301.8255      -1.1734641      0.134578     
    340000   19.930379      918.36512      938.2955       298.82878     -1.7386799      0.134578     
    350000  -34.849976      914.75359      879.90361      297.65361     -0.67835671     0.134578     
    360000  -86.707305      910.91637      824.20906      296.40501      0.25173398     0.134578     
    370000  -13.193465      900.18878      886.99531      292.91434     -1.6867852      0.134578     
    380000  -13.38925       933.81941      920.43016      303.85748      6.5982583      0.134578     
    390000  -52.279015      894.58449      842.30547      291.09074     -7.2356194      0.134578     
    400000  -4.7982442      939.83363      935.03539      305.81446      3.0161932      0.134578     
    410000  -6.3876499      942.73443      936.34678      306.75836     -0.42102476     0.134578     
    420000   16.336724      928.11589      944.45261      302.0016       0.92259623     0.134578     
    430000   65.013202      975.46701      1040.4802      317.40928      6.1472996      0.134578     
    440000  -28.97137       900.29984      871.32847      292.95048     -0.64143577     0.134578     
    450000  -49.548442      906.21342      856.66497      294.87471      3.4986271      0.134578     
    460000  -81.438763      887.54647      806.1077       288.80063      5.5983469      0.134578     
    470000  -87.364106      921.67191      834.30781      299.90478      2.5639214      0.134578     
    480000  -52.712526      936.28009      883.56756      304.65816      5.3019574      0.134578     
    490000  -65.43155       880.83721      815.40566      286.61749      9.2977608      0.134578     
    500000  -42.659676      888.12137      845.46169      288.9877      -6.5006285      0.134578     
    510000  -38.20795       902.97201      864.76406      293.81998      2.5821025      0.134578     
    520000  -16.83424       922.356        905.52176      300.12738      1.1533125      0.134578     
    530000  -73.619259      941.05257      867.43331      306.21109     -0.042571071    0.134578     
    540000  -95.382614      926.69202      831.30941      301.53828      4.0812205      0.134578     
    550000  -69.986344      908.76627      838.77993      295.70538      0.24247992     0.134578     
    560000  -59.799983      935.87932      876.07934      304.52776     -5.8131935      0.134578     
    570000  -40.904401      928.98947      888.08507      302.28585      5.6162384      0.134578     
    580000  -65.31839       899.26761      833.94922      292.61459      8.5583284      0.134578     
    590000  -35.92591       876.67661      840.7507       285.26366      0.71795051     0.134578     
    600000  -45.181515      937.49929      892.31778      305.05488      4.830817       0.134578     
    610000  -114.95769      917.31551      802.35782      298.48724      1.8745506      0.134578     
    620000  -36.989612      912.36708      875.37747      296.87706      8.9864409      0.134578     
    630000  -89.625233      960.1577       870.53247      312.42775      0.75622128     0.134578     
    640000  -55.683913      915.85759      860.17368      298.01284      6.8565692      0.134578     
    650000  -66.182005      928.68972      862.50771      302.18832      5.4339835      0.134578     
    660000  -77.167108      966.2208       889.05369      314.40064     -4.770398       0.134578     
    670000  -91.725568      922.85798      831.13241      300.29071     -0.29346452     0.134578     
    680000  -115.64449      943.0775       827.43301      306.86999     -0.0534875      0.134578     
    690000  -136.2893       914.79305      778.50375      297.66645     -5.2945818      0.134578     
    700000  -123.88269      901.10095      777.21826      293.21115     -1.8865283      0.134578     
    710000  -125.6923       907.17791      781.48561      295.18854     -5.2715664      0.134578     
    720000  -78.893794      928.96969      850.07589      302.27942      6.0244128      0.134578     
    730000  -93.727699      941.86282      848.13512      306.47474     -0.0084727261   0.134578     
    740000  -109.74591      939.75746      830.01155      305.78967      8.7576111      0.134578     
    750000  -101.04504      961.61107      860.56603      312.90067     -2.8487896      0.134578     
    760000  -54.462113      942.1035       887.64139      306.55306     -3.7129371      0.134578     
    770000  -306.984        895.34059      588.35659      291.33677     -1.302018       0.134578     
    780000  -323.0741       809.8056       486.73149      263.50436     -12.065995      0.134578     
    790000  -332.38372      867.52249      535.13877      282.28498      2.7452368      0.134578     
    800000  -347.78944      855.29859      507.50915      278.30742      3.3705661      0.134578     
    810000  -337.7806       812.19144      474.41084      264.28069     -1.8265045      0.134578     
    820000  -361.80477      862.0186       500.21383      280.49406     -2.3134935      0.134578     
    830000  -337.00271      825.72628      488.72357      268.68483     -0.00058028237  0.134578     
    840000  -369.36141      845.72643      476.36503      275.19272      0.43766915     0.134578     
    850000  -375.66641      841.18343      465.51702      273.71446      5.5468881      0.134578     
    860000  -371.38687      848.75973      477.37286      276.17973      4.7997558      0.134578     
    870000  -399.40345      834.7907       435.38724      271.63432     -7.0204743      0.134578     
    880000  -395.3486       817.1268       421.77819      265.88662      8.5191783      0.134578     
    890000  -366.73387      842.75132      476.01746      274.22464      0.42610062     0.134578     
    900000  -412.19142      824.32587      412.13445      268.22914     -3.1931999      0.134578     
    910000  -382.23191      864.6479       482.416        281.34962     -2.3575898      0.134578     
    920000  -350.60159      827.33148      476.72989      269.20715      6.4358806      0.134578     
    930000  -375.95366      862.62434      486.67068      280.69116      5.1235705      0.134578     
    940000  -375.8247       856.71423      480.88953      278.76806      9.1307321      0.134578     
    950000  -408.50964      834.45945      425.94981      271.52653     -6.7784703      0.134578     
    960000  -376.06885      861.61601      485.54716      280.36306     -2.5520414      0.134578     
    970000  -372.63889      847.63438      474.99549      275.81355      1.9316862      0.134578     
    980000  -372.90997      801.74087      428.8309       260.88016      4.1356514      0.134578     
    990000  -345.43153      867.82909      522.39757      282.38475      6.8451836      0.134578     
   1000000  -276.91366      839.2822       562.36854      273.09581     -4.782026       0.134578     
   1010000  -410.05991      877.63814      467.57822      285.57654      3.9138311      0.134578     
   1020000  -350.78642      842.87641      492.08999      274.26534     -4.0351439      0.134578     
   1030000  -350.94711      852.44198      501.49487      277.3779      -0.63267519     0.134578     
   1040000  -344.34428      812.53566      468.19137      264.3927      -6.5095328      0.134578     
   1050000  -376.55634      842.70026      466.14392      274.20802      7.7791858      0.134578     
   1060000  -382.74744      900.39564      517.6482       292.98165      5.5328252      0.134578     
   1070000  -372.7178       832.15885      459.44106      270.77793      6.9109521      0.134578     
   1080000  -348.37312      864.47017      516.09705      281.29178      2.2729653      0.134578     
   1090000  -334.35981      878.77012      544.41031      285.94487      6.2597628      0.134578     
   1100000  -371.04294      856.30399      485.26105      278.63457     -1.20713        0.134578     
   1110000  -332.83292      851.37629      518.54337      277.03114      0.5974354      0.134578     
   1120000  -331.98954      819.63868      487.64914      266.70397     -2.7722358      0.134578     
   1130000  -331.11496      827.87462      496.75966      269.38388      6.95699        0.134578     
   1140000  -390.8638       833.94437      443.08057      271.35893      2.2278297      0.134578     
   1150000  -377.75342      838.43452      460.6811       272.81999      2.5239174      0.134578     
   1160000  -369.95106      840.32109      470.37002      273.43386      5.8380204      0.134578     
   1170000  -425.29206      874.48587      449.19381      284.55081      0.71045492     0.134578     
   1180000  -342.2222       860.58891      518.36671      280.02885     -1.5210248      0.134578     
   1190000  -384.28399      831.09082      446.80683      270.4304       2.6647697      0.134578     
   1200000  -332.1722       839.71877      507.54658      273.23787     -0.26394594     0.134578     
   1210000  -329.20386      823.58525      494.38139      267.98815      3.5406844      0.134578     
   1220000  -309.37904      848.29819      538.91916      276.02955      5.0334902      0.134578     
   1230000  -356.14419      839.40035      483.25616      273.13426     -2.1353579      0.134578     
   1240000  -326.4826       836.8302       510.3476       272.29795      0.64003594     0.134578     
   1250000  -330.19237      837.17481      506.98244      272.41009      0.11020556     0.134578     
   1260000  -370.46286      847.73782      477.27496      275.84721      4.5951315      0.134578     
   1270000  -302.69133      837.07097      534.37964      272.3763      -1.5376359      0.134578     
   1280000  -362.40989      847.73304      485.32315      275.84565      2.3872783      0.134578     
   1290000  -342.54247      843.85066      501.30819      274.58236     -1.0477054      0.134578     
   1300000  -378.77429      886.05829      507.28399      288.31639      6.6785765      0.134578     
   1310000  -333.89096      877.36245      543.47149      285.48683     -4.2208628      0.134578     
   1320000  -335.65874      825.56849      489.90975      268.63348     -8.2679054      0.134578     
   1330000  -369.82807      860.33563      490.50756      279.94644      11.024743      0.134578     
   1340000  -391.49339      858.16816      466.67477      279.24116     -1.0497266      0.134578     
   1350000  -369.48682      893.28995      523.80314      290.66951      6.9814836      0.134578     
   1360000  -389.71734      850.97593      461.25859      276.90086      5.6868455      0.134578     
   1370000  -421.48468      850.42543      428.94075      276.72174      0.52079272     0.134578     
   1380000  -398.8834       841.42815      442.54475      273.79409      2.1866999      0.134578     
   1390000  -410.25443      848.96605      438.71161      276.24686      1.0640977      0.134578     
   1400000  -413.82905      853.85183      440.02278      277.83666     -7.7729704      0.134578     
   1410000  -390.41697      827.85802      437.44104      269.37848     -9.0632991      0.134578     
   1420000  -448.02977      861.17864      413.14887      280.22074      6.2214916      0.134578     
   1430000  -447.88482      837.1677       389.28288      272.40777      5.5635204      0.134578     
   1440000  -384.19358      886.84421      502.65063      288.57212     -0.39015524     0.134578     
   1450000  -326.97279      868.75325      541.78046      282.68546      6.4410779      0.134578     
   1460000  -358.30192      774.73997      416.43805      252.09428      0.40427095     0.134578     
   1470000  -409.76891      856.66997      446.90106      278.75366     -0.035144244    0.134578     
   1480000  -386.73071      853.43742      466.7067       277.70181     -1.0382106      0.134578     
   1490000  -460.08529      898.42105      438.33576      292.33913     -0.26705882     0.134578     
   1500000  -395.73486      860.31227      464.57741      279.93884      5.6667396      0.134578     
   1510000  -338.5911       858.52891      519.93781      279.35854      1.1413406      0.134578     
   1520000  -408.73876      828.84108      420.10232      269.69836     -2.763315       0.134578     
   1530000  -371.40535      869.16846      497.76312      282.82057      8.597253       0.134578     
   1540000  -395.68203      835.87661      440.19458      271.98766      2.4782358      0.134578     
   1550000  -334.60862      832.58064      497.97202      270.91518     -2.3563727      0.134578     
   1560000  -386.91065      808.29696      421.38632      263.01346     -3.8820428      0.134578     
   1570000  -358.60876      832.28227      473.67351      270.81809     -3.6293175      0.134578     
   1580000  -366.22522      850.14637      483.92115      276.63093     -2.1738732      0.134578     
   1590000  -408.4857       867.14662      458.66092      282.16268      10.632744      0.134578     
   1600000  -366.6465       836.10807      469.46158      272.06298      0.4129226      0.134578     
   1610000  -339.19398      803.71002      464.51604      261.52091     -3.6826132      0.134578     
   1620000  -322.77817      881.23612      558.45795      286.74729     -0.77996846     0.134578     
   1630000  -371.48006      858.64432      487.16425      279.3961       4.8583643      0.134578     
   1640000  -330.08964      848.60912      518.51948      276.13072     -3.5647633      0.134578     
   1650000  -349.45873      871.66005      522.20132      283.63131      2.516145       0.134578     
   1660000  -364.01214      851.85416      487.84202      277.18663     -2.2930803      0.134578     
   1670000  -379.34598      851.99291      472.64693      277.23178      1.1589727      0.134578     
   1680000  -410.22061      838.4467       428.22609      272.82395      6.1794717      0.134578     
   1690000  -365.26578      871.60668      506.3409       283.61395     -1.8503679      0.134578     
   1700000  -360.83242      843.72709      482.89466      274.54215      5.2157622      0.134578     
   1710000  -362.14102      854.60588      492.46486      278.08202      4.2894637      0.134578     
   1720000  -389.17968      838.74135      449.56168      272.91983     -7.2281724      0.134578     
   1730000  -359.66893      837.91675      478.24782      272.65151     -5.7408619      0.134578     
   1740000  -405.26424      858.10024      452.836        279.21906     -3.86587        0.134578     
   1750000  -368.74735      861.19911      492.45176      280.2274       0.94505222     0.134578     
   1760000  -353.45771      829.30671      475.84901      269.84987     -3.1130331      0.134578     
   1770000  -327.79815      856.37116      528.57301      278.65643      0.095495313    0.134578     
   1780000  -333.22659      847.92177      514.69518      275.90706      2.2917266      0.134578     
   1790000  -290.03239      877.88763      587.85524      285.65772      3.5723636      0.134578     
   1800000  -300.96735      856.8964       555.92905      278.82734     -0.90989322     0.134578     
   1810000  -347.27407      850.16309      502.88902      276.63637      2.1694705      0.134578     
   1820000  -314.57436      828.62415      514.0498       269.62777      3.3726364      0.134578     
   1830000  -364.74751      824.47801      459.7305       268.27865      3.6655702      0.134578     
   1840000  -351.51104      853.53019      502.01915      277.732        0.46573926     0.134578     
   1850000  -341.79983      853.80875      512.00892      277.82264     -1.9562911      0.134578     
   1860000  -369.07452      821.84213      452.7676       267.42095     -0.43784123     0.134578     
   1870000  -410.33816      825.15585      414.81769      268.49921      5.7103336      0.134578     
   1880000  -364.83924      870.85454      506.0153       283.36921     -3.4270444      0.134578     
   1890000  -397.09914      821.06511      423.96597      267.16812      5.2659281      0.134578     
   1900000  -374.06206      862.84779      488.78573      280.76387     -10.52357       0.134578     
   1910000  -357.04764      827.63727      470.58964      269.30665     -0.20679193     0.134578     
   1920000  -354.89271      859.79998      504.90727      279.77214     -6.344937       0.134578     
   1930000  -416.66353      827.3262       410.66267      269.20543     -2.8963505      0.134578     
   1940000  -421.67866      827.4538       405.77514      269.24695     -1.6679676      0.134578     
   1950000  -381.53928      868.24948      486.7102       282.52154      4.6800531      0.134578     
   1960000  -357.53194      830.88837      473.35643      270.36453     -3.5254292      0.134578     
   1970000  -378.60094      842.92643      464.32548      274.28162      0.74206202     0.134578     
   1980000  -352.13208      857.59701      505.46492      279.05531     -3.13068        0.134578     
   1990000  -360.28566      854.5713       494.28564      278.07077      7.7316872      0.134578     
   2000000  -377.17148      847.9751       470.80362      275.92442      0.95605279     0.134578     
   2010000  -351.4667       852.76587      501.29918      277.4833       3.3741711      0.134578     
   2020000  -372.99716      887.35343      514.35628      288.73782     -4.7177477      0.134578     
   2030000  -342.25171      819.16769      476.91598      266.55071      8.4546576      0.134578     
   2040000  -316.52126      824.21221      507.69095      268.19216      0.34898842     0.134578     
   2050000  -366.9235       821.10227      454.17877      267.18021      0.78484787     0.134578     
   2060000  -398.62908      823.84171      425.21262      268.0716      -0.43623436     0.134578     
   2070000  -353.06785      856.4471       503.37925      278.68114     -0.82058929     0.134578     
   2080000  -375.2707       862.02564      486.75494      280.49635     -1.0888463      0.134578     
   2090000  -366.88608      818.91611      452.03003      266.46885     -1.6853453      0.134578     
   2100000  -382.68744      837.78706      455.09962      272.60931      3.6399279      0.134578     
   2110000  -400.52287      842.4023       441.87943      274.11107      2.1732773      0.134578     
   2120000  -352.09419      849.38485      497.29066      276.38314     -7.8071481      0.134578     
   2130000  -401.3077       868.24085      466.93315      282.51873      8.5563025      0.134578     
   2140000  -392.89796      870.16741      477.26946      283.14562     -10.097774      0.134578     
   2150000  -393.2818       807.54018      414.25838      262.76721     -2.1063717      0.134578     
   2160000  -392.55848      825.95705      433.39857      268.75992      7.3001188      0.134578     
   2170000  -354.05082      851.09215      497.04133      276.93868      1.0479243      0.134578     
   2180000  -654.43078      756.26304      101.83226      246.08204      1.3375143      0.134578     
   2190000  -656.75795      751.71565      94.957701      244.60235     -5.8511618      0.134578     
   2200000  -657.19787      773.74826      116.55039      251.77159     -2.5145723      0.134578     
   2210000  -620.71827      771.36219      150.64392      250.99518      2.5077479      0.134578     
   2220000  -604.91001      807.3819       202.47189      262.71571     -1.7512981      0.134578     
   2230000  -625.28777      753.51964      128.23187      245.18935      2.2846312      0.134578     
   2240000  -582.01377      776.88193      194.86816      252.79126     -4.6160588      0.134578     
   2250000  -634.02877      804.77957      170.7508       261.86893     -3.1991802      0.134578     
   2260000  -608.69932      748.12585      139.42653      243.43426      5.4279344      0.134578     
   2270000  -632.14934      758.88015      126.73081      246.93362      0.1318085      0.134578     
   2280000  -631.23169      754.39033      123.15865      245.47267     -6.7028233      0.134578     
   2290000  -619.80629      751.54352      131.73723      244.54634     -2.3824965      0.134578     
   2300000  -615.53617      762.64097      147.1048       248.15736      4.9189509      0.134578     
   2310000  -602.01043      749.96693      147.9565       244.03333      3.6316915      0.134578     
   2320000  -591.22022      748.94595      157.72573      243.70111     -7.0878143      0.134578     
   2330000  -587.22334      766.09849      178.87515      249.28241      1.6265279      0.134578     
   2340000  -612.54504      781.68963      169.14459      254.35565      8.1597148      0.134578     
   2350000  -591.74433      759.07172      167.32739      246.99596      1.1728547      0.134578     
   2360000  -573.14222      772.29053      199.14831      251.29725     -3.602948       0.134578     
   2370000  -652.84986      750.99838      98.148521      244.36896      7.082063       0.134578     
   2380000  -587.24899      761.27967      174.03068      247.71441      3.0670509      0.134578     
   2390000  -578.70158      756.46649      177.76491      246.14823     -7.0314447      0.134578     
   2400000  -625.23687      772.31132      147.07445      251.30402      2.9309937      0.134578     
   2410000  -602.38466      762.60884      160.22417      248.14691      7.1671677      0.134578     
   2420000  -593.10536      795.19396      202.0886       258.74985      4.5784547      0.134578     
   2430000  -629.35289      819.89572      190.54282      266.78761      1.2463301      0.134578     
   2440000  -568.00156      762.181        194.17944      248.00769      10.197485      0.134578     
   2450000  -644.08357      766.56669      122.48312      249.43476      0.30470228     0.134578     
   2460000  -625.48733      772.70968      147.22235      251.43364      9.6963063      0.134578     
   2470000  -614.06167      772.00711      157.94544      251.20503     -2.7517672      0.134578     
   2480000  -616.22949      726.57675      110.34727      236.42235      5.0914136      0.134578     
   2490000  -589.36855      791.72857      202.36002      257.62224      3.5064424      0.134578     
   2500000  -583.31046      783.05286      199.7424       254.79923     -3.6903873      0.134578     
   2510000  -638.46787      745.63094      107.16308      242.62243     -0.70436002     0.134578     
   2520000  -605.45086      774.71152      169.26065      252.08502     -4.3561458      0.134578     
   2530000  -609.31783      795.67452      186.3567       258.90622      3.8033366      0.134578     
   2540000  -646.82104      787.26455      140.44351      256.16968     -8.5559586      0.134578     
   2550000  -641.70078      780.73856      139.03778      254.04618      0.23048785     0.134578     
   2560000  -651.98309      765.96018      113.97709      249.23741      7.8685547      0.134578     
   2570000  -634.1642       750.05149      115.88729      244.06085     -3.7597077      0.134578     
   2580000  -614.43852      787.69573      173.25721      256.30999     -6.0886867      0.134578     
   2590000  -659.3189       770.33715      111.01826      250.66164     -1.1257129      0.134578     
   2600000  -654.39999      767.0327       112.63271      249.5864      -1.1951045      0.134578     
   2610000  -655.83693      769.18173      113.3448       250.28567      3.0078544      0.134578     
   2620000  -616.50709      737.79133      121.28424      240.07149     -3.1046726      0.134578     
   2630000  -612.34995      784.02507      171.67513      255.11558     -0.64496388     0.134578     
   2640000  -654.39003      760.64193      106.2519       247.50689     -2.7053353      0.134578     
   2650000  -637.50353      757.37149      119.86796      246.44272      7.7214173      0.134578     
   2660000  -640.79208      766.70981      125.91773      249.48133     -4.6414759      0.134578     
   2670000  -640.10266      776.01787      135.91521      252.5101       0.24964642     0.134578     
   2680000  -596.13463      800.45823      204.3236       260.4628      -4.086391       0.134578     
   2690000  -561.60982      774.55687      212.94706      252.0347      -1.3387584      0.134578     
   2700000  -664.17042      730.52225      66.351827      237.70618      2.329924       0.134578     
   2710000  -611.81298      755.98904      144.17607      245.99288     -1.2316281      0.134578     
   2720000  -665.34289      746.97957      81.636685      243.06127      1.5060648      0.134578     
   2730000  -616.29972      767.54382      151.2441       249.75271      3.1579308      0.134578     
   2740000  -656.7972       769.29159      112.49439      250.32142      2.7313079      0.134578     
   2750000  -628.38558      753.0534       124.66782      245.03764     -5.387099       0.134578     
   2760000  -635.23046      781.07106      145.8406       254.15437      5.325944       0.134578     
   2770000  -645.27128      789.92725      144.65597      257.0361       0.48772931     0.134578     
   2780000  -620.0779       745.27303      125.19513      242.50597      5.8873237      0.134578     
   2790000  -631.27512      760.02569      128.75058      247.30637     -3.2943797      0.134578     
   2800000  -634.59704      800.68623      166.0892       260.53699      0.35871602     0.134578     
   2810000  -599.75071      762.76585      163.01514      248.198       -0.47895421     0.134578     
   2820000  -605.24233      789.20324      183.96091      256.80052     -0.89614303     0.134578     
   2830000  -640.65825      801.86374      161.20549      260.92014      2.4441437      0.134578     
   2840000  -640.40992      752.79664      112.38672      244.9541       6.4966113      0.134578     
   2850000  -607.55872      758.1397       150.58098      246.69269      1.6766468      0.134578     
   2860000  -641.44248      740.35051      98.908038      240.90422      2.9304183      0.134578     
   2870000  -653.4248       765.61984      112.19504      249.12666     -3.3938111      0.134578     
   2880000  -603.88322      763.25478      159.37156      248.35709     -0.000276212    0.134578     
   2890000  -633.08554      753.24448      120.15894      245.09982      0.48170673     0.134578     
   2900000  -588.33854      750.20777      161.86923      244.1117      -5.944602       0.134578     
   2910000  -628.72444      743.0274       114.30296      241.77526      1.2314065      0.134578     
   2920000  -649.21306      783.63999      134.42693      254.99028      1.2572505      0.134578     
   2930000  -624.92112      772.97026      148.04914      251.51843     -0.45231223     0.134578     
   2940000  -614.66029      764.66096      150.00066      248.81465      2.569661       0.134578     
   2950000  -611.38212      731.02642      119.6443       237.87024      8.5311126      0.134578     
   2960000  -656.36769      790.5501       134.18241      257.23877      5.765323       0.134578     
   2970000  -598.56878      742.94819      144.37941      241.74949      6.6084015      0.134578     
   2980000  -631.11703      756.87823      125.76119      246.28221      7.8876838      0.134578     
   2990000  -641.70081      778.88666      137.18585      253.44358     -3.7274553      0.134578     
   3000000  -597.68749      756.53129      158.8438       246.16932      1.2693881      0.134578     
   3010000  -630.14339      784.65725      154.51387      255.32129     -1.7580911      0.134578     
   3020000  -598.84049      742.97319      144.1327       241.75762      7.7380956      0.134578     
   3030000  -558.13819      759.24488      201.10669      247.0523      -9.1125         0.134578     
   3040000  -605.71322      762.08878      156.37557      247.97769      0.4763349      0.134578     
   3050000  -647.88061      781.86846      133.98784      254.41384      1.2960864      0.134578     
   3060000  -594.24875      754.58327      160.33453      245.53545      2.8876945      0.134578     
   3070000  -586.46929      751.29057      164.82128      244.46403      4.0933188      0.134578     
   3080000  -554.17366      748.18014      194.00647      243.45192      2.0996286      0.134578     
   3090000  -538.74577      781.81875      243.07297      254.39766     -2.2904654      0.134578     
   3100000  -586.00816      759.01653      173.00837      246.978       -2.2185785      0.134578     
   3110000  -627.0591       779.39728      152.33818      253.60973     -3.3432042      0.134578     
   3120000  -607.22115      768.62882      161.40767      250.10576      3.8264223      0.134578     
   3130000  -596.44849      745.49816      149.04967      242.57923      8.3243003      0.134578     
   3140000  -638.59766      750.23862      111.64096      244.12174      2.5779044      0.134578     
   3150000  -552.54363      781.33443      228.7908       254.24007      1.1765951      0.134578     
   3160000  -590.7308       757.37659      166.64579      246.44438      3.3957926      0.134578     
   3170000  -591.2319       808.23672      217.00482      262.99386     -1.6449005      0.134578     
   3180000  -568.18272      768.58344      200.40073      250.091       -1.3869949      0.134578     
   3190000  -574.91465      776.02555      201.1109       252.5126      -8.1585743      0.134578     
   3200000  -552.32391      758.58623      206.26232      246.83798     -4.38571        0.134578     
   3210000  -600.92431      752.76656      151.84225      244.94431      1.9362359      0.134578     
   3220000  -610.75558      761.12368      150.3681       247.66365     -2.514525       0.134578     
   3230000  -592.44329      786.59642      194.15314      255.95228      0.22835887     0.134578     
   3240000  -588.19251      787.99602      199.80351      256.4077       5.5691632      0.134578     
   3250000  -611.21293      758.50423      147.2913       246.8113      -3.5560951      0.134578     
   3260000  -608.40245      774.70279      166.30035      252.08219     -2.8981165      0.134578     
   3270000  -597.93701      731.87126      133.93424      238.14514     -0.21798566     0.134578     
   3280000  -607.59051      776.01932      168.4288       252.51057     -2.0308534      0.134578     
   3290000  -572.49725      746.47668      173.97943      242.89763      8.5669147      0.134578     
   3300000  -593.86948      759.15958      165.2901       247.02455      1.128986       0.134578     
   3310000  -589.70521      791.43971      201.73449      257.52824      8.9337836      0.134578     
   3320000  -551.84147      771.03591      219.19443      250.88901     -9.9122709      0.134578     
   3330000  -615.82396      755.10515      139.28119      245.70527      7.2413707      0.134578     
   3340000  -608.09056      763.57002      155.47946      248.45967      3.8363481      0.134578     
   3350000  -588.99383      782.42232      193.42848      254.59406      7.0171846      0.134578     
   3360000  -584.07948      756.62849      172.54901      246.20095     -1.0559353      0.134578     
   3370000  -611.74603      774.284        162.53797      251.94591      9.4793348      0.134578     
   3380000  -594.83142      769.94408      175.11266      250.53374     -0.65111092     0.134578     
   3390000  -550.40295      814.06848      263.66553      264.89147     -5.695007       0.134578     
   3400000  -602.9738       805.51369      202.53989      262.10781      6.7038357      0.134578     
   3410000  -592.3351       765.98256      173.64746      249.24469      2.7239816      0.134578     
   3420000  -596.79072      761.16523      164.37451      247.67717      7.255812       0.134578     
   3430000  -576.77398      782.14135      205.36738      254.50263     -2.3011115      0.134578     
   3440000  -591.4152       744.28143      152.86623      242.18331     -4.1869584      0.134578     
   3450000  -598.90243      802.31359      203.41116      261.06652      5.9773457      0.134578     
   3460000  -593.54491      775.15914      181.61423      252.23068     -1.7489279      0.134578     
   3470000  -620.996        780.69634      159.70033      254.03244     -3.1342404      0.134578     
   3480000  -598.80368      756.51871      157.71503      246.16523      0.38675067     0.134578     
   3490000  -660.10897      746.86635      86.757384      243.02443      5.0454529      0.134578     
   3500000  -684.4944       775.92276      91.428361      252.47915     -1.747417       0.134578     
   3510000  -549.84475      784.42156      234.57681      255.24459      4.2351407      0.134578     
   3520000  -646.56184      763.37119      116.80935      248.39497     -2.7076542      0.134578     
   3530000  -570.14267      761.9988       191.85613      247.9484      -2.9223648      0.134578     
   3540000  -565.62432      758.184        192.55967      246.7071      -2.9593282      0.134578     
   3550000  -625.31334      768.9689       143.65556      250.21642     -3.1461653      0.134578     
   3560000  -586.32085      765.87231      179.55146      249.20882     -0.10903892     0.134578     
   3570000  -608.85963      788.00053      179.14089      256.40916      8.8903152      0.134578     
   3580000  -574.8576       781.77842      206.92082      254.38454     -1.4126979      0.134578     
   3590000  -605.10807      736.75502      131.64695      239.73428     -0.48657522     0.134578     
   3600000  -558.24763      718.41114      160.16351      233.76532     -1.8234155      0.134578     
   3610000  -553.60205      759.73089      206.12884      247.21045     -3.8756167      0.134578     
   3620000  -619.66783      796.95491      177.28708      259.32285     -6.7391769      0.134578     
   3630000  -594.2002       788.88908      194.68887      256.69829      9.8809337      0.134578     
   3640000  -617.68516      780.91437      163.22921      254.10338     -2.748991       0.134578     
   3650000  -646.48432      755.48343      108.99911      245.82835      7.697347       0.134578     
   3660000  -621.12646      785.44796      164.3215       255.57858     -3.9684068      0.134578     
   3670000  -595.88802      764.3228       168.43478      248.70462     -2.0330733      0.134578     
   3680000  -594.19947      784.06712      189.86765      255.12926     -1.1437184      0.134578     
   3690000  -588.97971      745.33373      156.35401      242.52572      2.8049699      0.134578     
   3700000  -604.83749      780.57679      175.7393       253.99354      10.445153      0.134578     
   3710000  -619.03819      771.65553      152.61735      251.09063      1.807756       0.134578     
   3720000  -613.73355      760.94556      147.21201      247.60569     -0.43556435     0.134578     
   3730000  -555.21617      769.47341      214.25724      250.38059      0.42881706     0.134578     
   3740000  -620.9801       767.3809       146.4008       249.6997      -2.6608128      0.134578     
   3750000  -617.85392      773.95222      156.0983       251.83795     -0.41423876     0.134578     
   3760000  -591.09222      733.8771       142.78488      238.79783     -0.58129707     0.134578     
   3770000  -606.74503      813.90877      207.16375      264.8395       5.8796679      0.134578     
   3780000  -638.09842      761.07759      122.97917      247.64865     -8.4535269      0.134578     
   3790000  -645.71132      751.21761      105.50629      244.44029     -5.7965883      0.134578     
   3800000  -575.73846      765.98618      190.24772      249.24587      1.3725777      0.134578     
   3810000  -598.35128      773.46671      175.11543      251.67997      10.046878      0.134578     
   3820000  -562.79414      773.73044      210.9363       251.76579      0.52436254     0.134578     
   3830000  -591.88323      771.06401      179.18077      250.89815      4.7005237      0.134578     
   3840000  -614.95874      774.63385      159.67511      252.05975      0.64539212     0.134578     
   3850000  -552.54462      735.14024      182.59561      239.20884     -1.4592623      0.134578     
   3860000  -603.17808      754.81941      151.64133      245.61229      9.5476805      0.134578     
   3870000  -575.8694       787.56566      211.69626      256.26766     -1.638145       0.134578     
   3880000  -565.1305       775.53276      210.40227      252.35225      3.0448939      0.134578     
   3890000  -582.40491      761.95533      179.55042      247.93426      2.0304571      0.134578     
   3900000  -605.93824      785.47808      179.53984      255.58838     -7.3242147      0.134578     
   3910000  -591.15247      755.35267      164.2002       245.78581      5.9208801      0.134578     
   3920000  -626.96584      737.68112      110.71528      240.03562      11.351372      0.134578     
   3930000  -599.63496      789.72031      190.08535      256.96877      9.7446834      0.134578     
   3940000  -586.22057      759.22505      173.00449      247.04585     -6.9365348      0.134578     
   3950000  -622.24078      756.33145      134.09067      246.1043       6.7692615      0.134578     
   3960000  -585.25205      741.43772      156.18568      241.25799     -4.5772402      0.134578     
   3970000  -602.7387       772.45937      169.72067      251.35219      7.247245       0.134578     
   3980000  -603.45756      741.23281      137.77525      241.19132      3.7620307      0.134578     
   3990000  -637.4551       779.89376      142.43866      253.77128     -3.0544238      0.134578     
   4000000  -603.68434      765.54816      161.86382      249.10334      2.8540195      0.134578     
   4010000  -659.95375      740.60412      80.650363      240.98674     -3.3051891      0.134578     
   4020000  -583.82488      777.70217      193.87729      253.05816     -1.7305557      0.134578     
   4030000  -602.44288      762.40864      159.96576      248.08176      5.4859895      0.134578     
   4040000  -621.29111      775.64093      154.34982      252.38745     -1.6060709      0.134578     
   4050000  -697.55601      789.09916      91.543147      256.76665      7.1858671      0.134578     
   4060000  -609.27033      741.10366      131.83333      241.14929     -7.4393235      0.134578     
   4070000  -677.08536      736.90661      59.821258      239.78361      9.5495287      0.134578     
   4080000  -638.24648      736.08437      97.837892      239.51605      2.1802035      0.134578     
   4090000  -664.73349      728.77065      64.037166      237.13623     -9.4310224      0.134578     
   4100000  -644.94884      745.24393      100.29509      242.4965      -1.5261147      0.134578     
   4110000  -585.52121      775.57542      190.05421      252.36613     -5.4462942      0.134578     
   4120000  -646.67061      776.07855      129.40794      252.52985      4.929526       0.134578     
   4130000  -675.65717      765.19393      89.53676       248.98808      0.51395116     0.134578     
   4140000  -680.22865      762.32631      82.097666      248.05498      3.2982016      0.134578     
   4150000  -612.18439      747.27054      135.08615      243.15594      1.8602221      0.134578     
   4160000  -639.65463      763.12864      123.474        248.31605      6.6100752      0.134578     
   4170000  -606.14668      747.67817      141.53148      243.28858     -0.43827467     0.134578     
   4180000  -604.51669      783.19392      178.67723      254.84513      7.2965159      0.134578     
   4190000  -641.59207      802.06693      160.47487      260.98626     -0.9184419      0.134578     
   4200000  -627.58558      817.33548      189.74991      265.95453      0.76476377     0.134578     
   4210000  -637.99746      772.31748      134.32002      251.30602      1.5584165      0.134578     
   4220000  -624.58304      791.77606      167.19301      257.63769      0.87260214     0.134578     
   4230000  -645.4583       801.25105      155.79275      260.72078      2.9837824      0.134578     
   4240000  -617.18989      789.33875      172.14886      256.84461      2.8623185      0.134578     
   4250000  -669.50311      746.61809      77.114985      242.94365      2.0558374      0.134578     
   4260000  -644.02281      797.64646      153.62365      259.54787      6.1468633      0.134578     
   4270000  -624.68112      799.98389      175.30276      260.30845     -5.2461388      0.134578     
   4280000  -638.9189       750.87574      111.95684      244.32905     -2.6222081      0.134578     
   4290000  -611.707        730.10581      118.39881      237.57068      9.3181857      0.134578     
   4300000  -585.8372       748.00724      162.17004      243.39566      8.8523335      0.134578     
   4310000  -596.36919      752.07935      155.71016      244.7207       0.65897029     0.134578     
   4320000  -620.43801      811.63121      191.19319      264.0984       6.7252108      0.134578     
   4330000  -594.58929      791.396        196.80671      257.51402     -4.8709821      0.134578     
   4340000  -572.94918      751.25843      178.30925      244.45357      6.5581647      0.134578     
   4350000  -650.217        784.9778       134.76079      255.42559     -3.5350656      0.134578     
   4360000  -593.95373      747.80048      153.84675      243.32838      6.6694594      0.134578     
   4370000  -650.67099      788.51931      137.84832      256.57797      5.1309613      0.134578     
   4380000  -661.4112       794.07609      132.66489      258.3861       5.1126225      0.134578     
   4390000  -665.60766      772.41125      106.80359      251.33653      2.5142788      0.134578     
   4400000  -574.31742      772.52415      198.20673      251.37327     -9.8542006      0.134578     
   4410000  -608.90577      775.01635      166.11058      252.18421     -0.76561583     0.134578     
   4420000  -588.00994      784.44251      196.43257      255.25141     -7.4187656      0.134578     
   4430000  -620.11851      769.41113      149.29262      250.36032     -9.2720139      0.134578     
   4440000  -617.32793      774.3584       157.03047      251.97012     -2.0902831      0.134578     
   4450000  -663.10245      760.52933      97.426879      247.47025      6.6337898      0.134578     
   4460000  -662.66115      771.75284      109.09169      251.12229     -10.96918       0.134578     
   4470000  -683.66505      743.3634       59.698342      241.88459     -4.5587094      0.134578     
   4480000  -665.71058      731.3          65.589413      237.95926      5.5406416      0.134578     
   4490000  -711.85628      765.04151      53.185234      248.93848      8.0086451      0.134578     
   4500000  -610.5408       764.6869       154.14609      248.82309      1.0181477      0.134578     
   4510000  -673.39668      779.38677      105.99009      253.60631      4.1379478      0.134578     
   4520000  -594.71441      787.30778      192.59336      256.18375      3.2552327      0.134578     
   4530000  -620.7537       776.11405      155.36034      252.5414       9.6907433      0.134578     
   4540000  -672.32347      763.98073      91.657261      248.59331      2.2413991      0.134578     
   4550000  -605.09108      744.87384      139.78276      242.37608      3.9685606      0.134578     
   4560000  -638.26356      794.67185      156.40828      258.57996      2.5831163      0.134578     
   4570000  -593.00989      765.5777       172.56781      249.11295      3.3720722      0.134578     
   4580000  -674.46312      771.89868      97.435558      251.16975     -3.0063585      0.134578     
   4590000  -674.62955      783.56548      108.93593      254.96603      6.158716       0.134578     
   4600000  -649.54373      735.29138      85.747643      239.25802     -7.6417714      0.134578     
   4610000  -666.46354      727.62391      61.160371      236.76309      10.796996      0.134578     
   4620000  -654.807        785.36703      130.56003      255.55224      6.856633       0.134578     
   4630000  -677.40747      790.46409      113.05662      257.21079      6.581179       0.134578     
   4640000  -678.40473      777.7057       99.300967      253.05931     -1.8046289      0.134578     
   4650000  -679.09428      796.15402      117.05973      259.06224      3.4187141      0.134578     
   4660000  -644.44213      736.81935      92.377218      239.75521      5.2838905      0.134578     
   4670000  -677.41935      780.56952      103.15017      253.99117     -4.7674556      0.134578     
   4680000  -683.97971      752.85834      68.878636      244.97417     -2.5146552      0.134578     
   4690000  -711.24695      793.59055      82.343602      258.22811      4.4725884      0.134578     
   4700000  -654.52152      765.99021      111.46869      249.24718      0.10578        0.134578     
   4710000  -628.94691      752.53094      123.58403      244.86764     -1.6033881      0.134578     
   4720000  -649.63222      703.8858       54.253579      229.03889     -0.30471954     0.134578     
   4730000  -669.64948      758.94104      89.291557      246.95343     -1.4496089      0.134578     
   4740000  -675.67002      776.67586      101.00584      252.72421      11.056522      0.134578     
   4750000  -637.72135      767.57328      129.85193      249.7623       3.0176242      0.134578     
   4760000  -668.67672      761.34312      92.666398      247.73505     -6.3156781      0.134578     
   4770000  -637.65543      777.04251      139.38708      252.84351      1.1010533      0.134578     
   4780000  -639.28567      768.70236      129.41669      250.12969      2.4682624      0.134578     
   4790000  -668.58383      777.9315       109.34767      253.13278      2.0790249      0.134578     
   4800000  -639.83484      782.21009      142.37525      254.525        4.8168086      0.134578     
   4810000  -633.38568      762.37222      128.98654      248.06991     -0.077484264    0.134578     
   4820000  -659.43572      825.76826      166.33253      268.69849     -6.0118626      0.134578     
   4830000  -606.67806      780.23707      173.559        253.88299     -5.0023069      0.134578     
   4840000  -631.68784      742.00593      110.31809      241.44288      3.2174076      0.134578     
   4850000  -655.94933      767.45392      111.50459      249.72346     -1.2587936      0.134578     
   4860000  -653.30565      754.99412      101.68847      245.66914      4.2273017      0.134578     
   4870000  -609.35697      749.13145      139.77448      243.76147     -1.3975121      0.134578     
   4880000  -652.56382      750.24626      97.682445      244.12422     -5.4636709      0.134578     
   4890000  -640.85585      739.20509      98.349238      240.53151     -0.025747186    0.134578     
   4900000  -624.65561      780.16963      155.51402      253.86105      1.1861143      0.134578     
   4910000  -635.54873      716.81505      81.266321      233.24597      1.8942362      0.134578     
   4920000  -618.59893      757.09057      138.49164      246.35131      1.0460948      0.134578     
   4930000  -662.67161      736.37         73.698381      239.60899     -1.6319044      0.134578     
   4940000  -662.13796      797.5501       135.41214      259.51652     -2.3990149      0.134578     
   4950000  -644.59143      769.38058      124.78915      250.35038     -0.91379349     0.134578     
   4960000  -598.08723      760.69798      162.61075      247.52513     -3.7788556      0.134578     
   4970000  -603.09677      779.68333      176.58655      253.70281     -3.9015723      0.134578     
   4980000  -589.6556       735.45435      145.79875      239.31105     -1.1877056      0.134578     
   4990000  -590.73933      769.53321      178.79388      250.40004     -2.6772522      0.134578     
   5000000  -619.47063      764.1203       144.64967      248.63872      1.2590968      0.134578     
Loop time of 2424.01 on 4 procs for 5000000 steps with 1032 atoms

Performance: 1782.169 ns/day, 0.013 hours/ns, 2062.696 timesteps/s, 2.129 Matom-step/s
99.6% CPU use with 4 MPI tasks x 1 OpenMP threads

MPI task timing breakdown:
Section |  min time  |  avg time  |  max time  |%varavg| %total
---------------------------------------------------------------
Pair    | 1467.1     | 1787.6     | 2094.2     | 567.9 | 73.75
Bond    | 76.572     | 84.377     | 93.596     |  79.0 |  3.48
Neigh   | 3.5866     | 3.5891     | 3.5922     |   0.1 |  0.15
Comm    | 192.3      | 509.48     | 838.96     |1100.0 | 21.02
Output  | 0.35674    | 0.55624    | 1.0376     |  37.4 |  0.02
Modify  | 32.155     | 33.795     | 35.631     |  27.0 |  1.39
Other   |            | 4.606      |            |       |  0.19

Nlocal:            258 ave         270 max         227 min
Histogram: 1 0 0 0 0 0 0 0 0 3
Nghost:         950.25 ave        1000 max         920 min
Histogram: 1 1 0 1 0 0 0 0 0 1
Neighs:        3126.75 ave        3698 max        2227 min
Histogram: 1 0 0 0 0 0 0 2 0 1

Total # of neighbors = 12507
Ave neighs/atom = 12.119186
Ave special neighs/atom = 4.8255814
Neighbor list builds = 8426
Dangerous builds = 0

# ===============================
# 4. PRODUCTION
# ===============================
# Reset averages for production
unfix favg
fix favg all ave/time 10000 10 100000 v_vpe v_vke v_vT v_vE v_vRg     file outputs/thermo_${tag}_production.dat
fix favg all ave/time 10000 10 100000 v_vpe v_vke v_vT v_vE v_vRg     file outputs/thermo_100ASO_unmod_production.dat

restart 10000000 outputs/backup_${tag}.*.restart
restart 10000000 outputs/backup_100ASO_unmod.*.restart
run 100000000
Generated 0 of 6 mixed pair_coeff terms from geometric mixing rule
Per MPI rank memory allocation (min/avg/max) = 8.612 | 8.613 | 8.614 Mbytes
   Step         PotEng         KinEng         TotEng          Temp          Press         Density    
   5000000  -619.47063      764.1203       144.64967      248.63872      1.2590968      0.134578     
   5010000  -677.29297      768.98582      91.692845      250.22193      2.4381356      0.134578     
   5020000  -625.83101      769.21636      143.38534      250.29694      6.9497269      0.134578     
   5030000  -655.22142      752.82381      97.602383      244.96293     -1.1795092      0.134578     
   5040000  -622.84473      771.49592      148.65118      251.03869      3.6008415      0.134578     
   5050000  -654.62557      774.69689      120.07133      252.08027      3.293414       0.134578     
   5060000  -616.01281      758.68632      142.67351      246.87055      7.998927       0.134578     
   5070000  -619.59627      761.16188      141.56561      247.67608     -7.6107158      0.134578     
   5080000  -625.32357      783.99299      158.66942      255.10514      3.5086087      0.134578     
   5090000  -627.64386      753.47712      125.83326      245.17552      3.8726714      0.134578     
   5100000  -640.16726      772.8638       132.69654      251.48379      4.9080963      0.134578     
   5110000  -615.23176      756.80018      141.56842      246.25682      1.2999607      0.134578     
   5120000  -615.1697       783.04179      167.87209      254.79563     -0.57681545     0.134578     
   5130000  -641.80217      740.67036      98.868197      241.0083       6.1653144      0.134578     
   5140000  -576.92568      781.30102      204.37534      254.22919     -10.37821       0.134578     
   5150000  -631.17965      784.1539       152.97425      255.1575       2.041998       0.134578     
   5160000  -597.58173      772.2088       174.62707      251.27066     -5.2990396      0.134578     
   5170000  -645.34961      765.15195      119.80234      248.97442      0.45965767     0.134578     
   5180000  -589.10113      769.85744      180.7563       250.50554      5.5238107      0.134578     
   5190000  -601.10506      731.3196       130.21454      237.96564     -2.4393258      0.134578     
   5200000  -621.90508      792.86362      170.95854      257.99158     -2.355947       0.134578     
   5210000  -649.06978      754.6269       105.55712      245.54965      14.989848      0.134578     
   5220000  -580.25548      776.80848      196.553        252.76736     -2.2419755      0.134578     
   5230000  -665.03731      780.62959      115.59228      254.01072      2.8598903      0.134578     
   5240000  -630.09773      781.19285      151.09512      254.194        3.1519394      0.134578     
   5250000  -636.31048      735.04169      98.731211      239.17678     -1.6603695      0.134578     
   5260000  -661.30318      766.83465      105.53147      249.52195      1.2749923      0.134578     
   5270000  -629.2099       776.0375       146.8276       252.51649     -7.089343       0.134578     
   5280000  -637.48154      778.06907      140.58753      253.17755      3.2952569      0.134578     
   5290000  -625.83289      774.31138      148.4785       251.95482     -2.9344596      0.134578     
   5300000  -609.99092      739.727        129.73609      240.70134     -2.8061363      0.134578     
   5310000  -615.47447      781.45008      165.97561      254.2777       0.4915463      0.134578     
   5320000  -602.5347       795.8632       193.32849      258.96761      5.3949568      0.134578     
   5330000  -663.82878      760.37473      96.545956      247.41995      4.9449717      0.134578     
   5340000  -592.52887      794.59221      202.06334      258.55404     -3.8989927      0.134578     
   5350000  -648.59506      747.59555      99.000488      243.2617       5.379653       0.134578     
   5360000  -621.07673      763.82604      142.74931      248.54298     -3.602276       0.134578     
   5370000  -622.20734      799.42488      177.21753      260.12656      6.5929775      0.134578     
   5380000  -642.81868      762.13724      119.31856      247.99345      4.8839812      0.134578     
   5390000  -666.79018      788.07181      121.28162      256.43236     -0.73231226     0.134578     
   5400000  -646.63004      778.29987      131.66984      253.25265     -5.6822123      0.134578     
   5410000  -679.70295      779.93657      100.23362      253.78521     -1.4283815      0.134578     
   5420000  -586.70697      762.75248      176.04551      248.19365     -2.2287859      0.134578     
   5430000  -626.51175      765.68358      139.17183      249.1474       1.0482288      0.134578     
   5440000  -616.29714      801.87164      185.5745       260.92271      6.5909837      0.134578     
   5450000  -636.81771      786.53742      149.7197       255.93308      0.37783358     0.134578     
   5460000  -671.19344      775.89709      104.70365      252.4708       2.5637836      0.134578     
   5470000  -651.90983      796.6149       144.70508      259.21221     -0.70102786     0.134578     
   5480000  -632.96882      791.0009       158.03209      257.38546     -3.9049803      0.134578     
   5490000  -653.1181       777.55281      124.43471      253.00956      2.743241       0.134578     
   5500000  -622.31783      758.9725       136.65467      246.96367     -3.2850684      0.134578     
   5510000  -652.3381       778.50959      126.17149      253.32089     -1.8987254      0.134578     
   5520000  -628.12541      761.91023      133.78482      247.91959      3.3321329      0.134578     
   5530000  -625.02925      764.07418      139.04493      248.62372     -3.1137547      0.134578     
   5540000  -633.06778      760.94757      127.87979      247.60634     -2.6212044      0.134578     
   5550000  -673.33362      786.55662      113.22299      255.93933      1.3792993      0.134578     
   5560000  -675.81418      748.70737      72.893185      243.62348      3.3379493      0.134578     
   5570000  -666.34029      788.51919      122.1789       256.57793     -2.563816       0.134578     
   5580000  -681.83108      780.4292       98.59812       253.94551      1.5192936      0.134578     
   5590000  -687.99868      769.36857      81.369883      250.34647     -1.6768194      0.134578     
   5600000  -653.35657      757.62889      104.27232      246.52647     -8.9157171      0.134578     
   5610000  -657.37642      791.41534      134.03893      257.52032     -0.62462547     0.134578     
   5620000  -670.48024      753.35613      82.875893      245.13615     -4.7079026      0.134578     
   5630000  -595.88291      755.89926      160.01635      245.96366      0.66020625     0.134578     
   5640000  -604.90269      767.25722      162.35453      249.65945      3.4958706      0.134578     
   5650000  -585.08566      744.96641      159.88075      242.4062      -0.66706563     0.134578     
   5660000  -594.11894      762.68543      168.56648      248.17183     -0.71202548     0.134578     
   5670000  -671.82399      735.68959      63.865597      239.38759      1.2160114      0.134578     
   5680000  -663.19021      795.62035      132.43014      258.88859      2.6142539      0.134578     
   5690000  -658.67691      746.2599       87.582986      242.82709     -0.19434218     0.134578     
   5700000  -633.39946      779.64211      146.24265      253.6894       9.0575252      0.134578     
   5710000  -660.37621      732.45664      72.080432      238.33562      8.8582412      0.134578     
   5720000  -648.85753      772.81475      123.95722      251.46783     -1.4644957      0.134578     
   5730000  -661.25138      768.38394      107.13257      250.02608     -10.595539      0.134578     
   5740000  -678.11042      781.20465      103.09423      254.19784      0.31335407     0.134578     
   5750000  -577.4064       750.075        172.6686       244.0685       2.4816855      0.134578     
   5760000  -584.71042      769.72088      185.01046      250.46111     -3.3425777      0.134578     
   5770000  -592.97305      744.32001      151.34696      242.19587     -2.6539011      0.134578     
   5780000  -637.7877       746.31333      108.52563      242.84448      1.3220061      0.134578     
   5790000  -657.39935      749.44721      92.047853      243.86422      0.39790517     0.134578     
   5800000  -661.08186      777.58258      116.50072      253.01925     -4.6076115      0.134578     
   5810000  -624.18352      780.23105      156.04753      253.88104      3.9447998      0.134578     
   5820000  -662.66869      778.03684      115.36815      253.16706      3.9785637      0.134578     
   5830000  -644.89781      790.84708      145.94927      257.33541      1.9721267      0.134578     
   5840000  -646.46215      756.49968      110.03753      246.15903     -8.408819       0.134578     
   5850000  -637.05974      776.44908      139.38933      252.65041     -1.8620874      0.134578     
   5860000  -628.1191       762.11845      133.99934      247.98734      6.2388625      0.134578     
   5870000  -649.15646      751.53332      102.37686      244.54302     -0.66898098     0.134578     
   5880000  -635.54008      768.80267      133.26259      250.16233      1.1623951      0.134578     
   5890000  -627.76911      755.25826      127.48915      245.75509      3.4483811      0.134578     
   5900000  -673.88505      792.03639      118.15134      257.7224      -0.74767646     0.134578     
   5910000  -651.92126      749.97708      98.055818      244.03663      1.0680779      0.134578     
   5920000  -657.94713      805.30988      147.36274      262.04149     -0.80678574     0.134578     
   5930000  -629.60396      763.56265      133.95868      248.45727      5.6747317      0.134578     
   5940000  -664.62207      764.7176       100.09553      248.83308      8.4477086      0.134578     
   5950000  -621.35952      740.75063      119.39111      241.03442     -2.7530632      0.134578     
   5960000  -644.17295      771.15424      126.9813       250.92751      4.1725546      0.134578     
   5970000  -658.96904      772.94228      113.97324      251.50933      3.1605353      0.134578     
   5980000  -668.70264      765.17823      96.475588      248.98297      3.6411207      0.134578     
   5990000  -639.2018       814.71267      175.51086      265.10108     -0.97574054     0.134578     
   6000000  -661.03373      810.79322      149.75949      263.82573     -1.3536858      0.134578     
   6010000  -700.79207      760.44726      59.655196      247.44355     -4.1733907      0.134578     
   6020000  -652.2582       775.93428      123.67608      252.4829       0.21196828     0.134578     
   6030000  -703.14874      763.93183      60.783094      248.5774       5.9577546      0.134578     
   6040000  -666.94123      734.04698      67.105746      238.8531      -3.2571516      0.134578     
   6050000  -651.27427      769.77724      118.50296      250.47945      2.6306952      0.134578     
   6060000  -661.58209      772.69455      111.11246      251.42872      6.5298649      0.134578     
   6070000  -621.36475      787.905        166.54025      256.37808      1.6935         0.134578     
   6080000  -583.05266      730.52554      147.47288      237.70725      0.40854906     0.134578     
   6090000  -626.43088      743.34585      116.91497      241.87888      8.3466098      0.134578     
   6100000  -600.54564      824.97574      224.4301       268.44061     -1.6537356      0.134578     
   6110000  -627.48036      789.77828      162.29792      256.98763      5.1628707      0.134578     
   6120000  -583.18017      776.72698      193.54681      252.74084      1.7173746      0.134578     
   6130000  -631.64289      756.86758      125.22468      246.27875     -6.6923686      0.134578     
   6140000  -568.86974      726.62668      157.75694      236.4386      -1.2494519      0.134578     
   6150000  -606.36925      747.67773      141.30848      243.28844      4.0924971      0.134578     
   6160000  -620.03277      742.21196      122.17919      241.50993      5.0649738      0.134578     
   6170000  -657.281        792.92112      135.64011      258.01028      6.5503935      0.134578     
   6180000  -649.64664      762.39828      112.75164      248.07839      3.613458       0.134578     
   6190000  -653.9692       800.39881      146.42961      260.44347      5.5748234      0.134578     
   6200000  -624.53615      807.41326      182.87711      262.72591     -4.0655802      0.134578     
   6210000  -651.53128      725.58228      74.051         236.09876      3.6725146      0.134578     
   6220000  -616.8669       762.27174      145.40484      248.03722      5.8069766      0.134578     
   6230000  -639.82773      726.32114      86.493408      236.33918     -2.7052247      0.134578     
   6240000  -648.66148      760.11612      111.45464      247.3358       3.0319589      0.134578     
   6250000  -634.45633      758.96923      124.5129       246.96261     -2.8236824      0.134578     
   6260000  -622.85002      742.64901      119.79899      241.65214      2.4150199      0.134578     
   6270000  -615.42022      782.62395      167.20373      254.65967      1.5421261      0.134578     
   6280000  -591.65544      773.57484      181.9194       251.71516     -1.0184987      0.134578     
   6290000  -555.80639      804.53579      248.7294       261.78961      2.3970611      0.134578     
   6300000  -596.06042      790.45061      194.39019      257.2064       4.9279651      0.134578     
   6310000  -642.63915      759.58516      116.94601      247.16303      4.3906971      0.134578     
   6320000  -687.39488      766.27122      78.876337      249.33862      12.906433      0.134578     
   6330000  -638.41998      737.11117      98.691192      239.85017      7.1361939      0.134578     
   6340000  -630.79806      775.3013       144.50324      252.27694      1.2619216      0.134578     
   6350000  -602.69279      787.57247      184.87968      256.26988      6.1793077      0.134578     
   6360000  -579.05579      765.82453      186.76874      249.19327      0.29112862     0.134578     
   6370000  -568.11062      764.33853      196.22791      248.70974     -7.7246611      0.134578     
   6380000  -664.25803      766.37808      102.12005      249.37339     -2.8002987      0.134578     
   6390000  -570.05301      787.16517      217.11217      256.13735     -0.75910649     0.134578     
   6400000  -635.56795      780.13021      144.56226      253.84823      4.1639333      0.134578     
   6410000  -626.03488      759.89165      133.85677      247.26275      5.9190398      0.134578     
   6420000  -633.19273      828.86734      195.67461      269.7069      -1.3223179      0.134578     
   6430000  -612.45688      767.95062      155.49373      249.88508      6.4129061      0.134578     
   6440000  -593.55003      767.62495      174.07493      249.77911      5.5934988      0.134578     
   6450000  -617.15952      745.1113       127.95178      242.45335     -2.802857       0.134578     
   6460000  -664.11188      802.43987      138.32799      261.10761      1.7066319      0.134578     
   6470000  -633.48754      772.04044      138.5529       251.21588      5.0754184      0.134578     
   6480000  -614.8496       782.49843      167.64883      254.61882      2.854819       0.134578     
   6490000  -645.37876      780.10485      134.72609      253.83997     -11.898436      0.134578     
   6500000  -628.74909      739.15575      110.40665      240.51546     -3.9191212      0.134578     
   6510000  -629.84085      805.4813       175.64045      262.09727      3.6806398      0.134578     
   6520000  -609.03641      763.57513      154.53872      248.46133      5.0227541      0.134578     
   6530000  -654.92074      768.50945      113.58871      250.06692      3.2499436      0.134578     
   6540000  -611.81217      774.4668       162.65463      252.00539     -9.7865702      0.134578     
   6550000  -612.41269      792.1857       179.77301      257.77098      1.9063139      0.134578     
   6560000  -638.07887      772.78454      134.70567      251.458        2.5626413      0.134578     
   6570000  -608.44575      783.81847      175.37272      255.04835     -1.837727       0.134578     
   6580000  -635.42841      756.77868      121.35027      246.24982      3.0999677      0.134578     
   6590000  -631.73324      785.65324      153.92001      255.64538     -2.395364       0.134578     
   6600000  -652.53753      771.03509      118.49756      250.88874     -2.439934       0.134578     
   6610000  -667.09593      798.4232       131.32726      259.80062      8.3078233      0.134578     
   6620000  -635.85463      775.45824      139.60362      252.328       -10.282177      0.134578     
   6630000  -627.21037      783.61859      156.40822      254.98331     -0.21961214     0.134578     
   6640000  -652.4477       778.15514      125.70744      253.20555      2.7643727      0.134578     
   6650000  -611.1644       784.8978       173.7334       255.39956      8.4702552      0.134578     
   6660000  -587.33414      803.32159      215.98745      261.39452      0.72592198     0.134578     
   6670000  -600.15049      763.74121      163.59071      248.51537      3.2001615      0.134578     
   6680000  -623.30409      769.89145      146.58736      250.51661     -5.100803       0.134578     
   6690000  -634.78164      741.05938      106.27775      241.13488      2.3907675      0.134578     
   6700000  -644.62565      778.16737      133.54172      253.20953      1.645417       0.134578     
   6710000  -654.35669      751.9679       97.611211      244.68443      3.2570768      0.134578     
   6720000  -629.18201      787.55824      158.37623      256.26525      5.4649349      0.134578     
   6730000  -710.90419      784.93733      74.033132      255.41242      0.40874644     0.134578     
   6740000  -596.03158      795.12463      199.09305      258.72729      1.5643703      0.134578     
   6750000  -613.11741      783.69016      170.57275      255.0066       3.713553       0.134578     
   6760000  -583.73853      753.34834      169.60981      245.13361      3.3642544      0.134578     
   6770000  -673.37898      766.64755      93.268566      249.46107      0.77820906     0.134578     
   6780000  -602.23957      759.37525      157.13568      247.09472     -0.61198172     0.134578     
   6790000  -664.6247       752.27463      87.649928      244.78424      7.2977644      0.134578     
   6800000  -668.44079      785.45821      117.01742      255.58191     -1.870317       0.134578     
   6810000  -637.45586      764.43337      126.97751      248.7406      -2.2168109      0.134578     
   6820000  -659.97958      764.49347      104.51389      248.76015      0.6497033      0.134578     
   6830000  -616.86496      783.24998      166.38502      254.86337      3.8152184      0.134578     
   6840000  -607.52497      777.76135      170.23638      253.07742     -0.24102942     0.134578     
   6850000  -603.15438      774.4028       171.24842      251.98457      5.4085243      0.134578     
   6860000  -582.90967      751.50899      168.59932      244.5351      -9.9244455      0.134578     
   6870000  -645.71416      769.52526      123.8111       250.39746      5.9529055      0.134578     
   6880000  -662.21367      781.86974      119.65607      254.41425      5.5706247      0.134578     
   6890000  -666.88803      769.11515      102.22712      250.26401      5.5030059      0.134578     
   6900000  -642.68121      753.6317       110.95049      245.22582      3.7496574      0.134578     
   6910000  -594.29706      746.32304      152.02599      242.84764     -4.2270282      0.134578     
   6920000  -643.13813      780.1835       137.04537      253.86556     -1.156384       0.134578     
   6930000  -669.35246      790.21804      120.86558      257.13072      6.1065977      0.134578     
   6940000  -585.08992      723.18977      138.09985      235.32025      0.41612912     0.134578     
   6950000  -662.52274      753.48661      90.963869      245.17861      2.7881906      0.134578     
   6960000  -682.95837      778.41848      95.460109      253.29124      3.130346       0.134578     
   6970000  -635.61328      763.43581      127.82253      248.416        2.9683585      0.134578     
   6980000  -642.09692      758.41551      116.31859      246.78243     -0.11005528     0.134578     
   6990000  -576.86098      772.29135      195.43036      251.29752      0.65643402     0.134578     
   7000000  -654.16326      769.48946      115.32619      250.38581      7.9329479      0.134578     
   7010000  -611.29226      764.12093      152.82866      248.63893      12.903406      0.134578     
[...]
 103190000  -76.836953      987.06227      910.22532      321.18229     -0.15809363     0.134578     
 103200000  -124.66367      894.2678       769.60414      290.9877      -2.7737407      0.134578     
 103210000  -131.56373      945.09823      813.53451      307.52752      4.2341177      0.134578     
 103220000  -116.29554      965.48438      849.18884      314.16101      3.3857572      0.134578     
 103230000  -131.39223      957.39915      826.00692      311.53014      1.9502834      0.134578     
 103240000  -95.522426      927.79796      832.27553      301.89815     -2.8472438      0.134578     
 103250000  -131.78247      927.70508      795.92261      301.86792      5.1977786      0.134578     
 103260000  -136.51637      916.41738      779.90101      298.19499      4.464226       0.134578     
 103270000  -133.18051      903.98856      770.80805      294.15075      3.1608424      0.134578     
 103280000  -27.802437      906.20882      878.40638      294.87321     -3.0809153      0.134578     
 103290000  -77.795789      949.22428      871.42849      308.8701      -4.1578727      0.134578     
 103300000  -106.84305      893.79445      786.9514       290.83367     -1.6243968      0.134578     
 103310000  -163.49314      930.09114      766.598        302.64433      6.153337       0.134578     
 103320000  -83.633137      929.01034      845.3772       302.29264     -1.514935       0.134578     
 103330000  -62.123058      890.76755      828.64449      289.84874     -0.71117739     0.134578     
 103340000  -83.795444      919.63134      835.8359       299.24079      2.4988131      0.134578     
 103350000  -105.01838      977.0324       872.01402      317.91865     -7.01479        0.134578     
 103360000  -68.972959      899.70106      830.7281       292.75564      2.2393205      0.134578     
 103370000  -98.824397      886.40731      787.58291      288.42996      0.76056153     0.134578     
 103380000  -106.14192      946.3292       840.18728      307.92806      0.25577946     0.134578     
 103390000  -139.58782      884.69855      745.11073      287.87394      3.5150083      0.134578     
 103400000  -147.33099      924.30353      776.97254      300.76109     -3.6876159      0.134578     
 103410000  -92.38078       921.32178      828.941        299.79085      4.7485494      0.134578     
 103420000  -89.676201      921.32114      831.64494      299.79064      1.1448494      0.134578     
 103430000  -126.23703      975.31282      849.07579      317.35911      0.72105525     0.134578     
 103440000  -130.81067      956.61124      825.80057      311.27376     -1.4677337      0.134578     
 103450000  -92.447253      915.08413      822.63687      297.76116     -7.0469575      0.134578     
 103460000  -92.91604       940.22862      847.31258      305.94298      0.26781196     0.134578     
 103470000  -51.087494      928.56707      877.47958      302.14841     -3.9072854      0.134578     
 103480000  -63.196425      882.84398      819.64755      287.27047      4.5234238      0.134578     
 103490000  -71.89997       942.65106      870.75109      306.73123     -0.27621923     0.134578     
 103500000  -94.938555      917.91887      822.98031      298.68357     -2.1778994      0.134578     
 103510000  -33.506941      917.17596      883.66902      298.44183      6.6909248      0.134578     
 103520000  -27.889911      933.31153      905.42162      303.69222      7.3044027      0.134578     
 103530000  -67.245013      940.66221      873.4172       306.08407      7.7840635      0.134578     
 103540000  -67.840137      919.40569      851.56556      299.16737      0.42732586     0.134578     
 103550000  -87.87392       936.59217      848.71825      304.75971     -1.743638       0.134578     
 103560000   9.2897924      890.36701      899.6568       289.71841     -0.33709789     0.134578     
 103570000  -130.00307      898.55845      768.55538      292.38384      2.134465       0.134578     
 103580000  -69.045834      870.85231      801.80647      283.36848      2.61451        0.134578     
 103590000  -98.578888      917.99343      819.41454      298.70783      4.0850277      0.134578     
 103600000  -82.217028      932.11027      849.89324      303.30134      2.3599603      0.134578     
 103610000  -70.060021      924.73789      854.67787      300.90242     -2.8797085      0.134578     
 103620000  -57.602441      862.07409      804.47165      280.51212      0.60438147     0.134578     
 103630000  -106.99514      970.43413      863.43899      315.77162     -0.67313699     0.134578     
 103640000  -51.520188      929.19085      877.67066      302.35138      2.8707306      0.134578     
 103650000  -106.37975      905.87815      799.4984       294.76561      1.230924       0.134578     
 103660000  -69.083742      933.25957      864.17583      303.67531      2.2850987      0.134578     
 103670000  -91.016242      906.12806      815.11182      294.84693      4.4104524      0.134578     
 103680000  -116.38393      911.04137      794.65744      296.44568     -3.7498418      0.134578     
 103690000  -86.623583      909.04516      822.42158      295.79613     -1.0440648      0.134578     
 103700000  -111.58885      903.57065      791.9818       294.01477     -1.4941224      0.134578     
 103710000  -107.04148      962.71319      855.67171      313.25929     -3.5882366      0.134578     
 103720000  -47.227619      917.96018      870.73256      298.69701     -7.2937175      0.134578     
 103730000  -79.908296      933.86952      853.96122      303.87378      1.4580525      0.134578     
 103740000  -64.444759      886.73177      822.28701      288.53553      0.40533827     0.134578     
 103750000  -43.776034      938.4068       894.63077      305.35018      1.9904476      0.134578     
 103760000  -56.580587      938.65868      882.0781       305.43214      7.2867888      0.134578     
 103770000  -66.124237      920.50507      854.38083      299.5251       1.1897736      0.134578     
 103780000  -71.688977      927.02478      855.3358       301.64656     -3.5637011      0.134578     
 103790000  -75.212884      898.22973      823.01685      292.27688     -0.55928945     0.134578     
 103800000  -104.00286      941.29035      837.28748      306.28846      4.7271563      0.134578     
 103810000  -29.673221      896.65095      866.97773      291.76315      2.0625987      0.134578     
 103820000  -47.932644      940.87807      892.94543      306.15431      8.7048225      0.134578     
 103830000  -62.133708      904.89926      842.76556      294.44709      4.4988909      0.134578     
 103840000  -111.93312      896.74556      784.81243      291.79394      1.5406583      0.134578     
 103850000  -119.77982      948.66893      828.88911      308.68939     -3.1462179      0.134578     
 103860000  -46.403404      883.2551       836.85169      287.40425     -3.4667017      0.134578     
 103870000  -103.08728      910.60341      807.51613      296.30318     -7.5495558      0.134578     
 103880000  -154.16613      950.89197      796.72584      309.41275     -0.6946921      0.134578     
 103890000  -118.97439      900.72413      781.74973      293.08853      2.3958233      0.134578     
 103900000  -74.815571      924.81841      850.00284      300.92862      5.1260817      0.134578     
 103910000  -145.81248      916.28867      770.47619      298.15311     -0.65343261     0.134578     
 103920000  -150.35798      968.45774      818.09976      315.12852     -6.3216205      0.134578     
 103930000  -75.700398      898.42066      822.72027      292.33901      0.1316497      0.134578     
 103940000  -47.2781        925.12395      877.84585      301.02804      2.269135       0.134578     
 103950000  -106.2697       909.0887       802.819        295.8103       3.261261       0.134578     
 103960000  -82.939792      933.52231      850.58252      303.7608       5.9014134      0.134578     
 103970000  -103.37412      975.4773       872.10317      317.41263     -11.70179       0.134578     
 103980000  -112.95846      920.36522      807.40676      299.47959      4.1395583      0.134578     
 103990000  -161.68885      916.2599       754.57104      298.14375      2.1733555      0.134578     
 104000000  -193.60013      947.23387      753.63374      308.22244      3.4356022      0.134578     
 104010000  -155.30247      944.71545      789.41298      307.40296      3.397168       0.134578     
 104020000  -137.65123      895.77222      758.12099      291.47722     -2.1690111      0.134578     
 104030000  -112.28337      879.96223      767.67886      286.33278     -1.1845742      0.134578     
 104040000  -196.77722      896.52832      699.7511       291.72325      4.5253619      0.134578     
 104050000  -105.02458      918.90428      813.8797       299.00421      8.2964988      0.134578     
 104060000  -167.95388      937.44417      769.49028      305.03695      0.26893097     0.134578     
 104070000  -157.14793      885.45378      728.30585      288.11968     -0.15596205     0.134578     
 104080000  -124.18483      884.03205      759.84723      287.65707      7.3180236      0.134578     
 104090000  -121.77499      898.55618      776.78118      292.3831       0.42023547     0.134578     
 104100000  -139.50178      921.15638      781.6546       299.73703     -6.4401404      0.134578     
 104110000  -113.00422      926.34495      813.34073      301.42535     -1.0434786      0.134578     
 104120000  -120.5608       914.57396      794.01317      297.59516      5.6187826      0.134578     
 104130000  -105.33965      930.29316      824.95351      302.71006     -5.2728548      0.134578     
 104140000  -106.41528      942.31298      835.8977       306.62122      2.4483173      0.134578     
 104150000  -145.20019      937.35681      792.15662      305.00852     -2.8390771      0.134578     
 104160000  -92.517044      947.84758      855.33054      308.42213      5.4901646      0.134578     
 104170000  -102.93909      930.55631      827.61722      302.79569     -4.9806248      0.134578     
 104180000  -77.283217      929.61545      852.33224      302.48954     -1.5899239      0.134578     
 104190000  -130.54155      910.79594      780.25439      296.36582      2.5844949      0.134578     
 104200000  -95.454947      931.705        836.25006      303.16947     -5.7107036      0.134578     
 104210000  -101.53739      900.53351      798.99612      293.02651     -5.0088026      0.134578     
 104220000  -112.79828      932.6868       819.88852      303.48894     -2.8731564      0.134578     
 104230000  -82.045575      919.75672      837.71115      299.28159      2.1544591      0.134578     
 104240000  -82.894972      896.99393      814.09895      291.87476      1.5781127      0.134578     
 104250000  -83.025462      955.97592      872.95046      311.06703     -2.1542885      0.134578     
 104260000  -80.760039      919.76145      839.00141      299.28313      0.024388666    0.134578     
 104270000  -94.090003      935.59304      841.50304      304.4346       8.7415359      0.134578     
 104280000  -87.240708      925.48878      838.24807      301.14676      4.9586879      0.134578     
 104290000  -86.554282      899.70541      813.15113      292.75705     -4.4608101      0.134578     
 104300000  -88.189474      893.8769       805.68743      290.8605       2.182099       0.134578     
 104310000  -131.11197      933.29057      802.1786       303.6854      -0.28066774     0.134578     
 104320000  -68.58854       922.06385      853.47531      300.03231      1.1009104      0.134578     
 104330000  -93.808059      949.04695      855.23889      308.8124       2.595587       0.134578     
 104340000  -58.836996      925.20632      866.36932      301.05485     -7.0473804      0.134578     
 104350000  -91.536175      950.00024      858.46406      309.12259     -3.3929661      0.134578     
 104360000  -107.66326      925.50624      817.84298      301.15244     -2.1507564      0.134578     
 104370000  -87.150504      910.48535      823.33485      296.26476     -5.0653517      0.134578     
 104380000  -43.464361      926.08256      882.6182       301.33997      6.9320086      0.134578     
 104390000  -52.841495      908.86063      856.01914      295.73609     -3.0091591      0.134578     
 104400000  -89.655597      935.33823      845.68263      304.35169     -4.0174731      0.134578     
 104410000  -36.481326      945.50345      909.02212      307.65937     -6.0180231      0.134578     
 104420000  -35.83445       906.58184      870.74739      294.99459     -5.9539826      0.134578     
 104430000  -81.198834      932.8397       851.64087      303.53869     -1.3389044      0.134578     
 104440000  -41.76917       894.0139       852.24473      290.90508      2.8925518      0.134578     
 104450000  -53.439629      919.62045      866.18082      299.23725      3.497843       0.134578     
 104460000  -80.44512       910.1356       829.69048      296.15095      7.8350535      0.134578     
 104470000  -68.551941      896.20544      827.6535       291.61819     -3.8123873      0.134578     
 104480000  -70.669348      919.5966       848.92725      299.22949      0.3754154      0.134578     
 104490000  -81.784057      903.26148      821.47742      293.91417      10.455182      0.134578     
 104500000  -113.99081      943.46046      829.46965      306.9946       7.4242986      0.134578     
 104510000  -56.634828      899.61422      842.97939      292.72738      8.1883202      0.134578     
 104520000  -123.83299      890.95822      767.12524      289.91079     -9.6183461      0.134578     
 104530000  -142.73866      913.15815      770.41948      297.13447      2.5334518      0.134578     
 104540000  -96.313253      892.2207       795.90745      290.32159      4.6768044      0.134578     
 104550000  -89.578958      945.24587      855.66691      307.57556     -3.010873       0.134578     
 104560000  -69.762153      923.82866      854.06651      300.60657      3.4676751      0.134578     
 104570000  -106.44637      926.09974      819.65337      301.34556      5.9727943      0.134578     
 104580000  -134.85313      959.79335      824.94021      312.30919      1.5785162      0.134578     
 104590000  -66.334546      906.4474       840.11285      294.95084     -2.3394673      0.134578     
 104600000  -68.514226      938.03156      869.51733      305.22808     -9.0873879      0.134578     
 104610000  -99.420561      938.67548      839.25492      305.43761      3.9847573      0.134578     
 104620000  -88.657452      920.93797      832.28052      299.66596      1.0416896      0.134578     
 104630000  -70.14336       896.14183      825.99847      291.59749     -1.4276787      0.134578     
 104640000  -125.522        914.69746      789.17546      297.63535     -1.6851003      0.134578     
 104650000  -87.929208      921.48162      833.55242      299.84286     -2.6465783      0.134578     
 104660000  -125.30366      923.83242      798.52876      300.60779      1.4889027      0.134578     
 104670000  -61.884023      903.96365      842.07963      294.14265      5.9704063      0.134578     
 104680000  -84.750837      926.10858      841.35775      301.34844     -3.4801462      0.134578     
 104690000  -92.226029      890.39828      798.17225      289.72858     -3.257797       0.134578     
 104700000  -120.93973      892.43913      771.4994       290.39266      3.5045587      0.134578     
 104710000  -105.01149      907.80114      802.78964      295.39134     -2.38637        0.134578     
 104720000  -140.5412       914.46607      773.92487      297.56005     -1.1494467      0.134578     
 104730000  -68.651266      939.42252      870.77126      305.68069      2.8661794      0.134578     
 104740000  -113.99938      956.31328      842.31389      311.17681      1.6038169      0.134578     
 104750000  -151.47369      915.58567      764.11198      297.92436      2.265842       0.134578     
 104760000  -121.07983      886.63606      765.55623      288.50439      1.1159756      0.134578     
 104770000  -127.09353      937.73808      810.64455      305.13258      3.663966       0.134578     
 104780000  -119.46938      939.78193      820.31255      305.79764      3.5474656      0.134578     
 104790000  -129.47352      962.8992       833.42569      313.31981      1.0431905      0.134578     
 104800000  -152.67757      954.1672       801.48963      310.47849     -2.2604777      0.134578     
 104810000  -134.88234      926.33218      791.44983      301.42119     -5.6008948      0.134578     
 104820000  -122.97733      901.09954      778.12221      293.21069      3.4713202      0.134578     
 104830000  -70.006543      873.20392      803.19738      284.13368      6.5202085      0.134578     
 104840000  -222.18849      894.76231      672.57382      291.1486      -4.2452394      0.134578     
 104850000  -89.672388      865.63101      775.95862      281.66951      3.0683815      0.134578     
 104860000  -105.79739      895.80701      790.00962      291.48854      1.4107412      0.134578     
 104870000  -112.4227       891.11652      778.69382      289.96229     -1.6497314      0.134578     
 104880000  -149.63403      904.45961      754.82558      294.30403      4.2081532      0.134578     
 104890000  -113.81677      918.89447      805.0777       299.00102      3.5769567      0.134578     
 104900000  -130.09341      936.37967      806.28626      304.69057     -3.0200347      0.134578     
 104910000  -153.11464      881.24514      728.1305       286.75023      5.7830129      0.134578     
 104920000  -167.14292      920.18096      753.03803      299.41963     -0.64904386     0.134578     
 104930000  -152.41539      929.33812      776.92273      302.3993      -1.0214978      0.134578     
 104940000  -172.11423      906.74456      734.63033      295.04753      2.7972217      0.134578     
 104950000  -125.20126      898.14657      772.94531      292.24982      5.8745055      0.134578     
 104960000  -147.00186      931.27718      784.27532      303.03026     -5.011672       0.134578     
 104970000  -142.16516      931.82617      789.66101      303.20889     -0.26510637     0.134578     
 104980000  -152.37022      913.93821      761.56799      297.38829     -1.9800048      0.134578     
 104990000  -145.94944      921.53042      775.58098      299.85874     -0.4361975      0.134578     
 105000000  -134.34471      931.20858      796.86387      303.00793     -3.4068066      0.134578     
Loop time of 40184.8 on 4 procs for 100000000 steps with 1032 atoms

Performance: 2150.065 ns/day, 0.011 hours/ns, 2488.501 timesteps/s, 2.568 Matom-step/s
99.6% CPU use with 4 MPI tasks x 1 OpenMP threads

MPI task timing breakdown:
Section |  min time  |  avg time  |  max time  |%varavg| %total
---------------------------------------------------------------
Pair    | 27157      | 27955      | 28464      | 293.6 | 69.57
Bond    | 1885.7     | 1920.5     | 1997.9     | 103.3 |  4.78
Neigh   | 88.999     | 89.039     | 89.093     |   0.4 |  0.22
Comm    | 8944.9     | 9467.7     | 10319      | 528.1 | 23.56
Output  | 7.0456     | 10.324     | 18.101     | 140.5 |  0.03
Modify  | 636.12     | 655.01     | 688.13     |  82.8 |  1.63
Other   |            | 87.34      |            |       |  0.22

Nlocal:            258 ave         280 max         234 min
Histogram: 1 0 0 1 0 0 0 1 0 1
Nghost:          912.5 ave         931 max         894 min
Histogram: 1 0 0 1 0 0 1 0 0 1
Neighs:        2581.25 ave        2956 max        1961 min
Histogram: 1 0 0 0 0 1 0 0 1 1

Total # of neighbors = 10325
Ave neighs/atom = 10.004845
Ave special neighs/atom = 4.8255814
Neighbor list builds = 204884
Dangerous builds = 0

write_data outputs/${tag}_final.data
write_data outputs/100ASO_unmod_final.data
System init for write_data ...
Generated 0 of 6 mixed pair_coeff terms from geometric mixing rule
Total wall time: 11:42:31
