
# ===============================
# FORCE FIELD (same as original)
# ===============================
bond_style harmonic
bond_coeff 1 7.5 5.9

angle_style harmonic
angle_coeff 1 5.0 150.0

pair_style hybrid/overlay lj/cut 10.0 base/rna 18.0
pair_modify shift yes
pair_coeff * * lj/cut 2.0 8.9089871814

pair_coeff 1 1 base/rna 0.00000 3.0 13.8 1.5 0.5 1.8326 0.9425 1.8326 1.1345
pair_coeff 1 2 base/rna 0.00000 3.0 13.8 1.5 0.5 1.8326 0.9425 1.8326 1.1345
pair_coeff 1 3 base/rna 0.00000 3.0 13.8 1.5 0.5 1.8326 0.9425 1.8326 1.1345
pair_coeff 1 4 base/rna 3.33333 3.0 13.8 1.5 0.5 1.8326 0.9425 1.8326 1.1345
pair_coeff 2 2 base/rna 0.00000 3.0 13.8 1.5 0.5 1.8326 0.9425 1.8326 1.1345
pair_coeff 2 3 base/rna 5.00000 3.0 13.8 1.5 0.5 1.8326 0.9425 1.8326 1.1345
pair_coeff 2 4 base/rna 0.00000 3.0 13.8 1.5 0.5 1.8326 0.9425 1.8326 1.1345
pair_coeff 3 3 base/rna 0.00000 3.0 13.8 1.5 0.5 1.8326 0.9425 1.8326 1.1345
pair_coeff 3 4 base/rna 3.33333 3.0 13.8 1.5 0.5 1.8326 0.9425 1.8326 1.1345
pair_coeff 4 4 base/rna 0.00000 3.0 13.8 1.5 0.5 1.8326 0.9425 1.8326 1.1345

special_bonds lj 0.0 0.0 1.0
Finding 1-2 1-3 1-4 neighbors ...
  special bond factors lj:    0        0        1       
  special bond factors coul:  0        0        0       
     2 = max # of 1-2 neighbors
     2 = max # of 1-3 neighbors
     4 = max # of 1-4 neighbors
     6 = max # of special neighbors
  special bonds CPU = 0.000 seconds
neighbor 15.0 bin
neigh_modify every 10 delay 0
comm_style tiled
timestep 10

# ===============================
# 1. MINIMIZATION
# ===============================
minimize 1.0e-4 1.0e-6 1000 10000

CITE-CITE-CITE-CITE-CITE-CITE-CITE-CITE-CITE-CITE-CITE-CITE-CITE

Your simulation uses code contributions which should be cited:

- Type Label Framework: https://doi.org/10.1021/acs.jpcb.3c08419

@Article{Gissinger24,
 author = {Jacob R. Gissinger, Ilia Nikiforov, Yaser Afshar, Brendon Waters, Moon-ki Choi, Daniel S. Karls, Alexander Stukowski, Wonpil Im, Hendrik Heinz, Axel Kohlmeyer, and Ellad B. Tadmor},
 title = {Type Label Framework for Bonded Force Fields in LAMMPS},
 journal = {J. Phys. Chem. B},
 year =    2024,
 volume =  128,
 number =  13,
 pages =   {3282–-3297}
}

CITE-CITE-CITE-CITE-CITE-CITE-CITE-CITE-CITE-CITE-CITE-CITE-CITE

Switching to 'neigh_modify every 1 delay 0 check yes' setting during minimization
Generated 0 of 6 mixed pair_coeff terms from geometric mixing rule
Neighbor list info ...
  update: every = 1 steps, delay = 0 steps, check = yes
  max neighbors/atom: 2000, page size: 100000
  master list distance cutoff = 33
  ghost atom cutoff = 33
  binsize = 16.5, bins = 10 10 10
  2 neighbor lists, perpetual/occasional/extra = 2 0 0
  (1) pair lj/cut, perpetual, trim from (2)
      attributes: half, newton on, cut 25
      pair build: trim
      stencil: none
      bin: none
  (2) pair base/rna, perpetual
      attributes: half, newton on
      pair build: half/bin/newton
      stencil: half/bin/3d
      bin: standard
Per MPI rank memory allocation (min/avg/max) = 8.432 | 8.432 | 8.433 Mbytes
   Step          Temp          E_pair         E_mol          TotEng         Press     
         0   0              1.7582963e+12  3007.7946      1.7582963e+12  1.1773802e+11
      1000   0             -610.2857       25.7333       -584.5524      -2.1498963    
Loop time of 0.951427 on 4 procs for 1000 steps with 1232 atoms

99.6% CPU use with 4 MPI tasks x 1 OpenMP threads

Minimization stats:
  Stopping criterion = max iterations
  Energy initial, next-to-last, final = 
       1758296269218.8  -584.080151200055  -584.552399682774
  Force two-norm initial, final = 2.9206767e+13 3.9326403
  Force max component initial, final = 1.90406e+13 0.8683755
  Final line search alpha, max atom move = 0.046304466 0.040209664
  Iterations, force evaluations = 1000 1432

MPI task timing breakdown:
Section |  min time  |  avg time  |  max time  |%varavg| %total
---------------------------------------------------------------
Pair    | 0.3954     | 0.6172     | 0.85266    |  23.4 | 64.87
Bond    | 0.026534   | 0.033407   | 0.038718   |   2.8 |  3.51
Neigh   | 0.0045433  | 0.0045543  | 0.0045647  |   0.0 |  0.48
Comm    | 0.041885   | 0.28137    | 0.50938    |  35.5 | 29.57
Output  | 4.473e-05  | 4.64e-05   | 5.1298e-05 |   0.0 |  0.00
Modify  | 0          | 0          | 0          |   0.0 |  0.00
Other   |            | 0.01485    |            |       |  1.56

Nlocal:            308 ave         359 max         234 min
Histogram: 1 0 0 0 1 0 0 0 0 2
Nghost:        1042.75 ave        1069 max        1001 min
Histogram: 1 0 0 0 0 0 1 0 1 1
Neighs:        3605.25 ave        4837 max        2243 min
Histogram: 1 0 1 0 0 0 0 0 1 1

Total # of neighbors = 14421
Ave neighs/atom = 11.705357
Ave special neighs/atom = 5.0162338
Neighbor list builds = 6
Dangerous builds = 0
reset_timestep 0

# ===============================
# 2. OUTPUTS
# ===============================
dump d1 all custom 50000 outputs/${tag}.lammpstrj id mol type q xu yu zu
dump d1 all custom 50000 outputs/100ASO_extended_12mer_unmodified.lammpstrj id mol type q xu yu zu
dump_modify d1 sort id

thermo_style custom step pe ke etotal temp press density
thermo 10000
thermo_modify flush yes

variable vpe equal pe
variable vke equal ke
variable vT  equal temp
variable vE  equal etotal
variable vRg equal gyration(all)

fix favg all ave/time 10000 10 100000 v_vpe v_vke v_vT v_vE v_vRg     file outputs/thermo_${tag}_averaged.dat
fix favg all ave/time 10000 10 100000 v_vpe v_vke v_vT v_vE v_vRg     file outputs/thermo_100ASO_extended_12mer_unmodified_averaged.dat

# ===============================
# 3. EQUILIBRATION (NVT)
# ===============================
velocity all create ${T_target} 74178 rot yes dist gaussian
velocity all create 300 74178 rot yes dist gaussian

# Langevin thermostat for equilibration
fix fxlang all langevin ${T_target} ${T_target} 1000.0 47858
fix fxlang all langevin 300 ${T_target} 1000.0 47858
fix fxlang all langevin 300 300 1000.0 47858
fix fxnve  all nve
fix recenter all momentum 1000 linear 1 1 1

# Equilibration run
run 5000000
Generated 0 of 6 mixed pair_coeff terms from geometric mixing rule
Per MPI rank memory allocation (min/avg/max) = 7.323 | 7.323 | 7.324 Mbytes
   Step         PotEng         KinEng         TotEng          Temp          Press         Density    
         0  -584.5524       1100.8132      516.26075      300            10.135425      0.16126987   
     10000   428.73638      1111.107       1539.8433      302.80533      2.056673       0.16126987   
     20000   297.69451      1099.5989      1397.2934      299.66907      3.7969519      0.16126987   
     30000   353.18855      1107.6265      1460.8151      301.85681     -0.5081612      0.16126987   
     40000   364.40574      1138.737       1503.1427      310.33523     -1.0256154      0.16126987   
     50000   363.79641      1114.5769      1478.3734      303.75099      1.7882994      0.16126987   
     60000   317.62092      1089.6642      1407.2851      296.96161      7.1830525      0.16126987   
     70000   332.28191      1092.034       1424.3159      297.60746      5.9173158      0.16126987   
     80000   316.14113      1072.0189      1388.1601      292.15283      1.0566384      0.16126987   
     90000   266.5453       1106.7056      1373.2509      301.60585      1.8358848      0.16126987   
    100000   235.43755      1103.7569      1339.1944      300.80224     -3.9102707      0.16126987   
    110000   317.92181      1068.4074      1386.3292      291.1686      -2.8129909      0.16126987   
    120000   253.82629      1127.8883      1381.7146      307.37868      2.7883856      0.16126987   
    130000   224.54481      1091.4632      1316.008       297.45189      2.0883661      0.16126987   
    140000   199.00289      1133.8433      1332.8462      309.00156      2.8595632      0.16126987   
    150000   211.64794      1119.3655      1331.0134      305.05598      5.3680406      0.16126987   
    160000   169.13194      1089.4601      1258.5921      296.90601      9.8513474      0.16126987   
    170000   172.71321      1074.2239      1246.9371      292.75374     -1.3008376      0.16126987   
    180000   162.69992      1134.2329      1296.9328      309.10773     -1.2247944      0.16126987   
    190000   168.59548      1118.3349      1286.9304      304.77513     -1.4098954      0.16126987   
    200000   136.2325       1073.5914      1209.8239      292.58136     -1.928906       0.16126987   
    210000   146.92544      1147.817       1294.7424      312.80976     -1.3749791      0.16126987   
    220000   135.76582      1114.3291      1250.0949      303.68345     -0.010397952    0.16126987   
    230000   118.49728      1084.0859      1202.5832      295.4414      -2.9938098      0.16126987   
    240000   148.82959      1062.8041      1211.6337      289.64156     -3.7529049      0.16126987   
    250000   81.09368       1103.7536      1184.8473      300.80135      0.022014774    0.16126987   
    260000   104.85291      1094.1235      1198.9764      298.17689     -0.59788492     0.16126987   
    270000   111.96124      1135.3999      1247.3612      309.42579      5.2447917      0.16126987   
    280000   64.351363      1045.6673      1110.0186      284.97132     -1.7453598      0.16126987   
    290000   94.406043      1128.0101      1222.4161      307.41187     -0.66097887     0.16126987   
    300000   99.406075      1114.5342      1213.9403      303.73935     -1.986663       0.16126987   
    310000   15.124714      1096.1112      1111.2359      298.71858      7.6988916      0.16126987   
    320000   106.51657      1096.5212      1203.0378      298.83034      10.940972      0.16126987   
    330000   74.037206      1123.3009      1197.3381      306.1285      -2.156068       0.16126987   
    340000   91.007243      1106.6209      1197.6281      301.58275     -4.2225922      0.16126987   
    350000   53.812669      1064.968       1118.7806      290.23127      5.1924718      0.16126987   
    360000   61.404058      1118.1406      1179.5447      304.72219      0.41086327     0.16126987   
    370000   3.0078836      1140.8753      1143.8832      310.91797     -1.9736604      0.16126987   
    380000   32.217343      1074.0533      1106.2706      292.70724     -2.5541529      0.16126987   
    390000   6.8036734      1113.0877      1119.8914      303.34514      4.5587657      0.16126987   
    400000   37.81554       1104.3822      1142.1977      300.97266     -5.4887062      0.16126987   
    410000   22.863683      1111.4251      1134.2888      302.89203      3.6923185      0.16126987   
    420000   25.02592       1116.2175      1141.2435      304.19809     -0.30210225     0.16126987   
    430000   76.397801      1095.8449      1172.2427      298.64602      0.21429527     0.16126987   
    440000   53.676709      1158.3688      1212.0455      315.68541     -0.042366311    0.16126987   
    450000   30.158048      1092.9323      1123.0903      297.85226     -1.1381409      0.16126987   
    460000   33.157222      1123.2615      1156.4187      306.11775      2.3902331      0.16126987   
    470000  -1.3835904      1055.088       1053.7044      287.53871      2.9451912      0.16126987   
    480000  -63.894424      1132.3481      1068.4537      308.59408      1.5511868      0.16126987   
    490000   73.80083       1131.9957      1205.7965      308.49805     -1.5312955      0.16126987   
    500000   13.335061      1092.0985      1105.4336      297.62504      2.6928761      0.16126987   
    510000   23.048466      1110.6119      1133.6604      302.67042     -1.9726459      0.16126987   
    520000  -54.400315      1112.0957      1057.6954      303.07479      0.23008395     0.16126987   
    530000  -33.624559      1098.5585      1064.934       299.38556      0.65325363     0.16126987   
    540000   10.107675      1079.0659      1089.1736      294.07332      4.9274844      0.16126987   
    550000   25.136174      1085.6369      1110.773       295.86407      3.113383       0.16126987   
    560000  -16.370469      1112.2105      1095.8401      303.10608      3.617225       0.16126987   
    570000  -8.6558708      1118.6143      1109.9585      304.85128     -12.384709      0.16126987   
    580000   31.164522      1114.8832      1146.0477      303.83444      2.2027304      0.16126987   
    590000  -30.944085      1030.791       999.84689      280.91715      3.4944735      0.16126987   
    600000  -30.660741      1063.7815      1033.1207      289.90791     -0.49126486     0.16126987   
    610000  -87.966086      1082.8682      994.90207      295.10953      8.3341824      0.16126987   
    620000  -38.346595      1087.8823      1049.5357      296.47601     -10.599441      0.16126987   
    630000  -67.24656       1145.5305      1078.2839      312.18662      2.0800023      0.16126987   
    640000  -31.535767      1102.0387      1070.5029      300.33399      6.5740629      0.16126987   
    650000  -73.450933      1089.509       1016.058       296.91932      11.695771      0.16126987   
    660000  -114.14172      1093.5567      979.41497      298.02243     -2.3848115      0.16126987   
    670000  -54.339035      1063.9997      1009.6607      289.96738     -2.3758718      0.16126987   
    680000  -58.980525      1093.9827      1035.0022      298.13853     -0.42318434     0.16126987   
    690000  -119.5457       1070.5981      951.05237      291.76561      5.2158812      0.16126987   
    700000  -47.186196      1106.6427      1059.4565      301.58869      3.9459182      0.16126987   
    710000  -24.953528      1105.2629      1080.3094      301.21268      0.28100546     0.16126987   
    720000  -34.331111      1113.7893      1079.4582      303.53634      1.8433396      0.16126987   
    730000  -35.130737      1104.8505      1069.7197      301.10027     -4.5285931      0.16126987   
    740000  -44.169691      1135.3344      1091.1647      309.40792     -3.2271329      0.16126987   
    750000  -34.397361      1064.003       1029.6056      289.96828     -6.4272087      0.16126987   
    760000  -13.983384      1094.541       1080.5576      298.29069      1.8524235      0.16126987   
    770000  -63.82849       1115.8709      1052.0424      304.10363      7.163268       0.16126987   
    780000  -95.132764      1057.9961      962.86335      288.33125     -3.4037296      0.16126987   
    790000  -89.641394      1086.821       997.17964      296.18679      2.4709727      0.16126987   
    800000  -101.49817      1080.5023      979.00415      294.46477      0.062054753    0.16126987   
    810000  -106.23423      1112.7197      1006.4855      303.24485      7.8233872      0.16126987   
    820000  -65.823808      1134.6352      1068.8114      309.21739      4.4241139      0.16126987   
    830000  -132.344        1157.3457      1025.0017      315.40657      4.8781293      0.16126987   
    840000  -98.61871       1144.4039      1045.7852      311.87959      1.0764405      0.16126987   
    850000  -106.83502      1065.2242      958.38916      290.30109      4.6090461      0.16126987   
    860000  -48.085261      1055.4303      1007.3451      287.63201      2.7567776      0.16126987   
    870000  -66.462066      1088.7966      1022.3345      296.72517      2.5587365      0.16126987   
    880000  -89.543502      1092.3009      1002.7574      297.68018     -4.7427729      0.16126987   
    890000  -107.64364      1113.5202      1005.8766      303.46301     -2.9785403      0.16126987   
    900000  -49.566398      1079.888       1030.3216      294.29736     -0.45636309     0.16126987   
    910000  -38.368012      1131.7722      1093.4042      308.43715      8.7916478      0.16126987   
    920000  -59.604274      1101.5126      1041.9083      300.19062      2.5878997      0.16126987   
    930000  -106.21743      1103.1055      996.88808      300.62473      3.0231711      0.16126987   
    940000  -69.948704      1064.4326      994.48391      290.08536     -7.1066849      0.16126987   
    950000  -103.62761      1078.764       975.13635      293.99103     -3.2000219      0.16126987   
    960000  -98.854091      1094.5395      995.68543      298.29027      9.5408685      0.16126987   
    970000  -79.231191      1092.471       1013.2398      297.72655     -5.9544025      0.16126987   
    980000  -56.371974      1110.0705      1053.6986      302.52288     -0.41359624     0.16126987   
    990000   1.2365107      1094.8418      1096.0783      298.37265      6.8091948      0.16126987   
   1000000  -87.37559       1107.1773      1019.8017      301.73439      4.8129396      0.16126987   
   1010000  -79.341776      1069.666       990.32426      291.51161     -1.9781986      0.16126987   
   1020000  -69.351831      1089.6313      1020.2795      296.95265      5.8111739      0.16126987   
   1030000   7.1177627      1105.3816      1112.4993      301.24501     -0.64804349     0.16126987   
   1040000  -7.774529       1118.5024      1110.7278      304.82077     -1.5875861      0.16126987   
   1050000  -20.696432      1086.8277      1066.1313      296.18861     -7.7781792      0.16126987   
   1060000  -33.652382      1078.2139      1044.5615      293.84111     -2.4712628      0.16126987   
   1070000  -56.943608      1104.3214      1047.3778      300.95608      5.5778534      0.16126987   
   1080000  -95.833954      1069.7559      973.92192      291.53609      1.2570524      0.16126987   
   1090000  -46.79451       1041.4816      994.68709      283.83062     -1.1335906      0.16126987   
   1100000  -57.600298      1078.8276      1021.2273      294.00837      2.6521432      0.16126987   
   1110000  -5.2354226      1091.6107      1086.3752      297.49208     -1.054056       0.16126987   
   1120000  -11.233506      1091.4653      1080.2318      297.45247     -2.0967162      0.16126987   
   1130000  -7.7725388      1100.5862      1092.8137      299.93816      0.014572742    0.16126987   
   1140000  -15.59734       1080.893       1065.2956      294.57124      8.7572524      0.16126987   
   1150000   10.548045      1147.752       1158.3         312.79204      11.574466      0.16126987   
   1160000  -59.267185      1087.6922      1028.425       296.42419      2.3826563      0.16126987   
   1170000   6.5881512      1127.0144      1133.6025      307.14051      3.0241954      0.16126987   
   1180000  -58.759815      1047.9908      989.23098      285.60455      6.162922       0.16126987   
   1190000  -8.135627       1122.2071      1114.0715      305.83041      4.2134713      0.16126987   
   1200000  -44.863996      1086.9409      1042.077       296.21947     -3.6427577      0.16126987   
   1210000   14.382771      1154.9472      1169.33        314.75292      5.7433866      0.16126987   
   1220000  -55.277211      1124.0755      1068.7983      306.33959      1.3600073      0.16126987   
   1230000  -71.29865       1097.1027      1025.804       298.9888      -1.3570569      0.16126987   
   1240000  -90.978466      1112.8635      1021.885       303.28402     -3.8775606      0.16126987   
   1250000  -65.960581      1058.7343      992.77369      288.53242      2.1291842      0.16126987   
   1260000  -78.498502      1070.6016      992.10309      291.76657      0.89575968     0.16126987   
   1270000  -108.64843      1069.5816      960.93321      291.48861      6.894929       0.16126987   
   1280000  -71.954674      1086.3671      1014.4124      296.06308      0.4484574      0.16126987   
   1290000  -83.142483      1100.6183      1017.4758      299.9469      -6.128525       0.16126987   
   1300000  -90.292129      1069.3814      979.08927      291.43404      10.044564      0.16126987   
   1310000  -43.341295      1136.6505      1093.3092      309.76661      1.5430801      0.16126987   
   1320000  -11.389874      1079.8412      1068.4513      294.28459      0.066986846    0.16126987   
   1330000  -71.879974      1112.874       1040.994       303.28689      3.543501       0.16126987   
   1340000  -86.57314       1085.193       998.61982      295.7431       3.1161526      0.16126987   
   1350000  -66.889181      1121.2022      1054.313       305.55654      6.3515331      0.16126987   
   1360000  -35.250255      1097.8257      1062.5754      299.18583     -0.33888156     0.16126987   
   1370000  -182.7626       1064.286       881.52338      290.0454      -2.146874       0.16126987   
   1380000  -143.58624      1114.4202      970.83399      303.70828      3.59308        0.16126987   
   1390000  -80.793781      1072.6878      991.89407      292.33513     -4.3588689      0.16126987   
   1400000  -137.44973      1116.5836      979.13387      304.29786     -1.2525278      0.16126987   
   1410000  -20.630778      1122.6624      1102.0316      305.95449     -2.9544451      0.16126987   
   1420000  -86.870246      1122.0112      1035.141       305.77702      1.9131577      0.16126987   
   1430000  -43.804335      1108.7871      1064.9827      302.1731      -1.0981824      0.16126987   
   1440000  -58.931605      1084.863       1025.9314      295.65317      6.6273331      0.16126987   
   1450000  -21.180389      1065.1152      1043.9348      290.27139      3.8496615      0.16126987   
   1460000   4.1622181      1092.9002      1097.0624      297.84352      2.913108       0.16126987   
   1470000  -84.183894      1096.8746      1012.6907      298.92663     -3.382678       0.16126987   
   1480000  -52.893062      1117.6596      1064.7665      304.59108      2.7155232      0.16126987   
   1490000  -63.534953      1112.8103      1049.2753      303.26952     -0.3454448      0.16126987   
   1500000  -88.668931      1107.9931      1019.3242      301.95673      4.1784208      0.16126987   
   1510000  -111.81443      1080.5976      968.78318      294.49074     -11.006384      0.16126987   
   1520000  -97.006278      1078.7361      981.72984      293.98344      3.8932908      0.16126987   
   1530000  -101.19363      1115.0891      1013.8955      303.89056      0.89346537     0.16126987   
   1540000  -71.23517       1109.4566      1038.2214      302.35556      5.7718894      0.16126987   
   1550000  -71.820534      1104.4164      1032.5959      300.98198      4.7634179      0.16126987   
   1560000  -79.187847      1106.1847      1026.9968      301.46388     -1.3096083      0.16126987   
   1570000  -57.822562      1145.3887      1087.5662      312.148        3.3243597      0.16126987   
   1580000  -26.173539      1068.0301      1041.8566      291.06578     -6.6597148      0.16126987   
   1590000  -41.022603      1114.9737      1073.9511      303.85911      2.062257       0.16126987   
   1600000  -49.221739      1083.6215      1034.3998      295.31483     -0.36987448     0.16126987   
   1610000  -79.257707      1103.6378      1024.3801      300.7698      -1.5837347      0.16126987   
   1620000  -98.819717      1160.4397      1061.62        316.24977      11.257406      0.16126987   
   1630000  -72.454791      1066.3163      993.86152      290.59872     -3.2939424      0.16126987   
   1640000  -107.5472       1078.9661      971.41887      294.04611     -8.016473       0.16126987   
   1650000  -83.702306      1154.9798      1071.2775      314.76181      2.6124061      0.16126987   
   1660000  -9.4006796      1140.0018      1130.6011      310.67992      3.9451317      0.16126987   
   1670000  -14.48372       1087.5259      1073.0421      296.37887     -1.1728605      0.16126987   
   1680000  -12.205855      1076.1038      1063.898       293.26607      4.5861111      0.16126987   
   1690000  -24.229385      1123.119       1098.8896      306.07891      1.7086953      0.16126987   
   1700000  -65.774705      1128.4444      1062.6697      307.53023      0.18996056     0.16126987   
   1710000  -94.70334       1124.7257      1030.0224      306.51679     -6.7323505      0.16126987   
   1720000  -26.405836      1094.6548      1068.249       298.3217       10.670362      0.16126987   
   1730000  -5.4329379      1112.7795      1107.3465      303.26113     -0.16723131     0.16126987   
   1740000  -93.315899      1131.228       1037.9121      308.28884      1.2223219      0.16126987   
   1750000  -104.22338      1078.7773      974.55395      293.99467      1.798244       0.16126987   
   1760000  -49.77856       1150.4801      1100.7015      313.53552     -3.3328976      0.16126987   
   1770000  -102.52216      1094.8209      992.29879      298.36697     -2.1626713      0.16126987   
   1780000  -91.809974      1079.8959      988.08589      294.2995       4.7532491      0.16126987   
   1790000  -48.509147      1134.4446      1085.9354      309.16542      2.4859887      0.16126987   
   1800000  -92.242785      1096.2486      1004.0058      298.75604     -2.9207051      0.16126987   
   1810000  -50.593079      1128.9778      1078.3847      307.67559      3.9686061      0.16126987   
   1820000  -44.080309      1089.2515      1045.1712      296.84914     -3.2347013      0.16126987   
   1830000  -42.718889      1107.3425      1064.6236      301.7794      -4.0869751      0.16126987   
   1840000  -61.769912      1094.6723      1032.9024      298.32645      2.5432924      0.16126987   
   1850000  -75.644294      1138.3913      1062.747       310.24102      5.5729233      0.16126987   
   1860000  -49.963243      1063.2864      1013.3232      289.773        3.929986       0.16126987   
   1870000  -22.745253      1095.3413      1072.5961      298.50878      5.5173034      0.16126987   
   1880000  -16.969865      1118.6157      1101.6459      304.85167     -3.4557625      0.16126987   
   1890000  -78.674989      1121.1899      1042.5149      305.5532       11.845548      0.16126987   
   1900000  -68.073735      1118.7791      1050.7054      304.89619      7.0492087      0.16126987   
   1910000   1.9888358      1051.6056      1053.5945      286.58969     -0.4098586      0.16126987   
   1920000  -108.42505      1088.4788      980.05378      296.63858     -0.70163485     0.16126987   
   1930000  -95.841501      1078.07        982.22846      293.80189     -12.352854      0.16126987   
   1940000  -53.076341      1113.2009      1060.1245      303.37597      1.0820318      0.16126987   
   1950000  -70.44592       1069.4401      998.99418      291.45003      2.2776327      0.16126987   
   1960000  -42.154863      1097.8945      1055.7397      299.2046      -0.4236769      0.16126987   
   1970000  -72.198343      1099.3217      1027.1234      299.59355      10.156316      0.16126987   
   1980000  -93.985788      1092.3598      998.37406      297.69626      0.8400236      0.16126987   
   1990000  -52.515954      1096.6659      1044.15        298.86978      6.8991488      0.16126987   
   2000000  -56.529921      1116.3356      1059.8056      304.23026      2.7501544      0.16126987   
   2010000  -93.25763       1064.5541      971.29649      290.11848     -0.95199209     0.16126987   
   2020000  -47.917432      1124.1335      1076.216       306.35538      10.658674      0.16126987   
   2030000  -84.866255      1077.6141      992.74786      293.67766      0.099004718    0.16126987   
   2040000  -39.525624      1095.4395      1055.9139      298.53554     -2.0923396      0.16126987   
   2050000  -107.10665      1071.8383      964.73161      292.10359     -0.85321342     0.16126987   
   2060000  -125.30604      1105.2451      979.93907      301.20782      4.6215912      0.16126987   
   2070000  -81.535548      1046.3665      964.83099      285.16189      6.0044671      0.16126987   
   2080000  -52.607213      1130.4936      1077.8864      308.0887       3.705864       0.16126987   
   2090000  -113.62126      1097.66        984.03873      299.14068     -2.2505194      0.16126987   
   2100000  -87.238849      1090.0111      1002.7722      297.05616     -4.204871       0.16126987   
   2110000  -66.028331      1048.0728      982.04443      285.62688      0.1436303      0.16126987   
   2120000  -97.761219      1086.9682      989.20694      296.22688      3.1778985      0.16126987   
   2130000  -80.569666      1123.2347      1042.6651      306.11046      0.18932466     0.16126987   
   2140000  -85.565731      1108.7797      1023.214       302.17109      2.084299       0.16126987   
   2150000  -144.21596      1114.8743      970.65836      303.83203      11.090383      0.16126987   
   2160000  -51.741244      1067.4671      1015.7259      290.91235     -8.4387019      0.16126987   
   2170000  -111.58058      1105.463       993.88238      301.26719      0.4845466      0.16126987   
   2180000  -75.339762      1108.5348      1033.1951      302.10436      3.2021754      0.16126987   
   2190000  -92.779243      1115.2252      1022.4459      303.92765      8.525053       0.16126987   
   2200000  -80.379379      1090.8206      1010.4413      297.27678      1.6382789      0.16126987   
   2210000  -78.399632      1096.4946      1018.095       298.82309      4.1974229      0.16126987   
   2220000  -83.114718      1081.5046      998.3899       294.73793     -4.9826325      0.16126987   
   2230000  -49.576452      1109.3706      1059.7941      302.33212      5.4711952      0.16126987   
   2240000  -89.09946       1096.9427      1007.8433      298.94521     -2.1050286      0.16126987   
   2250000  -64.293682      1134.958       1070.6643      309.30534     -0.62851396     0.16126987   
   2260000  -49.1382        1113.5324      1064.3942      303.46634      1.6317269      0.16126987   
   2270000  -24.890179      1108.3033      1083.4131      302.04126     -6.7733546      0.16126987   
   2280000  -110.32171      1094.0125      983.69074      298.14663     -8.5224747      0.16126987   
   2290000  -70.983507      1105.7205      1034.737       301.33737     -5.106696       0.16126987   
   2300000  -118.73852      1120.0969      1001.3584      305.25531     -1.5263435      0.16126987   
   2310000  -67.493486      1125.9712      1058.4777      306.85622      0.61670074     0.16126987   
   2320000  -40.394989      1064.8828      1024.4879      290.20806      8.6767934      0.16126987   
   2330000  -56.726208      1074.8546      1018.1284      292.92564      7.5051106      0.16126987   
   2340000  -13.450037      1073.1633      1059.7132      292.4647      -1.7208096      0.16126987   
   2350000  -21.570986      1114.37        1092.7991      303.6946       0.69205793     0.16126987   
   2360000  -4.2493702      1158.5524      1154.303       315.73543     -0.35289938     0.16126987   
   2370000  -36.251975      1053.5388      1017.2868      287.11651     -2.8247791      0.16126987   
   2380000   19.892023      1072.7809      1092.673       292.3605       0.028545266    0.16126987   
   2390000  -39.698497      1103.6608      1063.9623      300.77605      7.8997003      0.16126987   
   2400000  -68.860812      1123.4355      1054.5747      306.16517      8.1184063      0.16126987   
   2410000  -66.519029      1077.6695      1011.1505      293.69277      4.9215595      0.16126987   
   2420000  -84.903426      1105.1376      1020.2342      301.17853     -2.5002654      0.16126987   
   2430000   1.0054713      1143.0721      1144.0775      311.51664     -4.0503638      0.16126987   
   2440000  -41.010934      1123.3387      1082.3278      306.1388      -2.2277919      0.16126987   
   2450000  -20.186034      1107.0901      1086.9041      301.71063     -2.3311095      0.16126987   
   2460000  -75.543478      1118.323       1042.7795      304.77189     -0.73596854     0.16126987   
   2470000  -11.43322       1125.3761      1113.9429      306.69403     -4.0966091      0.16126987   
   2480000  -43.146958      1114.8557      1071.7087      303.82696      3.2054576      0.16126987   
   2490000  -110.10887      1113.7611      1003.6522      303.52864     -0.16857121     0.16126987   
   2500000  -80.580818      1068.7646      988.18381      291.26595      1.0835885      0.16126987   
   2510000  -58.332991      1078.4647      1020.1317      293.90946     -1.1323136      0.16126987   
   2520000  -67.468224      1116.2695      1048.8012      304.21224      8.0549518      0.16126987   
   2530000   4.0918433      1103.8371      1107.929       300.82411      1.002325       0.16126987   
   2540000  -31.117656      1127.9164      1096.7987      307.38633     -4.6431775      0.16126987   
   2550000  -43.995764      1113.5168      1069.521       303.46206      13.268106      0.16126987   
   2560000  -50.151633      1078.9284      1028.7768      294.03584      3.2710957      0.16126987   
   2570000  -32.79426       1093.1622      1060.3679      297.91491      3.7257682      0.16126987   
   2580000  -16.898349      1088.0484      1071.15        296.52126      8.3818557      0.16126987   
   2590000  -14.821618      1056.913       1042.0914      288.03608     -0.64874991     0.16126987   
   2600000   35.475576      1047.533       1083.0086      285.47978     -0.37547387     0.16126987   
   2610000  -33.532067      1068.4275      1034.8954      291.17406      3.5231552      0.16126987   
   2620000  -35.528839      1132.7783      1097.2495      308.71133      3.4545973      0.16126987   
   2630000   15.88284       1077.2148      1093.0977      293.56885     -7.0602393      0.16126987   
   2640000  -31.287187      1069.8124      1038.5253      291.55151     -0.269157       0.16126987   
   2650000  -26.824329      1089.9263      1063.1019      297.03304      0.91550226     0.16126987   
   2660000  -49.803787      1099.1974      1049.3937      299.55968     -2.0915431      0.16126987   
   2670000  -101.69879      1097.471       995.77217      299.08917      2.9306318      0.16126987   
   2680000  -32.333086      1117.2522      1084.9191      304.48007     -6.5327545      0.16126987   
   2690000  -27.300047      1048.2402      1020.9402      285.67251      3.3828911      0.16126987   
   2700000   2.2778036      1132.8032      1135.081       308.71812      2.485641       0.16126987   
   2710000  -21.548536      1090.3277      1068.7792      297.14244      2.294065       0.16126987   
   2720000  -55.083992      1132.1521      1077.0681      308.54066      4.1753295      0.16126987   
   2730000  -27.951835      1116.3519      1088.4001      304.23471      1.1082758      0.16126987   
   2740000  -60.609774      1111.0821      1050.4723      302.79856      0.25433114     0.16126987   
   2750000  -29.819001      1103.1475      1073.3285      300.63618     -7.9518561      0.16126987   
   2760000  -29.986253      1112.5008      1082.5146      303.1852       7.5837256      0.16126987   
   2770000  -65.703152      1099.6776      1033.9745      299.69054     -3.5154         0.16126987   
   2780000  -42.462449      1103.4568      1060.9944      300.72047      6.2988073      0.16126987   
   2790000   58.533033      1092.2933      1150.8263      297.67812     -1.8797953      0.16126987   
   2800000  -5.4562413      1167.148       1161.6917      318.07794     -4.8919476      0.16126987   
   2810000  -32.913906      1136.3044      1103.3905      309.67227     -3.6263252      0.16126987   
   2820000  -114.97369      1152.2613      1037.2876      314.02094      3.2599026      0.16126987   
   2830000  -61.86736       1055.4978      993.63042      287.65039      2.4756338      0.16126987   
   2840000  -68.201798      1078.4512      1010.2494      293.90578      0.75744145     0.16126987   
   2850000  -62.380882      1081.3557      1018.9748      294.69735      0.52660214     0.16126987   
   2860000  -22.010135      1100.5744      1078.5642      299.93493     -0.49720574     0.16126987   
   2870000  -73.087408      1085.923       1012.8356      295.94205      6.7080745      0.16126987   
   2880000  -102.47669      1116.3071      1013.8305      304.22251      2.0734906      0.16126987   
   2890000  -41.15488       1122.4088      1081.254       305.88538      1.5645917      0.16126987   
   2900000  -83.43423       1089.5012      1006.067       296.91721      3.0948559      0.16126987   
   2910000   5.8555778      1098.3352      1104.1908      299.3247      -2.4158544      0.16126987   
   2920000  -64.464613      1107.3754      1042.9108      301.78839      2.5314401      0.16126987   
   2930000   15.525553      1139.9124      1155.438       310.65555      3.3759137      0.16126987   
   2940000  -85.631992      1132.8006      1047.1686      308.71739     -3.3532792      0.16126987   
   2950000  -49.193886      1108.9751      1059.7812      302.22434      5.6752233      0.16126987   
   2960000  -32.244054      1110.7487      1078.5046      302.70769     -3.3490074      0.16126987   
   2970000  -4.9344058      1045.2571      1040.3227      284.85955      1.675018       0.16126987   
   2980000  -7.138643       1100.5532      1093.4145      299.92915     -5.0492121      0.16126987   
   2990000  -57.349638      1085.9257      1028.576       295.94277     -1.1919143      0.16126987   
   3000000  -51.52706       1086.6143      1035.0872      296.13044      2.8098503      0.16126987   
   3010000  -13.918222      1104.7728      1090.8546      301.07911     -7.7454567      0.16126987   
   3020000  -67.745262      1122.4062      1054.661       305.88467      5.1632101      0.16126987   
   3030000  -116.71896      1067.2131      950.49415      290.84312      4.6689649      0.16126987   
   3040000  -101.78951      1082.73        980.94053      295.07188      1.1698777      0.16126987   
   3050000  -71.009474      1117.0127      1046.0032      304.41479      6.3230401      0.16126987   
   3060000  -24.511983      1104.6841      1080.1721      301.05494      7.7485259      0.16126987   
   3070000   13.715112      1119.1174      1132.8325      304.98838     -0.66085824     0.16126987   
   3080000  -100.75068      1100.2002      999.44953      299.83296      7.3518096      0.16126987   
   3090000  -109.69166      1117.7752      1008.0836      304.62261      2.0014621      0.16126987   
   3100000  -88.850185      1124.6079      1035.7577      306.48467      3.0341356      0.16126987   
   3110000  -142.07145      1087.8308      945.75936      296.46198      3.9850106      0.16126987   
   3120000  -138.03771      1100.5137      962.476        299.91839     -3.9708079      0.16126987   
   3130000  -16.570404      1119.6202      1103.0498      305.12541      1.3016656      0.16126987   
   3140000  -112.44827      1055.4075      942.95928      287.6258       3.6387427      0.16126987   
   3150000  -121.64137      1101.8804      980.23902      300.29085     -4.5091123      0.16126987   
   3160000  -27.471335      1132.881       1105.4097      308.73932      1.7202984      0.16126987   
   3170000  -125.17948      1138.9372      1013.7577      310.38978      0.90579227     0.16126987   
   3180000  -87.370332      1105.0722      1017.7019      301.1607       1.7802178      0.16126987   
   3190000  -93.176197      1120.8709      1027.6947      305.46625      1.101856       0.16126987   
   3200000  -71.809151      1127.8188      1056.0096      307.35972      4.5703463      0.16126987   
   3210000  -71.575629      1160.0186      1088.443       316.13502      6.9303714      0.16126987   
   3220000  -68.088291      1135.673       1067.5847      309.50021      0.29011805     0.16126987   
   3230000  -158.21502      1082.7406      924.52559      295.07477      2.151585       0.16126987   
   3240000  -154.99278      1105.1461      950.15328      301.18083      4.7034809      0.16126987   
   3250000  -112.49426      1096.3039      983.80961      298.7711      -4.8783451      0.16126987   
   3260000  -97.485197      1100.1191      1002.6339      299.81085     -5.1373375      0.16126987   
   3270000  -120.55689      1158.8563      1038.2994      315.81826      2.2668392      0.16126987   
   3280000  -112.00298      1081.1539      969.15092      294.64235      1.0005187      0.16126987   
   3290000  -84.701924      1127.3468      1042.6449      307.23111     -2.4319535      0.16126987   
   3300000  -83.771561      1086.3464      1002.5749      296.05744      2.4203356      0.16126987   
   3310000  -144.23354      1097.1273      952.89379      298.99552     -4.0263991      0.16126987   
   3320000  -97.657581      1088.0844      990.42682      296.53109      3.9032462      0.16126987   
   3330000  -99.689579      1103.2412      1003.5516      300.6617       8.4298949      0.16126987   
   3340000  -81.833034      1124.0555      1042.2225      306.33414     -12.881083      0.16126987   
   3350000  -148.09649      1119.2062      971.10967      305.01257     -4.6551856      0.16126987   
   3360000  -125.50827      1086.4295      960.92125      296.08009      2.9276554      0.16126987   
   3370000  -123.57392      1082.1476      958.5737       294.91316      3.9564261      0.16126987   
   3380000  -60.4859        1095.8399      1035.354       298.64466      3.49318        0.16126987   
   3390000  -110.64266      1108.363       997.72038      302.05754      3.7075791      0.16126987   
   3400000  -64.106114      1054.8747      990.7686       287.48059      3.2270993      0.16126987   
   3410000  -28.16726       1081.8106      1053.6433      294.82132     -5.8753957      0.16126987   
   3420000  -46.212355      1140.3901      1094.1778      310.78575      1.3635182      0.16126987   
   3430000  -92.785385      1067.9532      975.16786      291.04483      2.2071769      0.16126987   
   3440000  -123.27322      1105.1128      981.83955      301.17176     -3.230271       0.16126987   
   3450000  -110.60966      1084.0512      973.44149      295.43192      0.56058407     0.16126987   
   3460000  -136.93713      1074.1983      937.2612       292.74678     -2.3725263      0.16126987   
   3470000  -54.034405      1095.3242      1041.2898      298.50411     -2.8784181      0.16126987   
   3480000  -57.909169      1091.0116      1033.1025      297.32884     -5.3238851      0.16126987   
   3490000  -92.180606      1039.2618      947.08116      283.22566      5.4286293      0.16126987   
   3500000  -62.057375      1128.1359      1066.0786      307.44617      0.89905622     0.16126987   
   3510000  -46.209741      1058.5233      1012.3135      288.47492      1.029954       0.16126987   
   3520000  -26.733971      1087.7016      1060.9677      296.42677      0.62710218     0.16126987   
   3530000  -42.660422      1103.9361      1061.2757      300.85109      5.8815642      0.16126987   
   3540000  -76.634098      1118.1636      1041.5295      304.72845     -2.9240788      0.16126987   
   3550000  -62.384895      1102.2055      1039.8206      300.37946      3.1592219      0.16126987   
   3560000  -119.774        1127.034       1007.26        307.14587     -0.3073536      0.16126987   
   3570000  -75.504586      1133.7093      1058.2047      308.96504      7.3374878      0.16126987   
   3580000  -105.82414      1143.1936      1037.3694      311.54976      12.75842       0.16126987   
   3590000  -64.628229      1114.2922      1049.664       303.6734      -2.1741652      0.16126987   
   3600000  -32.242785      1057.5328      1025.29        288.20498     -5.7298782      0.16126987   
   3610000  -37.716478      1095.595       1057.8785      298.57792      1.8214369      0.16126987   
   3620000  -38.413105      1146.669       1108.2559      312.4969      -0.43022856     0.16126987   
   3630000  -39.26084       1113.2586      1073.9978      303.39171     -10.482669      0.16126987   
   3640000  -10.580637      1086.3716      1075.7909      296.0643       2.382703       0.16126987   
   3650000  -73.910018      1091.8821      1017.9721      297.56605     -3.4950257      0.16126987   
   3660000  -99.657899      1099.0004      999.34247      299.50597     -2.2974261      0.16126987   
   3670000  -24.557696      1103.9866      1079.4289      300.86485      0.17823919     0.16126987   
   3680000  -89.15066       1128.4128      1039.2621      307.52162      7.9194346      0.16126987   
   3690000  -70.045766      1110.6877      1040.6419      302.69107      2.9382295      0.16126987   
   3700000  -97.008625      1115.1433      1018.1346      303.90532     -3.4589766      0.16126987   
   3710000  -148.38678      1100.8062      952.41943      299.99811      11.891277      0.16126987   
   3720000  -154.58308      1084.0218      929.43874      295.42393     -1.7093018      0.16126987   
   3730000  -99.634061      1079.1722      979.53813      294.10228      1.6193102      0.16126987   
   3740000  -118.19226      1069           950.80775      291.3301      -4.6703433      0.16126987   
   3750000  -82.617312      1091.2737      1008.6564      297.40026      6.5644319      0.16126987   
   3760000  -137.47055      1149.9819      1012.5114      313.39976      7.8859829      0.16126987   
   3770000  -76.317687      1145.8309      1069.5132      312.2685      -0.60527247     0.16126987   
   3780000  -62.175364      1093.8364      1031.6611      298.09866     -1.8838756      0.16126987   
   3790000  -62.843465      1065.3164      1002.4729      290.32621     -4.3791243      0.16126987   
   3800000  -119.16496      1106.9969      987.83197      301.68524     -0.48696537     0.16126987   
   3810000  -41.041843      1075.7037      1034.6619      293.15704     -2.5852644      0.16126987   
   3820000  -92.899794      1101.4779      1008.5781      300.18116      3.6293474      0.16126987   
   3830000  -146.18594      1103.1483      956.96237      300.63639      9.0919023      0.16126987   
   3840000  -85.809955      1084.6104      998.80043      295.58433      1.2714859      0.16126987   
   3850000  -80.526553      1094.8214      1014.2948      298.36708      0.73258039     0.16126987   
   3860000  -74.622357      1087.6903      1013.068       296.42369     -1.093336       0.16126987   
   3870000  -69.660931      1083.4345      1013.7735      295.26386     -3.6077203      0.16126987   
   3880000  -92.444928      1114.9471      1022.5022      303.85186      1.9316399      0.16126987   
   3890000  -143.2751       1048.2822      905.00714      285.68397      5.0820009      0.16126987   
   3900000  -81.729326      1099.4364      1017.707       299.62479      0.4017118      0.16126987   
   3910000   2.7728607      1077.0163      1079.7892      293.51476     -1.2436322      0.16126987   
   3920000  -31.645424      1092.9157      1061.2703      297.84775      5.3748798      0.16126987   
   3930000  -71.139975      1105.2628      1034.1228      301.21265     -0.98304597     0.16126987   
   3940000  -77.290227      1086.6715      1009.3813      296.14604     -8.148593       0.16126987   
   3950000  -91.915277      1099.8696      1007.9543      299.74286     -2.8316025      0.16126987   
   3960000  -87.456559      1108.5324      1021.0758      302.10369     -6.5987459      0.16126987   
   3970000  -66.200358      1052.071       985.87059      286.71649     -10.272724      0.16126987   
   3980000  -145.13181      1079.3347      934.20287      294.14656      3.3271039      0.16126987   
   3990000  -92.234034      1095.8658      1003.6318      298.65172     -5.232715       0.16126987   
   4000000  -65.560117      1085.0246      1019.4644      295.6972      -4.4809852      0.16126987   
   4010000  -44.047256      1088.4634      1044.4162      296.63439      7.4255039      0.16126987   
   4020000  -55.527898      1102.0088      1046.4809      300.32585      0.42029675     0.16126987   
   4030000  -60.494362      1073.2397      1012.7453      292.48552      1.4264199      0.16126987   
   4040000  -51.620572      1134.7111      1083.0905      309.23806      3.6946079      0.16126987   
   4050000  -98.193064      1116.4465      1018.2534      304.26048      10.327765      0.16126987   
   4060000  -38.261545      1076.9676      1038.7061      293.50147      0.071754599    0.16126987   
   4070000  -68.129816      1122.7423      1054.6125      305.97625     -2.141359       0.16126987   
   4080000  -99.892409      1092.1482      992.25576      297.63857     -0.88549224     0.16126987   
   4090000  -58.461638      1095.5118      1037.0502      298.55526     -1.0741006      0.16126987   
   4100000  -61.793017      1097.1412      1035.3482      298.9993       1.3199876      0.16126987   
   4110000  -57.921324      1119.2872      1061.3658      305.03465      1.7977462      0.16126987   
   4120000  -28.546297      1071.7897      1043.2434      292.09037      2.292423       0.16126987   
   4130000  -43.670329      1089.7337      1046.0633      296.98055      0.41239296     0.16126987   
   4140000  -46.607702      1079.2456      1032.6379      294.12229     -0.58507339     0.16126987   
   4150000  -26.545961      1083.323       1056.777       295.23348      0.50299454     0.16126987   
   4160000  -8.905558       1097.2249      1088.3194      299.02211      9.2960572      0.16126987   
   4170000  -24.728556      1097.6453      1072.9168      299.13669     -0.62069078     0.16126987   
   4180000  -56.060306      1155.2349      1099.1745      314.83132      2.6838043      0.16126987   
   4190000  -0.056683016    1075.5931      1075.5364      293.12688     -2.2601711      0.16126987   
   4200000   17.453044      1074.1256      1091.5787      292.72697     -5.683073       0.16126987   
   4210000   34.241952      1115.579       1149.821       304.02408     -1.7378651      0.16126987   
   4220000  -38.110163      1127.9082      1089.7981      307.38411     -5.7462247      0.16126987   
   4230000  -78.849294      1099.306       1020.4567      299.58927      2.5946693      0.16126987   
   4240000   37.668038      1100.5331      1138.2012      299.92369     -5.6107271      0.16126987   
   4250000  -42.385841      1133.3068      1090.921       308.85537      1.3649059      0.16126987   
   4260000  -0.28321147     1108.3067      1108.0235      302.04219     -1.2033147      0.16126987   
   4270000  -32.944446      1090.9312      1057.9867      297.3069       2.4752994      0.16126987   
   4280000  -59.925295      1078.2539      1018.3286      293.85203      6.1666587      0.16126987   
   4290000  -79.106231      1102.1231      1023.0169      300.357        0.1588085      0.16126987   
   4300000  -42.666485      1129.2722      1086.6057      307.75582      5.5518438      0.16126987   
   4310000  -53.45313       1139.7572      1086.3041      310.61326     -4.5350238      0.16126987   
   4320000  -38.44401       1089.7418      1051.2978      296.98277      0.21865545     0.16126987   
   4330000   14.634163      1091.2989      1105.9331      297.40712      6.568896       0.16126987   
   4340000  -36.188915      1082.7315      1046.5426      295.07229     -0.76588378     0.16126987   
   4350000  -20.330608      1104.2033      1083.8727      300.92391      2.3441455      0.16126987   
   4360000  -65.796889      1078.1198      1012.3229      293.81548     -3.0235796      0.16126987   
   4370000  -56.401993      1095.1069      1038.7049      298.4449       10.409721      0.16126987   
   4380000  -73.957247      1079.9053      1005.948       294.30207     -1.6525853      0.16126987   
   4390000  -92.723162      1147.8138      1055.0906      312.80889     -4.2384219      0.16126987   
   4400000  -98.998545      1079.9427      980.94414      294.31226      3.5960468      0.16126987   
   4410000  -90.79848       1063.2532      972.45473      289.76395     -4.2633392      0.16126987   
   4420000  -91.744724      1062.0845      970.33975      289.44544     -2.4980259      0.16126987   
   4430000  -110.27513      1114.6267      1004.3516      303.76455     -3.3714584      0.16126987   
   4440000  -106.86511      1086.6538      979.7887       296.14121     -1.0818477      0.16126987   
   4450000  -96.674683      1108.6044      1011.9297      302.12331      5.6936749      0.16126987   
   4460000  -55.59366       1086.826       1031.2323      296.18813      0.51455248     0.16126987   
   4470000  -120.13653      1121.6286      1001.4921      305.67276      2.8998031      0.16126987   
   4480000  -83.40446       1121.3092      1037.9048      305.58571      11.525098      0.16126987   
   4490000  -57.974894      1045.7343      987.75941      284.98959      2.399465       0.16126987   
   4500000  -19.264678      1123.303       1104.0383      306.12907      4.9658217      0.16126987   
   4510000  -93.348318      1115.0929      1021.7446      303.8916       1.9896279      0.16126987   
   4520000  -92.737919      1113.5364      1020.7985      303.46742      0.68126982     0.16126987   
   4530000  -41.995107      1109.0224      1067.0273      302.23724     -3.7077279      0.16126987   
   4540000  -35.249714      1093.9819      1058.7322      298.13831      2.2818939      0.16126987   
   4550000  -30.599306      1110.5334      1079.9341      302.64902     -3.9574362      0.16126987   
   4560000  -57.130643      1124.8275      1067.6969      306.54453      1.4189237      0.16126987   
   4570000  -67.312921      1102.6264      1035.3135      300.49415      5.6144928      0.16126987   
   4580000  -92.301075      1138.9688      1046.6677      310.39839      3.4823128      0.16126987   
   4590000  -46.043679      1099.269       1053.2253      299.57918     -0.14989545     0.16126987   
   4600000  -17.730598      1082.4899      1064.7593      295.00644      1.4175942      0.16126987   
   4610000  -65.405865      1074.2757      1008.8698      292.76785      1.7012795      0.16126987   
   4620000  -27.920903      1063.1148      1035.1939      289.72623      12.501308      0.16126987   
   4630000  -45.067797      1111.6546      1066.5868      302.95459     -2.3771546      0.16126987   
   4640000  -15.859119      1130.76        1114.9009      308.1613      -3.5464206      0.16126987   
   4650000  -28.920252      1093.174       1064.2538      297.91814     -6.4177135      0.16126987   
   4660000   16.252125      1051.9368      1068.1889      286.67993     -5.3217197      0.16126987   
   4670000  -15.046814      1121.6351      1106.5883      305.67453      1.018302       0.16126987   
   4680000  -91.414611      1102.104       1010.6894      300.3518       1.3436367      0.16126987   
   4690000  -67.535971      1091.6887      1024.1527      297.51334      1.8818907      0.16126987   
   4700000  -38.297667      1076.7291      1038.4314      293.43647      7.3701191      0.16126987   
   4710000  -22.161347      1166.5784      1144.4171      317.92273     -1.767217       0.16126987   
   4720000  -78.284859      1110.0392      1031.7544      302.51435      4.7498768      0.16126987   
   4730000  -37.711302      1121.0134      1083.3021      305.5051       0.15563891     0.16126987   
   4740000  -109.84498      1082.1219      972.27696      294.90616      12.790794      0.16126987   
   4750000  -40.866881      1092.0017      1051.1349      297.59866      17.608987      0.16126987   
   4760000  -63.597711      1081.3309      1017.7332      294.6906       0.95585038     0.16126987   
   4770000  -78.71909       1056.4537      977.73461      287.9109       1.6863038      0.16126987   
   4780000  -88.003657      1132.7811      1044.7774      308.71209      1.3266732      0.16126987   
   4790000  -138.35883      1103.0449      964.68612      300.60822     -1.8562514      0.16126987   
   4800000  -126.79402      1085.3532      958.5592       295.78677      7.0674805      0.16126987   
   4810000  -101.67829      1121.8433      1020.1651      305.73127      11.130773      0.16126987   
   4820000  -58.196085      1051.0896      992.89356      286.44906      1.4284442      0.16126987   
   4830000  -80.307959      1067.5976      987.28965      290.94791     -3.6946296      0.16126987   
   4840000  -7.0454523      1150.7666      1143.7211      313.6136       5.1095609      0.16126987   
   4850000  -0.075046854    1085.0296      1084.9546      295.69858     -0.31237757     0.16126987   
   4860000  -77.700666      1107.2114      1029.5108      301.74369      3.2681503      0.16126987   
   4870000  -31.162974      1082.7144      1051.5514      295.06763     -5.0796566      0.16126987   
   4880000  -40.483775      1119.0388      1078.555       304.96695     -1.3694494      0.16126987   
   4890000  -53.100135      1115.9188      1062.8186      304.11667     -0.53502907     0.16126987   
   4900000  -68.413137      1067.4615      999.04837      290.91082      6.4174362      0.16126987   
   4910000  -77.394219      1084.0271      1006.6329      295.42537     -5.5458008      0.16126987   
   4920000  -55.001928      1169.0835      1114.0816      318.60544     -0.10318866     0.16126987   
   4930000  -59.628411      1099.3257      1039.6973      299.59463      2.3649663      0.16126987   
   4940000  -67.950821      1071.0424      1003.0915      291.88669      10.956049      0.16126987   
   4950000  -2.8950568      1123.8377      1120.9427      306.2748       2.2580347      0.16126987   
   4960000  -1.5030374      1085.7009      1084.1979      295.88152      9.472507       0.16126987   
   4970000  -36.867384      1080.8627      1043.9953      294.56299     -3.0008085      0.16126987   
   4980000   53.342754      1083.117       1136.4598      295.17734      5.6521313      0.16126987   
   4990000  -3.9611965      1108.3647      1104.4036      302.05801     -4.0158154      0.16126987   
   5000000  -15.846784      1082.2534      1066.4066      294.94198      0.94538014     0.16126987   
Loop time of 2640.05 on 4 procs for 5000000 steps with 1232 atoms

Performance: 1636.332 ns/day, 0.015 hours/ns, 1893.902 timesteps/s, 2.333 Matom-step/s
99.7% CPU use with 4 MPI tasks x 1 OpenMP threads

MPI task timing breakdown:
Section |  min time  |  avg time  |  max time  |%varavg| %total
---------------------------------------------------------------
Pair    | 1807       | 1958.2     | 2097.3     | 238.4 | 74.17
Bond    | 91.947     | 98.901     | 101.68     |  40.5 |  3.75
Neigh   | 5.9544     | 5.9559     | 5.9588     |   0.1 |  0.23
Comm    | 387.23     | 531.47     | 691.94     | 479.8 | 20.13
Output  | 0.096556   | 0.12136    | 0.19003    |  11.4 |  0.00
Modify  | 37.681     | 40.413     | 43.638     |  33.6 |  1.53
Other   |            | 4.993      |            |       |  0.19

Nlocal:            308 ave         360 max         248 min
Histogram: 1 0 0 0 0 2 0 0 0 1
Nghost:         1173.5 ave        1233 max        1124 min
Histogram: 1 0 0 1 1 0 0 0 0 1
Neighs:         3360.5 ave        3786 max        2569 min
Histogram: 1 0 0 0 0 0 1 0 0 2

Total # of neighbors = 13442
Ave neighs/atom = 10.910714
Ave special neighs/atom = 5.0162338
Neighbor list builds = 9958
Dangerous builds = 0

# ===============================
# 4. PRODUCTION
# ===============================
# Reset averages for production
unfix favg
fix favg all ave/time 10000 10 100000 v_vpe v_vke v_vT v_vE v_vRg     file outputs/thermo_${tag}_production.dat
fix favg all ave/time 10000 10 100000 v_vpe v_vke v_vT v_vE v_vRg     file outputs/thermo_100ASO_extended_12mer_unmodified_production.dat

restart 10000000 outputs/backup_${tag}.*.restart
restart 10000000 outputs/backup_100ASO_extended_12mer_unmodified.*.restart
run 100000000
Generated 0 of 6 mixed pair_coeff terms from geometric mixing rule
Per MPI rank memory allocation (min/avg/max) = 8.626 | 8.627 | 8.628 Mbytes
   Step         PotEng         KinEng         TotEng          Temp          Press         Density    
   5000000  -15.846784      1082.2534      1066.4066      294.94198      0.94538014     0.16126987   
   5010000   49.544299      1085.2622      1134.8065      295.76196      1.5373289      0.16126987   
   5020000  -11.413934      1139.6932      1128.2792      310.59581      6.3655914      0.16126987   
   5030000  -44.308278      1100.2001      1055.8918      299.83293     -10.008478      0.16126987   
   5040000  -62.541796      1137.3658      1074.824       309.96154      14.426321      0.16126987   
   5050000  -49.56538       1083.7956      1034.2302      295.36228      6.3623167      0.16126987   
   5060000  -90.271695      1113.2076      1022.9359      303.37781     -1.3516759      0.16126987   
   5070000  -63.904618      1097.9085      1034.0039      299.20842      7.3919029      0.16126987   
   5080000  -58.92044       1126.9541      1068.0336      307.12407      4.1622608      0.16126987   
   5090000  -76.333961      1057.8749      981.54094      288.29822     -4.2523962      0.16126987   
   5100000  -91.71942       1118.758       1027.0386      304.89045     -1.4515863      0.16126987   
   5110000  -42.903742      1107.2141      1064.3103      301.74442      8.5805076      0.16126987   
   5120000  -83.721835      1080.9822      997.26038      294.59556      2.4375644      0.16126987   
   5130000  -125.46286      1091.7531      966.29027      297.53091     -2.8107713      0.16126987   
   5140000  -135.29638      1125.9603      990.66394      306.85325      6.5642105      0.16126987   
   5150000  -109.35906      1124.8422      1015.4832      306.54854     -0.80557725     0.16126987   
   5160000  -108.08397      1097.062       988.97799      298.9777       10.787098      0.16126987   
   5170000  -128.89517      1072.074       943.17886      292.16785      0.7639779      0.16126987   
   5180000  -163.53608      1082.9569      919.42087      295.13372     -0.24177689     0.16126987   
   5190000  -154.12448      1022.7224      868.59793      278.71826      0.60717795     0.16126987   
   5200000  -92.148952      1111.5633      1019.4144      302.9297       1.8002131      0.16126987   
   5210000  -133.72966      1083.0491      949.3194       295.15883     -2.5725571      0.16126987   
   5220000  -164.61545      1060.8787      896.26329      289.11684     -0.76227723     0.16126987   
   5230000  -107.51196      1101.6921      994.18015      300.23954      2.2902163      0.16126987   
   5240000  -142.58176      1098.167       955.58524      299.27885     -8.7972679      0.16126987   
   5250000  -133.53852      1130.7241      997.18558      308.15151      0.8437274      0.16126987   
   5260000  -103.9455       1085.1588      981.21334      295.7338       6.9436224      0.16126987   
   5270000  -66.96872       1104.396       1037.4272      300.97641     -0.57280892     0.16126987   
   5280000  -74.433495      1087.5334      1013.0999      296.38092      2.1761577      0.16126987   
   5290000  -103.13972      1091.7786      988.63889      297.53785     -1.4398818      0.16126987   
   5300000  -92.349489      1145.0047      1052.6553      312.04335     -3.0130496      0.16126987   
   5310000  -78.843136      1136.2756      1057.4325      309.66444     -1.2321571      0.16126987   
   5320000  -50.324919      1105.6565      1055.3316      301.31995     -0.64307551     0.16126987   
   5330000  -119.00705      1100.2174      981.21035      299.83764     -1.8546432      0.16126987   
   5340000  -99.156231      1084.5219      985.36569      295.56022     -7.0053075      0.16126987   
   5350000  -129.55838      1105.3086      975.75023      301.22513      6.7270116      0.16126987   
   5360000   1.7799887      1116.5472      1118.3272      304.28792      9.3437692      0.16126987   
   5370000  -80.168519      1131.1448      1050.9762      308.26615      3.663985       0.16126987   
   5380000  -25.191         1091.0075      1065.8165      297.32772     -8.5543304      0.16126987   
   5390000  -74.132773      1085.7514      1011.6186      295.89527     -3.0270694      0.16126987   
   5400000  -116.85855      1100.4605      983.60192      299.90388      8.0389887      0.16126987   
   5410000  -11.100934      1074.3172      1063.2163      292.77917     -4.296843       0.16126987   
   5420000  -68.986115      1139.2344      1070.2483      310.47079     -1.9194227      0.16126987   
   5430000  -86.881269      1062.4409      975.55964      289.54257     -6.9173384      0.16126987   
   5440000  -31.324678      1135.7774      1104.4528      309.52867     -3.8231969      0.16126987   
   5450000  -68.247986      1105.0406      1036.7926      301.15208      1.2415263      0.16126987   
   5460000  -128.14231      1061.9912      933.84884      289.42         0.44087758     0.16126987   
   5470000  -77.693458      1107.8352      1030.1417      301.91368      5.3245613      0.16126987   
   5480000  -40.129639      1119.9478      1079.8181      305.21468      5.4605844      0.16126987   
   5490000  -62.867737      1111.1568      1048.289       302.8189       5.6291024      0.16126987   
   5500000  -85.057847      1074.8266      989.7688       292.91801     -6.8553976      0.16126987   
   5510000  -48.53272       1066.7189      1018.1862      290.70843      2.6929478      0.16126987   
   5520000  -68.012344      1076.5581      1008.5457      293.38987     -2.1990763      0.16126987   
   5530000  -64.02169       1050.8646      986.84291      286.38773      3.7046699      0.16126987   
   5540000  -1.6031213      1035.6897      1034.0866      282.25218     -1.9273181      0.16126987   
   5550000  -26.355289      1094.9093      1068.554       298.39104      6.8774571      0.16126987   
   5560000  -61.941029      1158.4661      1096.5251      315.71192      13.262636      0.16126987   
   5570000  -80.215106      1061.8985      981.68342      289.39476     -1.3516589      0.16126987   
   5580000  -29.682923      1111.0606      1081.3777      302.7927       2.3309349      0.16126987   
   5590000  -96.308941      1084.1186      987.80963      295.4503       6.0426715      0.16126987   
   5600000  -78.160061      1112.4452      1034.2852      303.17005     -7.3554566      0.16126987   
   5610000  -85.329854      1129.3536      1044.0237      307.77801     -0.09105685     0.16126987   
   5620000  -181.54635      1053.4525      871.90616      287.093       -2.2498541      0.16126987   
   5630000  -76.530387      1096.9392      1020.4088      298.94425     -5.6055924      0.16126987   
   5640000  -135.9595       1125.2689      989.3094       306.66482      0.4410817      0.16126987   
   5650000  -114.7262       1082.2856      967.55938      294.95076     -6.3854938      0.16126987   
   5660000  -107.05099      1062.5625      955.51151      289.57571      6.7788177      0.16126987   
   5670000  -109.20401      1103.4278      994.22376      300.71255     -10.094275      0.16126987   
   5680000  -109.78265      1061.8547      952.07203      289.38281      13.316723      0.16126987   
   5690000  -48.488314      1112.7203      1064.2319      303.24499     -5.2092463      0.16126987   
   5700000  -5.438176       1079.7248      1074.2866      294.25288     -2.6207391      0.16126987   
   5710000  -45.521774      1082.0562      1036.5345      294.88826      2.0305515      0.16126987   
   5720000   5.0525858      1132.3857      1137.4383      308.60433      0.79448453     0.16126987   
   5730000  -117.0764       1131.2796      1014.2032      308.30289     -2.9359961      0.16126987   
   5740000  -79.561568      1080.9128      1001.3512      294.57664      7.9991761      0.16126987   
   5750000  -67.005259      1084.4458      1017.4405      295.53946     -1.2609435      0.16126987   
   5760000  -67.713888      1095.9626      1028.2488      298.67811      3.5708468      0.16126987   
   5770000  -63.80135       1109.902       1046.1006      302.47694     -0.17218162     0.16126987   
   5780000  -73.115265      1132.8368      1059.7216      308.72728     -6.3765938      0.16126987   
   5790000  -125.25905      1094.5052      969.24612      298.28091     -4.4451371      0.16126987   
   5800000  -97.852472      1081.6424      983.78993      294.77548     -1.3876427      0.16126987   
   5810000  -58.991969      1105.438       1046.4461      301.2604       3.1340206      0.16126987   
   5820000  -135.82698      1111.8925      976.06553      303.01941     -1.7679357      0.16126987   
   5830000  -47.783816      1094.9267      1047.1429      298.3958      -1.7805496      0.16126987   
   5840000  -68.811957      1072.0895      1003.2775      292.17206     -0.41006257     0.16126987   
   5850000  -61.464407      1076.501       1015.0366      293.37431      11.632695      0.16126987   
   5860000  -59.297093      1119.8196      1060.5225      305.17974      0.60890914     0.16126987   
   5870000  -9.3830681      1120.5291      1111.146       305.37311     -2.3016937      0.16126987   
   5880000  -42.441483      1140.4701      1098.0286      310.80753     -0.19198851     0.16126987   
   5890000  -112.63158      1103.6838      991.05223      300.78233      3.1294557      0.16126987   
   5900000  -78.257678      1112.5127      1034.2551      303.18844      5.5442496      0.16126987   
   5910000  -53.360601      1066.9335      1013.5729      290.76693     -2.1348062      0.16126987   
   5920000  -82.482037      1103.0587      1020.5767      300.61197      5.5902347      0.16126987   
   5930000  -103.26681      1138.248       1034.9812      310.20197      8.9301082      0.16126987   
   5940000  -73.663265      1034.5642      960.90096      281.94546      2.7827055      0.16126987   
   5950000  -26.713946      1139.7132      1112.9992      310.60126      6.2560908      0.16126987   
   5960000  -60.494806      1125.9536      1065.4588      306.85143      1.0684313      0.16126987   
   5970000  -9.3895424      1048.9324      1039.5429      285.86116     -4.462344       0.16126987   
   5980000   10.311991      1055.5369      1065.8489      287.66104     -2.274562       0.16126987   
   5990000  -49.557115      1071.8602      1022.3031      292.10956     -2.1847531      0.16126987   
   6000000   1.5682171      1095.5777      1097.1459      298.5732       3.3816872      0.16126987   
   6010000  -39.170309      1073.2989      1034.1286      292.50166      2.9887968      0.16126987   
   6020000  -33.590703      1071.6241      1038.0334      292.04524      3.327756       0.16126987   
   6030000  -81.625956      1104.1986      1022.5726      300.92261     -0.77636424     0.16126987   
   6040000  -76.786783      1091.7663      1014.9795      297.5345       1.5771359      0.16126987   
   6050000  -60.369756      1103.3299      1042.9601      300.68587      2.8366374      0.16126987   
   6060000  -129.35588      1094.054       964.69809      298.15795      3.5733042      0.16126987   
   6070000  -74.8146        1102.1005      1027.2859      300.35084      1.8973301      0.16126987   
   6080000  -111.5777       1109.4772      997.89948      302.36117      7.1598279      0.16126987   
   6090000  -55.768542      1105.5009      1049.7323      301.27753     -5.0725604      0.16126987   
   6100000  -107.49116      1083.9204      976.42923      295.39629      9.2163921      0.16126987   
   6110000  -55.523671      1093.4133      1037.8897      297.98336      3.4088478      0.16126987   
   6120000  -90.022181      1105.367       1015.3449      301.24105     -1.6713126      0.16126987   
   6130000  -99.256771      1066.6014      967.34467      290.67643     -0.38412537     0.16126987   
   6140000  -119.43725      1104.0943      984.65706      300.8942       9.6635154      0.16126987   
   6150000  -63.670185      1100.6528      1036.9826      299.9563      -0.57610682     0.16126987   
   6160000  -69.108896      1123.6653      1054.5564      306.2278      -2.8771211      0.16126987   
   6170000  -118.70944      1114.7642      996.05478      303.80203      0.59645062     0.16126987   
   6180000  -17.146743      1103.7919      1086.6451      300.81178     -6.1515353      0.16126987   
   6190000  -84.666742      1101.0629      1016.3962      300.06806      9.7542352      0.16126987   
   6200000  -75.186091      1103.128       1027.9419      300.63084     -0.17271471     0.16126987   
   6210000  -80.834182      1069.1207      988.28655      291.363        4.0815101      0.16126987   
   6220000  -107.86017      1055.5876      947.7274       287.67486      0.47238648     0.16126987   
   6230000  -128.42187      1093.5808      965.15894      298.029       -1.0840662      0.16126987   
   6240000  -131.08629      1112.1449      981.05859      303.08819      3.6575671      0.16126987   
   6250000  -99.453282      1057.6769      958.22366      288.24427     -7.9687405      0.16126987   
   6260000  -125.05102      1072.2507      947.19969      292.216        5.1145005      0.16126987   
   6270000  -141.48651      1074.773       933.28651      292.90339      1.7859049      0.16126987   
   6280000  -54.022835      1102.2147      1048.1919      300.38197      9.4040412      0.16126987   
   6290000  -96.659818      1122.5321      1025.8723      305.91898      3.7708156      0.16126987   
   6300000  -123.95016      1085.552       961.60188      295.84095     -1.462375       0.16126987   
   6310000  -112.00092      1115.0644      1003.0635      303.88385      2.434681       0.16126987   
   6320000  -35.576534      1115.1617      1079.5852      303.91036     -4.2996517      0.16126987   
   6330000  -62.428228      1115.9233      1053.495       304.1179      -5.1307314      0.16126987   
   6340000  -71.639755      1099.1299      1027.4902      299.54128      1.8009165      0.16126987   
   6350000  -6.0102507      1090.9346      1084.9244      297.30785     -6.1809174      0.16126987   
   6360000  -10.012791      1117.8263      1107.8135      304.63652      0.032480283    0.16126987   
   6370000  -69.295867      1094.4262      1025.1303      298.25939     -6.956161       0.16126987   
   6380000  -2.4491126      1101.512       1099.0629      300.19045      4.3385564      0.16126987   
   6390000  -10.05254       1088.8661      1078.8136      296.74413     -2.6247765      0.16126987   
   6400000  -44.349748      1097.4421      1053.0924      299.08131      2.0034006      0.16126987   
   6410000  -23.235595      1091.2999      1068.0643      297.4074      -7.0435262      0.16126987   
   6420000  -34.580196      1075.0896      1040.5094      292.98967      1.3207004      0.16126987   
   6430000  -64.231834      1132.7854      1068.5536      308.71326     -2.1349204      0.16126987   
   6440000  -85.072532      1129.6898      1044.6172      307.86962      1.1079813      0.16126987   
   6450000  -131.90124      1044.2535      912.35227      284.58604      10.061127      0.16126987   
   6460000  -22.179988      1106.3649      1084.1849      301.51298      2.9974276      0.16126987   
   6470000  -84.35569       1087.5615      1003.2058      296.38858     -1.8458323      0.16126987   
   6480000  -32.139611      1150.1865      1118.0469      313.45552      4.487571       0.16126987   
   6490000  -22.379579      1113.6828      1091.3033      303.50732     -4.0478357      0.16126987   
   6500000  -82.594665      1110.0847      1027.49        302.52674      8.1950569      0.16126987   
   6510000  -123.88492      1069.9003      946.01538      291.57545      5.7254351      0.16126987   
   6520000  -58.889982      1112.2693      1053.3793      303.12208     -3.1313464      0.16126987   
   6530000  -76.582047      1082.6168      1006.0348      295.04103     -6.5179517      0.16126987   
   6540000  -90.400016      1029.3456      938.94562      280.52326     -3.7272413      0.16126987   
   6550000  -92.543228      1102.8898      1010.3466      300.56593      6.5871092      0.16126987   
   6560000  -97.586023      1089.0492      991.4632       296.79403     -3.4608813      0.16126987   
   6570000  -107.38905      1057.573       950.184        288.21595     -2.5020598      0.16126987   
   6580000  -148.49225      1091.3185      942.8262       297.41245      0.51430624     0.16126987   
   6590000  -112.05876      1113.411       1001.3523      303.43324      6.9075299      0.16126987   
   6600000  -91.419654      1120.0099      1028.5902      305.2316      -4.1649983      0.16126987   
   6610000  -50.837206      1080.2023      1029.3651      294.38301     -2.309482       0.16126987   
   6620000  -62.200395      1155.6874      1093.487       314.95464      2.3575375      0.16126987   
   6630000  -80.474502      1160.8392      1080.3647      316.35864      6.9525606      0.16126987   
   6640000  -96.26934       1139.8477      1043.5783      310.63791      7.2803793      0.16126987   
   6650000  -105.66142      1121.5628      1015.9014      305.65481      0.0039881165   0.16126987   
   6660000  -87.983398      1119.2215      1031.2381      305.01675      7.6533389      0.16126987   
   6670000  -91.287952      1107.1028      1015.8149      301.71409      6.5341753      0.16126987   
   6680000  -37.958655      1092.5314      1054.5727      297.743       -4.4572176      0.16126987   
   6690000  -48.819334      1109.1434      1060.3241      302.27022      4.295251       0.16126987   
   6700000  -14.537092      1075.1991      1060.662       293.01951      5.8123822      0.16126987   
   6710000  -44.995404      1091.9705      1046.9751      297.59015      2.337394       0.16126987   
   6720000   17.71071       1107.4129      1125.1236      301.7986       3.9922086      0.16126987   
   6730000   2.1911953      1112.1478      1114.339       303.08898     -3.5570815      0.16126987   
   6740000   15.145114      1046.5547      1061.6998      285.21317      1.2704429      0.16126987   
   6750000   34.503645      1102.0392      1136.5428      300.33413     -6.6093713      0.16126987   
   6760000  -19.094395      1026.3998      1007.3054      279.72045     -1.0169489      0.16126987   
   6770000  -53.361207      1118.5867      1065.2255      304.84376      5.4542446      0.16126987   
   6780000  -62.495436      1076.6853      1014.1898      293.42453     -4.1414302      0.16126987   
   6790000  -58.822106      1133.0013      1074.1792      308.7721      -5.8014429      0.16126987   
   6800000  -68.61518       1075.1208      1006.5056      292.99816     -1.5946371      0.16126987   
   6810000  -5.4761367      1082.3693      1076.8931      294.97357     -0.45730216     0.16126987   
   6820000  -66.172485      1086.5559      1020.3834      296.11454     -3.4928395      0.16126987   
   6830000  -67.652661      1106.1369      1038.4843      301.45087     -2.5071793      0.16126987   
   6840000  -83.556772      1115.0784      1031.5216      303.88764      3.8583725      0.16126987   
   6850000  -33.661186      1104.7727      1071.1115      301.07908      4.9852453      0.16126987   
   6860000  -12.043983      1154.8514      1142.8075      314.72683      1.9008522      0.16126987   
   6870000   9.5972863      1048.8931      1058.4903      285.85044      3.0785486      0.16126987   
   6880000  -3.2294095      1099.5706      1096.3412      299.66138     -0.16692577     0.16126987   
   6890000  -27.455737      1091.0496      1063.5939      297.33919      6.7352275      0.16126987   
   6900000  -53.952675      1070.135       1016.1823      291.63941      2.6134827      0.16126987   
   6910000  -24.470002      1082.5206      1058.0506      295.0148       5.6570912      0.16126987   
   6920000   5.4174095      1104.046       1109.4634      300.88104     -2.3548339      0.16126987   
   6930000  -18.759894      1115.5277      1096.7678      304.01009     -3.9133382      0.16126987   
   6940000  -10.946484      1101.1224      1090.1759      300.08427      4.2464929      0.16126987   
   6950000  -49.398931      1123.0561      1073.6572      306.06178     -8.7939329      0.16126987   
   6960000  -54.17042       1088.4867      1034.3162      296.64071     -2.2622601      0.16126987   
   6970000  -50.249235      1127.8433      1077.5941      307.36642     -0.34985254     0.16126987   
   6980000  -85.455234      1133.7901      1048.3349      308.98707      6.4809124      0.16126987   
   6990000  -70.59479       1096.5261      1025.9313      298.83167      1.4919275      0.16126987   
   7000000  -64.129994      1085.2742      1021.1442      295.76524     -1.2724023      0.16126987   
[...]
  81930000  -91.866623      1106.8294      1014.9628      301.63958      7.7487829      0.16126987   
  81940000  -121.5566       1105.8367      984.28007      301.36904      1.5503674      0.16126987   
  81950000  -127.66218      1109.1336      981.47137      302.26752     -1.146337       0.16126987   
  81960000  -62.942231      1073.334       1010.3918      292.51122     -5.8054935      0.16126987   
  81970000  -81.669163      1122.9943      1041.3251      306.04493      7.9683864      0.16126987   
  81980000  -66.961245      1110.426       1043.4647      302.61974     -2.1270694      0.16126987   
  81990000  -70.580096      1074.5515      1003.9714      292.84303     -1.5325849      0.16126987   
  82000000  -53.539865      1106.5568      1053.017       301.5653       6.3154876      0.16126987   
  82010000  -53.116482      1099.3426      1046.2261      299.59923     -5.322874       0.16126987   
  82020000  -82.097763      1138.9494      1056.8516      310.3931       11.592104      0.16126987   
  82030000  -130.2768       1110.7675      980.4907       302.71282      11.541221      0.16126987   
  82040000  -106.04507      1116.5832      1010.5382      304.29776     -4.9205409      0.16126987   
  82050000  -112.89146      1050.3448      937.45337      286.24608      5.5428063      0.16126987   
  82060000  -138.84346      1083.9617      945.1182       295.40753     -2.3028965      0.16126987   
  82070000  -134.78325      1099.6623      964.87906      299.68637     -0.94534446     0.16126987   
  82080000  -171.43037      1102.0043      930.57393      300.32462     -2.3245315      0.16126987   
  82090000  -97.442878      1102.886       1005.4432      300.56492     -0.39995985     0.16126987   
  82100000  -98.246931      1113.4721      1015.2252      303.44989     -6.7853688      0.16126987   
  82110000  -119.97759      1095.1284      975.15078      298.45075      12.046364      0.16126987   
  82120000  -37.424903      1077.8137      1040.3888      293.73204      5.5205947      0.16126987   
  82130000  -70.438224      1153.1653      1082.7271      314.26732     -6.5374192      0.16126987   
  82140000  -32.928622      1107.9888      1075.0602      301.95555      3.2814569      0.16126987   
  82150000  -89.839411      1062.255       972.41561      289.49191      0.15641928     0.16126987   
  82160000  -16.410908      1075.9625      1059.5516      293.22755      1.6571923      0.16126987   
  82170000  -32.327274      1099.1635      1066.8362      299.55042      7.1109662      0.16126987   
  82180000  -71.17459       1079.1855      1008.0109      294.10591      1.7370997      0.16126987   
  82190000  -9.8328891      1105.839       1096.0061      301.36968      3.9658198      0.16126987   
  82200000  -80.975775      1119.3792      1038.4035      305.05974     -2.4698898      0.16126987   
  82210000  -39.584485      1105.6799      1066.0954      301.32632     -0.16377843     0.16126987   
  82220000  -48.165084      1078.3058      1030.1407      293.86617      4.3751502      0.16126987   
  82230000  -59.860833      1090.3485      1030.4876      297.1481       3.2015235      0.16126987   
  82240000  -140.98747      1093.0471      952.05965      297.88356      5.8055754      0.16126987   
  82250000  -39.835513      1111.6882      1071.8527      302.96372      3.313775       0.16126987   
  82260000  -96.013891      1093.6928      997.67894      298.05953      3.1622761      0.16126987   
  82270000  -29.281565      1065.4109      1036.1293      290.35196      5.3557884      0.16126987   
  82280000  -68.79488       1118.1895      1049.3947      304.73552     -1.4701971      0.16126987   
  82290000  -59.23079       1126.4268      1067.196       306.98038      5.0738689      0.16126987   
  82300000  -53.824635      1066.5616      1012.7369      290.66556      2.430055       0.16126987   
  82310000  -76.842233      1137.1043      1060.2621      309.89027     -0.92262404     0.16126987   
  82320000  -27.940477      1154.7727      1126.8322      314.70537     -2.9391859      0.16126987   
  82330000  -56.400057      1130.4546      1074.0546      308.07806      1.8240014      0.16126987   
  82340000  -20.678699      1122.4312      1101.7525      305.89148      11.039608      0.16126987   
  82350000  -52.22952       1132.8257      1080.5961      308.72424     -0.53280106     0.16126987   
  82360000  -35.074552      1107.4742      1072.3997      301.81531      0.46636678     0.16126987   
  82370000  -75.680458      1087.0751      1011.3946      296.25601     -13.097734      0.16126987   
  82380000  -52.889767      1100.6883      1047.7986      299.96599      5.0643092      0.16126987   
  82390000  -46.719993      1076.8056      1030.0856      293.45732      3.6180746      0.16126987   
  82400000  -37.524077      1053.5856      1016.0615      287.12928     -5.9541119      0.16126987   
  82410000  -22.770003      1100.7718      1078.0018      299.98874      7.4250325      0.16126987   
  82420000   6.0161158      1080.367       1086.3831      294.4279       3.9135696      0.16126987   
  82430000  -3.4003555      1125.6356      1122.2352      306.76475     -3.8462893      0.16126987   
  82440000  -22.58233       1098.9571      1076.3748      299.49419     -3.9756899      0.16126987   
  82450000  -33.739778      1075.3191      1041.5793      293.05221      11.2638        0.16126987   
  82460000   3.8490862      1102.0311      1105.8802      300.33192      2.6979229      0.16126987   
  82470000   25.8143        1067.1317      1092.946       290.82095     -4.4587104      0.16126987   
  82480000  -55.1881        1069.646       1014.4579      291.50614      8.0565978      0.16126987   
  82490000  -92.835019      1105.6938      1012.8588      301.3301       12.265678      0.16126987   
  82500000  -68.143496      1075.215       1007.0715      293.02384      10.112876      0.16126987   
  82510000  -84.088772      1116.7319      1032.6432      304.33828     -5.213992       0.16126987   
  82520000  -35.678269      1044.0694      1008.3911      284.53586     -3.5547173      0.16126987   
  82530000  -107.75621      1071.7142      963.958        292.06979     -0.4244124      0.16126987   
  82540000  -51.845551      1114.5925      1062.747       303.75524      3.2941289      0.16126987   
  82550000  -67.486112      1101.4736      1033.9875      300.17999     -4.5706388      0.16126987   
  82560000  -101.34049      1068.4284      967.08788      291.17431     -1.7157305      0.16126987   
  82570000  -149.64048      1065.7832      916.14269      290.45343     -1.3857775      0.16126987   
  82580000  -92.368988      1115.3705      1023.0016      303.96727      1.653338       0.16126987   
  82590000  -109.05324      1146.8684      1037.8151      312.55123      0.95019737     0.16126987   
  82600000  -26.971305      1086.1734      1059.2021      296.0103       2.2945781      0.16126987   
  82610000  -47.341454      1135.5985      1088.2571      309.47991      4.393074       0.16126987   
  82620000  -116.76756      1085.5894      968.82185      295.85114     -1.0490248      0.16126987   
  82630000  -49.846609      1133.8366      1083.9899      308.99973     -0.82308571     0.16126987   
  82640000  -44.069154      1093.1184      1049.0493      297.90299     -0.11527841     0.16126987   
  82650000  -90.981937      1046.0743      955.09234      285.08224      7.4078174      0.16126987   
  82660000  -71.197009      1153.4588      1082.2618      314.3473       2.1865545      0.16126987   
  82670000  -91.362013      1123.0684      1031.7064      306.06513      2.9261669      0.16126987   
  82680000  -47.675324      1089.6874      1042.012       296.96793     -8.6288061      0.16126987   
  82690000  -27.074593      1130.0911      1103.0165      307.979        2.0316291      0.16126987   
  82700000  -40.504238      1105.8565      1065.3522      301.37444     -0.5924534      0.16126987   
  82710000  -28.365501      1040.3816      1012.0161      283.53085     -1.4695334      0.16126987   
  82720000  -35.145503      1076.2438      1041.0983      293.30423      2.7271665      0.16126987   
  82730000  -62.911152      1084.8339      1021.9227      295.64524      3.282208       0.16126987   
  82740000  -61.086372      1078.2942      1017.2078      293.86301      1.7680748      0.16126987   
  82750000  -54.392101      1079.8711      1025.479       294.29274      12.401065      0.16126987   
  82760000  -21.311966      1074.6322      1053.3203      292.86502     -0.72570044     0.16126987   
  82770000  -62.180117      1075.3612      1013.1811      293.06368     -1.9260293      0.16126987   
  82780000  -23.388421      1124.9843      1101.5959      306.58727      3.161666       0.16126987   
  82790000  -71.975127      1094.2082      1022.2331      298.19999     -3.2222399      0.16126987   
  82800000  -66.381311      1075.2799      1008.8986      293.04154     -1.3478128      0.16126987   
  82810000  -44.779614      1143.1021      1098.3224      311.52482      7.5468171      0.16126987   
  82820000  -41.284388      1098.7483      1057.4639      299.43728     -6.3186632      0.16126987   
  82830000  -49.947844      1048.5645      998.6167       285.7609       5.683742       0.16126987   
  82840000   24.231844      1138.7571      1162.9889      310.3407       3.0145825      0.16126987   
  82850000   1.1355182      1080.8621      1081.9977      294.56283      0.026344058    0.16126987   
  82860000  -60.302426      1114.7848      1054.4823      303.80762     -0.026017759    0.16126987   
  82870000  -8.3586834      1150.1348      1141.7761      313.44143      0.24734067     0.16126987   
  82880000  -1.5087715      1108.5421      1107.0333      302.10634      1.0334945      0.16126987   
  82890000  -1.4972642      1084.5007      1083.0034      295.55443      3.0029714      0.16126987   
  82900000  -17.286728      1040.6083      1023.3216      283.59264     -2.3292593      0.16126987   
  82910000   1.7150431      1078.5094      1080.2245      293.92166      6.5091409      0.16126987   
  82920000  -43.990513      1072.6265      1028.636       292.31842      5.435031       0.16126987   
  82930000  -18.940791      1061.922       1042.9812      289.40117      2.1639891      0.16126987   
  82940000   4.4851368      1157.4447      1161.9298      315.43355      0.28615821     0.16126987   
  82950000  -31.310592      1145.6455      1114.3349      312.21796     -1.7853768      0.16126987   
  82960000  -38.891362      1096.7126      1057.8213      298.8825       9.0426299      0.16126987   
  82970000  -17.673731      1141.2617      1123.588       311.02328     -1.290241       0.16126987   
  82980000   11.280955      1051.7448      1063.0258      286.62761      0.46005888     0.16126987   
  82990000  -52.527081      1103.0936      1050.5665      300.62148     -4.525662       0.16126987   
  83000000  -29.815736      1078.8465      1049.0307      294.01351      1.315584       0.16126987   
  83010000  -15.634322      1083.0318      1067.3975      295.15412     -2.1882606      0.16126987   
  83020000   10.382622      1109.3611      1119.7438      302.32955      1.3283181      0.16126987   
  83030000  -11.504459      1098.6727      1087.1683      299.41668      1.2329081      0.16126987   
  83040000  -33.465196      1102.5875      1069.1223      300.48356      8.7578639      0.16126987   
  83050000  -37.712661      1113.451       1075.7384      303.44415      3.3253719      0.16126987   
  83060000  -53.459242      1085.4225      1031.9632      295.80564      3.2431082      0.16126987   
  83070000  -47.102501      1078.76        1031.6575      293.98994     -1.2146463      0.16126987   
  83080000  -53.687111      1107.529       1053.8418      301.83023      0.72708669     0.16126987   
  83090000  -48.632285      1103.4048      1054.7726      300.7063      -1.1546759      0.16126987   
  83100000  -56.053949      1119.3287      1063.2747      305.04596      7.1201715      0.16126987   
  83110000  -121.2913       1109.8263      988.535        302.45632     -6.5815137      0.16126987   
  83120000  -149.54399      1079.8902      930.34624      294.29796      2.2790418      0.16126987   
  83130000  -109.18146      1115.062       1005.8806      303.88319     -6.0587714      0.16126987   
  83140000  -46.14917       1030.9872      984.83804      280.97063     -4.9087674      0.16126987   
  83150000  -102.59051      1076.4711      973.88055      293.36615      4.6991114      0.16126987   
  83160000  -58.632351      1131.3474      1072.7151      308.32138      8.0879284      0.16126987   
  83170000  -37.162703      1074.7111      1037.5484      292.88653      1.3354271      0.16126987   
  83180000  -82.852818      1073.9703      991.11753      292.68464     -4.2725082      0.16126987   
  83190000  -146.7355       1083.1755      936.44         295.19329      0.55916955     0.16126987   
  83200000  -95.511982      1093.8333      998.32132      298.09781      2.688782       0.16126987   
  83210000  -119.8548       1098.9664      979.11162      299.49672     -14.464092      0.16126987   
  83220000  -57.427166      1099.2589      1041.8317      299.57642     -0.74039705     0.16126987   
  83230000  -104.06305      1083.8642      979.80118      295.38098     -4.3811466      0.16126987   
  83240000  -165.6434       1099.0393      933.39592      299.51659      3.6679989      0.16126987   
  83250000  -113.93914      1063.6801      949.74101      289.8803       7.1976872      0.16126987   
  83260000  -110.82633      1076.4306      965.60427      293.35513      0.012902227    0.16126987   
  83270000  -81.05462       1107.1859      1026.1312      301.73673     -1.4476295      0.16126987   
  83280000  -49.422613      1122.0638      1072.6412      305.79136      1.3505932      0.16126987   
  83290000  -102.00196      1082.0528      980.05081      294.88731      0.6239159      0.16126987   
  83300000  -104.94423      1090.7619      985.81764      297.26077     -1.104898       0.16126987   
  83310000  -85.304621      1115.4703      1030.1657      303.99446      3.2003528      0.16126987   
  83320000  -92.030084      1061.7373      969.70723      289.35082     -0.38525632     0.16126987   
  83330000  -139.21932      1097.9689      958.74956      299.22486      6.0776842      0.16126987   
  83340000  -94.48681       1109.5182      1015.0314      302.37236     -7.3967894      0.16126987   
  83350000  -124.47596      1109.506       985.03001      302.36902      1.7142425      0.16126987   
  83360000  -94.478874      1078.9303      984.45144      294.03636     -4.3850688      0.16126987   
  83370000  -137.09852      1095.6803      958.58177      298.60116      10.006411      0.16126987   
  83380000  -158.00647      1085.2879      927.28139      295.76896     -5.9206408      0.16126987   
  83390000  -226.40251      1081.4604      855.05784      294.72586      2.0054604      0.16126987   
  83400000  -138.87844      1043.2468      904.36833      284.31168     -6.5367294      0.16126987   
  83410000  -150.68098      1085.6375      934.95655      295.86425      1.9974318      0.16126987   
  83420000  -72.611895      1101.758       1029.1461      300.25748      9.05255        0.16126987   
  83430000  -70.024822      1097.031       1027.0062      298.96927     -0.23792309     0.16126987   
  83440000  -73.11218       1101.7647      1028.6525      300.25932      2.5078624      0.16126987   
  83450000  -181.50988      1120.3857      938.87585      305.33403      3.4510815      0.16126987   
  83460000  -129.21409      1097.8596      968.6455       299.19508     -4.8946535      0.16126987   
  83470000  -81.473946      1126.6569      1045.183       307.04309     -5.3029595      0.16126987   
  83480000  -98.48831       1114.1651      1015.6768      303.63875      2.0602793      0.16126987   
  83490000  -107.37819      1121.9567      1014.5785      305.76216     -2.9981783      0.16126987   
  83500000  -141.82172      1074.0867      932.26494      292.71634      0.18305322     0.16126987   
  83510000  -106.36542      1082.0452      975.67981      294.88526      2.5029745      0.16126987   
  83520000  -98.545918      1114.0329      1015.487       303.60273      5.6811313      0.16126987   
  83530000  -103.05342      1096.6292      993.57583      298.85978      4.633744       0.16126987   
  83540000  -126.09958      1107.0942      980.99461      301.71174     -4.4936635      0.16126987   
  83550000  -84.226696      1076.9133      992.68663      293.48668      2.9283528      0.16126987   
  83560000  -105.82508      1082.9515      977.12639      295.13223      5.3853565      0.16126987   
  83570000  -134.13847      1100.7732      966.63471      299.98911      1.3672475      0.16126987   
  83580000  -145.78477      1097.1472      951.3624       299.00093      8.4389048      0.16126987   
  83590000  -115.07244      1120.3311      1005.2587      305.31916     -1.6190024      0.16126987   
  83600000  -87.683647      1090.4644      1002.7807      297.17969      0.52203171     0.16126987   
  83610000  -68.33267       1126.27        1057.9374      306.93766      2.6940557      0.16126987   
  83620000  -37.59498       1128.3349      1090.7399      307.50039      6.9525502      0.16126987   
  83630000  -91.984675      1115.2698      1023.2851      303.93981      3.8743975      0.16126987   
  83640000  -151.84865      1066.2031      914.35442      290.56786     -3.7297611      0.16126987   
  83650000  -135.64433      1101.6406      965.99624      300.22549      6.0472702      0.16126987   
  83660000  -135.66359      1107.7943      972.13071      301.90254     -0.68914145     0.16126987   
  83670000  -125.77405      1076.3166      950.54251      293.32404     -1.091303       0.16126987   
  83680000  -85.149001      1074.9526      989.80356      292.95232      2.7545547      0.16126987   
  83690000  -136.71494      1105.0593      968.34437      301.15719      4.1774195      0.16126987   
  83700000  -113.40106      1125.7457      1012.3446      306.79475     -0.51176003     0.16126987   
  83710000  -176.1449       1088.9363      912.79135      296.76324      4.1944959      0.16126987   
  83720000  -104.94044      1117.0328      1012.0924      304.42028      2.2390702      0.16126987   
  83730000  -61.730297      1106.4888      1044.7585      301.54675      5.4637835      0.16126987   
  83740000  -95.588336      1111.6013      1016.013       302.94006     -2.4918701      0.16126987   
  83750000  -97.230126      1140.9501      1043.72        310.93836      2.3695418      0.16126987   
  83760000  -110.33587      1115.0332      1004.6973      303.87533     -3.6571986      0.16126987   
  83770000  -119.34077      1068.4179      949.07709      291.17145     -2.8259455      0.16126987   
  83780000  -98.612205      1091.1295      992.51725      297.36094      1.9067156      0.16126987   
  83790000  -42.717652      1082.9948      1040.2771      295.14404      5.4731926      0.16126987   
  83800000  -33.960682      1103.584       1069.6233      300.75512      0.86921327     0.16126987   
  83810000  -73.701693      1118.0512      1044.3495      304.6978       9.1128771      0.16126987   
  83820000  -43.388949      1096.388       1052.999       298.79402      6.3456475      0.16126987   
  83830000  -144.99895      1018.9288      873.92989      277.68441     -2.8193532      0.16126987   
  83840000  -115.81561      1090.1737      974.35806      297.10047      5.1300249      0.16126987   
  83850000  -137.86488      1072.2935      934.42862      292.22766     -1.7942588      0.16126987   
  83860000  -107.63646      1082.8083      975.17183      295.09321      5.5025614      0.16126987   
  83870000  -131.57995      1113.4869      981.9069       303.45391      7.6198466      0.16126987   
  83880000  -119.22013      1059.3769      940.15679      288.70756      6.9745435      0.16126987   
