
# ===============================
# FORCE FIELD (same as original)
# ===============================
bond_style harmonic
bond_coeff 1 7.5 5.9

angle_style harmonic
angle_coeff 1 5.0 150.0

pair_style hybrid/overlay lj/cut 10.0 base/rna 18.0
pair_modify shift yes
pair_coeff * * lj/cut 2.0 8.9089871814

pair_coeff 1 1 base/rna 0.00000 3.0 13.8 1.5 0.5 1.8326 0.9425 1.8326 1.1345
pair_coeff 1 2 base/rna 0.00000 3.0 13.8 1.5 0.5 1.8326 0.9425 1.8326 1.1345
pair_coeff 1 3 base/rna 0.00000 3.0 13.8 1.5 0.5 1.8326 0.9425 1.8326 1.1345
pair_coeff 1 4 base/rna 3.33333 3.0 13.8 1.5 0.5 1.8326 0.9425 1.8326 1.1345
pair_coeff 2 2 base/rna 0.00000 3.0 13.8 1.5 0.5 1.8326 0.9425 1.8326 1.1345
pair_coeff 2 3 base/rna 5.00000 3.0 13.8 1.5 0.5 1.8326 0.9425 1.8326 1.1345
pair_coeff 2 4 base/rna 0.00000 3.0 13.8 1.5 0.5 1.8326 0.9425 1.8326 1.1345
pair_coeff 3 3 base/rna 0.00000 3.0 13.8 1.5 0.5 1.8326 0.9425 1.8326 1.1345
pair_coeff 3 4 base/rna 3.33333 3.0 13.8 1.5 0.5 1.8326 0.9425 1.8326 1.1345
pair_coeff 4 4 base/rna 0.00000 3.0 13.8 1.5 0.5 1.8326 0.9425 1.8326 1.1345

special_bonds lj 0.0 0.0 1.0
Finding 1-2 1-3 1-4 neighbors ...
  special bond factors lj:    0        0        1       
  special bond factors coul:  0        0        0       
     2 = max # of 1-2 neighbors
     2 = max # of 1-3 neighbors
     4 = max # of 1-4 neighbors
     6 = max # of special neighbors
  special bonds CPU = 0.000 seconds
neighbor 15.0 bin
neigh_modify every 10 delay 0
comm_style tiled
timestep 10

# ===============================
# 1. MINIMIZATION
# ===============================
minimize 1.0e-4 1.0e-6 1000 10000

CITE-CITE-CITE-CITE-CITE-CITE-CITE-CITE-CITE-CITE-CITE-CITE-CITE

Your simulation uses code contributions which should be cited:

- Type Label Framework: https://doi.org/10.1021/acs.jpcb.3c08419

@Article{Gissinger24,
 author = {Jacob R. Gissinger, Ilia Nikiforov, Yaser Afshar, Brendon Waters, Moon-ki Choi, Daniel S. Karls, Alexander Stukowski, Wonpil Im, Hendrik Heinz, Axel Kohlmeyer, and Ellad B. Tadmor},
 title = {Type Label Framework for Bonded Force Fields in LAMMPS},
 journal = {J. Phys. Chem. B},
 year =    2024,
 volume =  128,
 number =  13,
 pages =   {3282–-3297}
}

CITE-CITE-CITE-CITE-CITE-CITE-CITE-CITE-CITE-CITE-CITE-CITE-CITE

Switching to 'neigh_modify every 1 delay 0 check yes' setting during minimization
Generated 0 of 6 mixed pair_coeff terms from geometric mixing rule
Neighbor list info ...
  update: every = 1 steps, delay = 0 steps, check = yes
  max neighbors/atom: 2000, page size: 100000
  master list distance cutoff = 33
  ghost atom cutoff = 33
  binsize = 16.5, bins = 10 10 10
  2 neighbor lists, perpetual/occasional/extra = 2 0 0
  (1) pair lj/cut, perpetual, trim from (2)
      attributes: half, newton on, cut 25
      pair build: trim
      stencil: none
      bin: none
  (2) pair base/rna, perpetual
      attributes: half, newton on
      pair build: half/bin/newton
      stencil: half/bin/3d
      bin: standard
Per MPI rank memory allocation (min/avg/max) = 8.423 | 8.423 | 8.424 Mbytes
   Step          Temp          E_pair         E_mol          TotEng         Press     
         0   0              2.6193601e+11  2470.137       2.6193601e+11  1.7539663e+10
      1000   0             -540.20262      22.931767     -517.27085     -0.93853947   
Loop time of 0.697862 on 4 procs for 1000 steps with 1032 atoms

98.3% CPU use with 4 MPI tasks x 1 OpenMP threads

Minimization stats:
  Stopping criterion = max iterations
  Energy initial, next-to-last, final = 
      261936008850.113  -517.065029978065   -517.27084858442
  Force two-norm initial, final = 3.3802167e+12 3.1120795
  Force max component initial, final = 1.9090492e+12 0.94444711
  Final line search alpha, max atom move = 0.045557498 0.043026647
  Iterations, force evaluations = 1000 1467

MPI task timing breakdown:
Section |  min time  |  avg time  |  max time  |%varavg| %total
---------------------------------------------------------------
Pair    | 0.41203    | 0.49804    | 0.58724    |   8.8 | 71.37
Bond    | 0.02383    | 0.029576   | 0.034037   |   2.1 |  4.24
Neigh   | 0.0029003  | 0.0029369  | 0.0029759  |   0.1 |  0.42
Comm    | 0.051945   | 0.1429     | 0.23182    |  16.8 | 20.48
Output  | 3.1473e-05 | 3.1657e-05 | 3.2154e-05 |   0.0 |  0.00
Modify  | 0          | 0          | 0          |   0.0 |  0.00
Other   |            | 0.02437    |            |       |  3.49

Nlocal:            258 ave         290 max         213 min
Histogram: 1 0 0 0 0 1 0 1 0 1
Nghost:         817.75 ave         845 max         802 min
Histogram: 1 1 0 1 0 0 0 0 0 1
Neighs:         2840.5 ave        3490 max        2290 min
Histogram: 1 0 1 0 0 0 1 0 0 1

Total # of neighbors = 11362
Ave neighs/atom = 11.00969
Ave special neighs/atom = 4.8255814
Neighbor list builds = 5
Dangerous builds = 0
reset_timestep 0

# ===============================
# 2. OUTPUTS
# ===============================
dump d1 all custom 50000 outputs/${tag}.lammpstrj id mol type q xu yu zu
dump d1 all custom 50000 outputs/100ASO_mismatch_U5C_unmodified.lammpstrj id mol type q xu yu zu
dump_modify d1 sort id

thermo_style custom step pe ke etotal temp press density
thermo 10000
thermo_modify flush yes

variable vpe equal pe
variable vke equal ke
variable vT  equal temp
variable vE  equal etotal
variable vRg equal gyration(all)

fix favg all ave/time 10000 10 100000 v_vpe v_vke v_vT v_vE v_vRg     file outputs/thermo_${tag}_averaged.dat
fix favg all ave/time 10000 10 100000 v_vpe v_vke v_vT v_vE v_vRg     file outputs/thermo_100ASO_mismatch_U5C_unmodified_averaged.dat

# ===============================
# 3. EQUILIBRATION (NVT)
# ===============================
velocity all create ${T_target} 86544 rot yes dist gaussian
velocity all create 300 86544 rot yes dist gaussian

# Langevin thermostat for equilibration
fix fxlang all langevin ${T_target} ${T_target} 1000.0 43425
fix fxlang all langevin 300 ${T_target} 1000.0 43425
fix fxlang all langevin 300 300 1000.0 43425
fix fxnve  all nve
fix recenter all momentum 1000 linear 1 1 1

# Equilibration run
run 5000000
Generated 0 of 6 mixed pair_coeff terms from geometric mixing rule
Per MPI rank memory allocation (min/avg/max) = 7.314 | 7.314 | 7.314 Mbytes
   Step         PotEng         KinEng         TotEng          Temp          Press         Density    
         0  -517.27085      921.96455      404.6937       300            9.3507912      0.13453746   
     10000   264.72718      906.64515      1171.3723      295.01519      4.234151       0.13453746   
     20000   261.43511      866.33562      1127.7707      281.89878     -2.3565783      0.13453746   
     30000   223.52062      937.12094      1160.6416      304.93177     -2.4777111      0.13453746   
     40000   179.22484      936.8692       1116.094       304.84986     -0.054188672    0.13453746   
     50000   103.29896      863.14873      966.44769      280.8618      -4.6202282      0.13453746   
     60000   15.777974      936.95656      952.73453      304.87828      2.954541       0.13453746   
     70000   11.549215      911.25899      922.80821      296.5165      -3.1076956      0.13453746   
     80000   6.5477586      937.55977      944.10753      305.07456     -1.5433035      0.13453746   
     90000   2.1275494      964.26838      966.39593      313.76533      2.4588582      0.13453746   
    100000  -88.044839      933.56958      845.52474      303.77619      7.8543465      0.13453746   
    110000  -28.204241      933.94196      905.73772      303.89735     -0.33806993     0.13453746   
    120000  -56.578262      923.57186      866.9936       300.52301     -0.84560822     0.13453746   
    130000  -104.30684      915.2302       810.92337      297.8087      -1.7814046      0.13453746   
    140000  -145.00525      896.14319      751.13794      291.59793      6.8603077      0.13453746   
    150000  -159.65254      968.6559       809.00336      315.193        6.6633719      0.13453746   
    160000  -152.5531       929.29999      776.7469       302.3869      -1.1524233      0.13453746   
    170000  -129.02771      909.18038      780.15267      295.84013     -0.39585552     0.13453746   
    180000  -144.93575      920.94534      776.00959      299.66836      0.74366751     0.13453746   
    190000  -145.74561      909.99797      764.25236      296.10617      6.3328976      0.13453746   
    200000  -205.04887      934.00742      728.95854      303.91865      5.5467364      0.13453746   
    210000  -196.07428      908.25703      712.18275      295.53968      4.3482216      0.13453746   
    220000  -155.0194       931.17895      776.15955      302.99829      4.3177376      0.13453746   
    230000  -306.60139      900.6601       594.0587       293.0677       2.9440317      0.13453746   
    240000  -262.3758       930.30995      667.93415      302.71553      0.79056211     0.13453746   
    250000  -225.87429      881.57976      655.70547      286.85911     -2.2784531      0.13453746   
    260000  -214.34224      876.6506       662.30836      285.2552       0.59809296     0.13453746   
    270000  -274.30283      909.20663      634.9038       295.84868     -0.99841493     0.13453746   
    280000  -261.14992      923.40018      662.25026      300.46714      12.38963       0.13453746   
    290000  -264.03589      915.91957      651.88368      298.03301     -7.7950193      0.13453746   
    300000  -229.95361      920.7332       690.77959      299.59933      3.3151921      0.13453746   
    310000  -206.34528      941.23722      734.89194      306.27118     -0.72392536     0.13453746   
    320000  -210.57676      931.01096      720.4342       302.94363     -5.9592291      0.13453746   
    330000  -290.49422      913.23261      622.73839      297.1587       0.2201591      0.13453746   
    340000  -194.37245      961.02551      766.65306      312.71013      3.6707143      0.13453746   
    350000  -227.16267      992.79589      765.63322      323.04796      3.4869152      0.13453746   
    360000  -258.648        929.00155      670.35355      302.28979      7.1031259      0.13453746   
    370000  -227.29998      929.31572      702.01573      302.39201      8.8711793      0.13453746   
    380000  -281.27204      947.96116      666.68911      308.45909      1.4344635      0.13453746   
    390000  -248.58307      921.25593      672.67286      299.76942      6.5500848      0.13453746   
    400000  -211.70066      876.80334      665.10267      285.3049       7.6754938      0.13453746   
    410000  -305.49789      914.58375      609.08586      297.59835     -1.7194689      0.13453746   
    420000  -253.80883      907.28234      653.47351      295.22253     -3.0239047      0.13453746   
    430000  -347.43232      912.80896      565.37663      297.02084     -0.19966958     0.13453746   
    440000  -338.15677      949.33056      611.17379      308.90469      5.8932631      0.13453746   
    450000  -303.50882      911.31436      607.80553      296.53451      1.7853954      0.13453746   
    460000  -312.22366      935.5793       623.35564      304.43013     -7.2497671      0.13453746   
    470000  -308.85993      939.40872      630.54879      305.6762       8.4339774      0.13453746   
    480000  -287.02829      943.53682      656.50854      307.01945      2.6229844      0.13453746   
    490000  -191.03994      912.39219      721.35225      296.88523     -7.1422734      0.13453746   
    500000  -300.56563      910.03246      609.46683      296.11739      0.02975937     0.13453746   
    510000  -336.12723      915.85708      579.72985      298.01268      12.75357       0.13453746   
    520000  -297.37989      910.66374      613.28385      296.32281     -1.9008478      0.13453746   
    530000  -324.60355      907.94793      583.34438      295.4391       9.8661075      0.13453746   
    540000  -263.83237      908.25648      644.42411      295.5395       1.7901314      0.13453746   
    550000  -257.60956      935.94614      678.33659      304.5495      -9.3299891      0.13453746   
    560000  -306.2237       954.28325      648.05955      310.51625     -4.7362946      0.13453746   
    570000  -297.01116      901.34023      604.32907      293.28901      0.57596063     0.13453746   
    580000  -337.54753      952.096        614.54847      309.80454      3.6429144      0.13453746   
    590000  -270.06869      937.7413       667.67261      305.13363      4.0616672      0.13453746   
    600000  -282.03674      938.57453      656.53779      305.40476     -2.9271644      0.13453746   
    610000  -247.59774      922.75947      675.16174      300.25866      9.272934       0.13453746   
    620000  -373.52799      864.32633      490.79834      281.24498     -3.0016631      0.13453746   
    630000  -359.34392      902.0754       542.73148      293.52823      1.2275043      0.13453746   
    640000  -299.77802      931.81139      632.03337      303.20409     -0.62249259     0.13453746   
    650000  -333.45533      926.65011      593.19478      301.52465     -2.218252       0.13453746   
    660000  -285.36428      936.867        651.50272      304.84914     -10.466475      0.13453746   
    670000  -278.83835      886.99528      608.15693      288.62128      3.8716013      0.13453746   
    680000  -287.67922      959.58362      671.9044       312.24095      8.1238864      0.13453746   
    690000  -279.16366      902.35789      623.19424      293.62015     -5.6324189      0.13453746   
    700000  -304.75743      953.43147      648.67404      310.23909     -0.19354009     0.13453746   
    710000  -389.33749      902.65427      513.31678      293.71659     -1.0057795      0.13453746   
    720000  -284.51376      918.71704      634.20329      298.94329      2.1558738      0.13453746   
    730000  -281.42305      918.25006      636.82701      298.79134     -3.8010271      0.13453746   
    740000  -256.75359      918.42887      661.67528      298.84952      2.5722862      0.13453746   
    750000  -328.61361      924.39737      595.78376      300.79162      7.2218727      0.13453746   
    760000  -322.13363      908.95855      586.82492      295.76795      5.0650651      0.13453746   
    770000  -293.45264      924.00706      630.55443      300.66462     -8.1662016      0.13453746   
    780000  -326.94822      872.24682      545.2986       283.82224      0.74559522     0.13453746   
    790000  -230.65161      933.39749      702.74589      303.72019     -8.9788551      0.13453746   
    800000  -410.78252      937.33039      526.54786      304.99992     -1.8847941      0.13453746   
    810000  -361.95247      927.07832      565.12584      301.66398      4.0915925      0.13453746   
    820000  -312.6967       909.48205      596.78535      295.93829     -1.6478093      0.13453746   
    830000  -352.59192      917.67522      565.0833       298.60429     -2.763006       0.13453746   
    840000  -352.04685      910.14717      558.10031      296.15472      0.50852003     0.13453746   
    850000  -352.03901      861.60563      509.56662      280.35968     -1.0159919      0.13453746   
    860000  -343.8877       912.48897      568.60127      296.91672      2.5393105      0.13453746   
    870000  -358.97162      909.36354      550.39191      295.89973      8.698324       0.13453746   
    880000  -305.32411      954.86701      649.5429       310.7062       6.604254       0.13453746   
    890000  -336.8444       921.80033      584.95593      299.94656      3.1574057      0.13453746   
    900000  -295.8577       938.00443      642.14673      305.21925     -5.9258426      0.13453746   
    910000  -291.51495      911.09282      619.57787      296.46243      5.564738       0.13453746   
    920000  -344.61613      918.37584      573.75972      298.83226     -0.22446195     0.13453746   
    930000  -350.54614      938.55214      588.006        305.39747     -3.1581475      0.13453746   
    940000  -320.43201      898.56355      578.13154      292.3855      -4.2404636      0.13453746   
    950000  -336.91181      925.74534      588.83353      301.23024     -1.4101038      0.13453746   
    960000  -339.47967      956.52284      617.04317      311.24499      1.4129491      0.13453746   
    970000  -335.10731      914.76848      579.66117      297.65846     -0.17490112     0.13453746   
    980000  -387.07792      880.6487       493.57078      286.55615      3.3641005      0.13453746   
    990000  -303.84564      921.35058      617.50494      299.80022     -2.7529757      0.13453746   
   1000000  -324.37736      914.80304      590.42568      297.6697      -1.9321184      0.13453746   
   1010000  -349.7595       905.05197      555.29247      294.49678     -5.9954983      0.13453746   
   1020000  -349.51381      908.97348      559.45968      295.77281     -3.0195619      0.13453746   
   1030000  -346.31214      912.41286      566.10072      296.89196      4.0483671      0.13453746   
   1040000  -395.29797      908.53756      513.2396       295.63096     -3.5450238      0.13453746   
   1050000  -400.37004      928.89958      528.52954      302.2566      -0.40472922     0.13453746   
   1060000  -356.28303      901.56975      545.28672      293.36369     -1.361737       0.13453746   
   1070000  -405.0907       901.35144      496.26075      293.29266      2.8743803      0.13453746   
   1080000  -373.79056      892.19296      518.4024       290.31256     -1.2494249      0.13453746   
   1090000  -356.65315      887.08343      530.43028      288.64996     -3.7694753      0.13453746   
   1100000  -411.09145      919.94863      508.85718      299.34404     -4.2937478      0.13453746   
   1110000  -383.61478      937.46492      553.85014      305.0437       0.19394913     0.13453746   
   1120000  -361.92284      942.19402      580.27118      306.58251      2.4732259      0.13453746   
   1130000  -367.37994      922.72009      555.34015      300.24585      3.342797       0.13453746   
   1140000  -403.4193       901.72271      498.30342      293.41347     -2.9360362      0.13453746   
   1150000  -369.57692      916.76885      547.19193      298.30936      6.8505611      0.13453746   
   1160000  -368.09732      942.37103      574.27372      306.64011      0.30369256     0.13453746   
   1170000  -398.14195      919.10454      520.96259      299.06938      9.7237445      0.13453746   
   1180000  -396.76487      924.49635      527.73149      300.82383      2.1692207      0.13453746   
   1190000  -332.37511      930.92357      598.54846      302.91519      7.3461153      0.13453746   
   1200000  -332.93837      930.52932      597.59095      302.78691      4.7034916      0.13453746   
   1210000  -349.49931      967.81332      618.31401      314.91883      1.2830639      0.13453746   
   1220000  -309.13953      905.55136      596.41183      294.65928     -3.7317008      0.13453746   
   1230000  -387.29263      919.45593      532.16329      299.18371     -1.4751722      0.13453746   
   1240000  -374.63961      891.62423      516.98462      290.1275       0.85635974     0.13453746   
   1250000  -341.39805      922.33029      580.93224      300.11901      5.8586918      0.13453746   
   1260000  -406.81802      909.02069      502.20267      295.78817      3.6430482      0.13453746   
   1270000  -359.38131      906.26442      546.88311      294.8913      -2.2311407      0.13453746   
   1280000  -313.96152      881.59211      567.63059      286.86313      1.0974636      0.13453746   
   1290000  -339.34054      936.69445      597.35392      304.793       -1.1928519      0.13453746   
   1300000  -350.18915      941.93987      591.75072      306.49981     -0.30532965     0.13453746   
   1310000  -416.73971      882.98415      466.24444      287.31608      0.68919539     0.13453746   
   1320000  -325.95923      896.77209      570.81286      291.80257     -0.05865783     0.13453746   
   1330000  -343.91243      925.83192      581.91949      301.25841     -10.105616      0.13453746   
   1340000  -420.26736      901.08992      480.82256      293.20756      13.477606      0.13453746   
   1350000  -388.46071      902.29415      513.83344      293.59941      5.4883995      0.13453746   
   1360000  -365.91272      850.6147       484.70197      276.78332      0.14967074     0.13453746   
   1370000  -408.12077      928.59313      520.47236      302.15689      6.1634611      0.13453746   
   1380000  -405.968        895.21872      489.25072      291.29712     -1.3163229      0.13453746   
   1390000  -372.1318       980.8651       608.7333       319.16578     -3.2574308      0.13453746   
   1400000  -390.62077      939.01928      548.39851      305.54947     -1.5931075      0.13453746   
   1410000  -358.51383      903.95106      545.43723      294.13855     -5.6536495      0.13453746   
   1420000  -401.60545      914.14402      512.53857      297.45526     -6.8226121      0.13453746   
   1430000  -400.52162      916.1612       515.63958      298.11164      10.987098      0.13453746   
   1440000  -322.59837      916.50258      593.90422      298.22272     -2.9260128      0.13453746   
   1450000  -315.97333      964.45532      648.48199      313.82616      3.0048464      0.13453746   
   1460000  -395.79757      900.62564      504.82808      293.05649      3.0007027      0.13453746   
   1470000  -380.73269      937.40719      556.6745       305.02491     -3.4081121      0.13453746   
   1480000  -343.7133       920.41075      576.69745      299.49441     -0.16079537     0.13453746   
   1490000  -326.99319      864.18899      537.1958       281.20029      6.7224207      0.13453746   
   1500000  -338.57513      938.79442      600.21929      305.47631     -3.4999168      0.13453746   
   1510000  -303.44917      932.3532       628.90403      303.38038     -3.8939683      0.13453746   
   1520000  -338.1527       927.04569      588.89299      301.65336      0.99268524     0.13453746   
   1530000  -373.91592      903.29348      529.37757      293.92458      1.8053915      0.13453746   
   1540000  -356.73843      922.81399      566.07557      300.2764      -1.3885002      0.13453746   
   1550000  -378.95866      928.46799      549.50934      302.11617      1.7628884      0.13453746   
   1560000  -365.6793       896.06999      530.3907       291.57412     -1.0708402      0.13453746   
   1570000  -394.64639      952.42377      557.77738      309.91119      1.8560756      0.13453746   
   1580000  -361.17147      961.68543      600.51396      312.92486      5.7733286      0.13453746   
   1590000  -392.84146      922.03592      529.19445      300.02322      3.0729179      0.13453746   
   1600000  -355.86869      929.01247      573.14378      302.29334     -3.9053075      0.13453746   
   1610000  -428.23317      982.48854      554.25537      319.69403      5.3565485      0.13453746   
   1620000  -366.47558      931.89953      565.42395      303.23276      2.1003834      0.13453746   
   1630000  -364.68095      865.97108      501.29014      281.78017     -3.2542323      0.13453746   
   1640000  -393.6439       904.44718      510.80328      294.29999     -3.4470976      0.13453746   
   1650000  -432.65344      931.03294      498.3795       302.95078     -4.3372314      0.13453746   
   1660000  -402.0612       913.75395      511.69276      297.32834      3.766683       0.13453746   
   1670000  -428.5262       923.57839      495.0522       300.52513      4.6078587      0.13453746   
   1680000  -435.2525       960.72076      525.46826      312.61097      2.0868823      0.13453746   
   1690000  -376.91171      942.1983       565.28659      306.5839       2.4740407      0.13453746   
   1700000  -372.24536      892.91202      520.66665      290.54654     -5.7434365      0.13453746   
   1710000  -386.34184      965.45693      579.11508      314.15208     -0.079094088    0.13453746   
   1720000  -362.96478      915.5361       552.57132      297.90823     -2.3713809      0.13453746   
   1730000  -405.17929      911.60152      506.42223      296.62795      0.93813222     0.13453746   
   1740000  -402.51756      881.92449      479.40694      286.97128      1.5457099      0.13453746   
   1750000  -380.25606      943.34256      563.0865       306.95624      7.7144656      0.13453746   
   1760000  -341.30927      954.34163      613.03236      310.53525      9.3205825      0.13453746   
   1770000  -389.37102      928.76047      539.38945      302.21134      4.6818797      0.13453746   
   1780000  -382.9007       948.5229       565.62219      308.64188     -4.2585492      0.13453746   
   1790000  -347.37262      924.36853      576.99591      300.78224      1.2667828      0.13453746   
   1800000  -399.36696      908.87254      509.50558      295.73997     -6.4670909      0.13453746   
   1810000  -398.7037       963.19588      564.49217      313.41635      1.4117403      0.13453746   
   1820000  -397.72833      889.80605      492.07772      289.53588     -0.17948929     0.13453746   
   1830000  -420.54591      914.27109      493.72519      297.49661     -7.7116706      0.13453746   
   1840000  -410.12398      902.81635      492.69236      293.76933     -2.8336054      0.13453746   
   1850000  -417.87619      959.84131      541.96512      312.3248      -0.4231812      0.13453746   
   1860000  -384.15452      865.38317      481.22864      281.58886     -5.7477869      0.13453746   
   1870000  -453.2845       917.52067      464.23617      298.554       -5.4460263      0.13453746   
   1880000  -439.80833      908.78739      468.97906      295.71226      3.5420501      0.13453746   
   1890000  -483.73187      939.30519      455.57332      305.64251     -5.3704801      0.13453746   
   1900000  -425.19883      928.55625      503.35742      302.14489      2.420799       0.13453746   
   1910000  -395.86348      911.17561      515.31213      296.48936     -2.333353       0.13453746   
   1920000  -427.84331      959.59475      531.75144      312.24457     -2.8402711      0.13453746   
   1930000  -378.14706      905.78174      527.63468      294.73424     -2.5268145      0.13453746   
   1940000  -384.53406      940.18439      555.65033      305.92859      1.7173965      0.13453746   
   1950000  -435.1172       974.72783      539.61063      317.16876     -0.74031791     0.13453746   
   1960000  -382.77607      926.81758      544.04151      301.57914     -8.3108747      0.13453746   
   1970000  -422.04421      931.09307      509.04886      302.97035      5.5274622      0.13453746   
   1980000  -316.82341      967.42761      650.6042       314.79332     -6.841739       0.13453746   
   1990000  -367.9843       933.66336      565.67906      303.8067      -2.4958138      0.13453746   
   2000000  -346.61136      902.2203       555.60894      293.57538      7.5280638      0.13453746   
   2010000  -410.0193       911.63922      501.61993      296.64022     -7.4101902      0.13453746   
   2020000  -369.98607      947.16859      577.18252      308.2012      -0.90173214     0.13453746   
   2030000  -383.28774      912.32624      529.0385       296.86377      1.6015292      0.13453746   
   2040000  -317.27801      884.01878      566.74077      287.65275      3.8723415      0.13453746   
   2050000  -337.95462      896.86424      558.90962      291.83256     -2.3397484      0.13453746   
   2060000  -331.69071      934.32602      602.63531      304.02233      3.495106       0.13453746   
   2070000  -378.1743       913.62692      535.45261      297.287       -0.060759154    0.13453746   
   2080000  -309.19222      951.04169      641.84947      309.46147     -4.7654096      0.13453746   
   2090000  -351.875        962.21601      610.341        313.09751      0.45779933     0.13453746   
   2100000  -334.41308      941.66608      607.253        306.41072     -4.4508641      0.13453746   
   2110000  -382.00316      914.62151      532.61835      297.61063     -2.4858484      0.13453746   
   2120000  -328.99527      968.71485      639.71958      315.21218     -11.732535      0.13453746   
   2130000  -305.14862      902.86655      597.71792      293.78566      2.7192176      0.13453746   
   2140000  -356.39104      939.15485      582.76381      305.59359     -8.1828213      0.13453746   
   2150000  -387.34147      863.40186      476.06039      280.94416      2.3152987      0.13453746   
   2160000  -379.9627       926.24136      546.27866      301.39164      8.7148899      0.13453746   
   2170000  -401.71547      949.37718      547.66171      308.91985      0.36289329     0.13453746   
   2180000  -446.20621      926.94257      480.73636      301.61981      2.6798333      0.13453746   
   2190000  -392.54906      904.40221      511.85316      294.28535      1.6936073      0.13453746   
   2200000  -387.30847      933.22817      545.9197       303.66509      3.2635906      0.13453746   
   2210000  -366.68336      937.99293      571.30957      305.21551     -2.3608581      0.13453746   
   2220000  -349.71631      954.62834      604.91203      310.62854      7.0714166      0.13453746   
   2230000  -348.16064      879.63975      531.47911      286.22784      2.3069644      0.13453746   
   2240000  -358.85824      943.25812      584.39988      306.92876      7.0988729      0.13453746   
   2250000  -394.80913      916.73859      521.92946      298.29951     -2.1155228      0.13453746   
   2260000  -381.19279      915.23954      534.04675      297.81173      11.502548      0.13453746   
   2270000  -386.26557      902.72526      516.4597       293.73969      4.4486892      0.13453746   
   2280000  -406.76278      917.27892      510.51614      298.47533      5.5982801      0.13453746   
   2290000  -408.84977      921.92569      513.07592      299.98736      0.19011808     0.13453746   
   2300000  -433.29196      901.2694       467.97744      293.26596     -0.59076129     0.13453746   
   2310000  -373.62245      950.22171      576.59927      309.19466      2.4063702      0.13453746   
   2320000  -362.14763      934.99519      572.84756      304.24007      2.7551268      0.13453746   
   2330000  -372.08202      911.31647      539.23445      296.5352       4.4014867      0.13453746   
   2340000  -410.27727      934.37977      524.1025       304.03982      4.4124406      0.13453746   
   2350000  -391.43305      950.73487      559.30183      309.36164      4.2579586      0.13453746   
   2360000  -362.58185      902.20056      539.61871      293.56895      2.132815       0.13453746   
   2370000  -382.28218      939.25168      556.9695       305.6251       4.774214       0.13453746   
   2380000  -406.48119      954.80763      548.32644      310.68688      1.6710406      0.13453746   
   2390000  -384.25224      966.01369      581.76145      314.33324      2.6194646      0.13453746   
   2400000  -343.48674      978.31904      634.83231      318.33731      1.636943       0.13453746   
   2410000  -337.82244      945.7015       607.87906      307.72382     -5.7819128      0.13453746   
   2420000  -313.47228      924.87172      611.39945      300.94597      4.5569442      0.13453746   
   2430000  -350.75571      920.78892      570.03321      299.61746     -1.9382875      0.13453746   
   2440000  -354.7807       863.02784      508.24714      280.82246      0.50901667     0.13453746   
   2450000  -386.65842      954.69553      568.03711      310.6504      -2.5808787      0.13453746   
   2460000  -381.61262      942.10833      560.49571      306.55463      5.9316167      0.13453746   
   2470000  -354.88141      950.74138      595.85996      309.36375     -10.270628      0.13453746   
   2480000  -370.70454      948.00661      577.30207      308.47388     -5.0254921      0.13453746   
   2490000  -313.23737      954.05816      640.82079      310.44301      5.1407769      0.13453746   
   2500000  -395.91079      928.19476      532.28397      302.02726      5.2269348      0.13453746   
   2510000  -314.84381      928.91123      614.06742      302.2604      -0.24493906     0.13453746   
   2520000  -366.61685      886.15763      519.54078      288.34871      10.957472      0.13453746   
   2530000  -352.01255      928.78071      576.76815      302.21792      10.598784      0.13453746   
   2540000  -347.9788       924.00684      576.02804      300.66455     -8.1541888      0.13453746   
   2550000  -312.87318      893.24046      580.36728      290.65341      4.3813499      0.13453746   
   2560000  -329.72324      933.0125       603.28926      303.59492      3.4862721      0.13453746   
   2570000  -369.87795      904.65468      534.77673      294.36751     -2.0510049      0.13453746   
   2580000  -384.40311      924.16258      539.75948      300.71522      0.44349121     0.13453746   
   2590000  -336.12854      863.87783      527.74929      281.09904      6.3641         0.13453746   
   2600000  -297.00313      915.15724      618.15411      297.78496      2.6816476      0.13453746   
   2610000  -375.79939      938.065        562.26561      305.23896      4.3021473      0.13453746   
   2620000  -372.18922      919.63174      547.44252      299.24092      6.6787632      0.13453746   
   2630000  -339.70853      919.17493      579.4664       299.09228     -0.021042713    0.13453746   
   2640000  -289.45661      910.26271      620.8061       296.19231      1.3187483      0.13453746   
   2650000  -387.21512      930.79086      543.57574      302.87201     -0.13772103     0.13453746   
   2660000  -343.16155      955.99055      612.829        311.07179     -2.847721       0.13453746   
   2670000  -354.03665      933.9641       579.92745      303.90456      8.1989734      0.13453746   
   2680000  -345.77427      896.72523      550.95096      291.78732      4.8185787      0.13453746   
   2690000  -379.15395      962.4208       583.26685      313.16415      5.301042       0.13453746   
   2700000  -377.7546       946.97336      569.21875      308.13767      5.8992478      0.13453746   
   2710000  -310.57332      894.81783      584.24451      291.16667     -0.67652606     0.13453746   
   2720000  -311.93902      924.31958      612.38055      300.76631      8.0195311      0.13453746   
   2730000  -309.60372      932.67392      623.07019      303.48474     -0.79255383     0.13453746   
   2740000  -283.06108      935.52693      652.46585      304.41309     -7.0897728      0.13453746   
   2750000  -421.38783      970.59801      549.21018      315.82495     -4.0172057      0.13453746   
   2760000  -388.57775      910.50477      521.92702      296.27108      0.11311646     0.13453746   
   2770000  -409.26807      921.23375      511.96568      299.7622       6.0962063      0.13453746   
   2780000  -363.25393      931.78089      568.52696      303.19416     -1.0032328      0.13453746   
   2790000  -386.72397      930.92834      544.20438      302.91675     -0.29886955     0.13453746   
   2800000  -419.34384      928.23387      508.89003      302.03999     -4.3079298      0.13453746   
   2810000  -398.0285       958.32011      560.29162      311.82981      7.8905462      0.13453746   
   2820000  -406.21278      943.19745      536.98467      306.90902      4.3438919      0.13453746   
   2830000  -407.64345      924.95775      517.3143       300.97396     -2.2786083      0.13453746   
   2840000  -406.96532      922.00797      515.04265      300.01413     -2.1905681      0.13453746   
   2850000  -408.91868      906.3023       497.38362      294.90363     -1.6634058      0.13453746   
   2860000  -401.72496      934.13904      532.41407      303.96148      8.5792364      0.13453746   
   2870000  -401.34888      881.16337      479.81448      286.72362     -4.3357575      0.13453746   
   2880000  -364.96209      967.16173      602.19964      314.70681      1.8140166      0.13453746   
   2890000  -357.89007      923.33072      565.44065      300.44454      9.2046805      0.13453746   
   2900000  -363.12565      953.25002      590.12437      310.18005     -2.104013       0.13453746   
   2910000  -360.87733      918.06162      557.18429      298.73002      3.0110039      0.13453746   
   2920000  -375.15412      939.18601      564.03189      305.60373     -1.3569621      0.13453746   
   2930000  -364.1868       924.28235      560.09555      300.75419      1.336106       0.13453746   
   2940000  -349.51667      910.49518      560.97851      296.26796      5.5848742      0.13453746   
   2950000  -410.24658      948.49447      538.24789      308.63263      0.3527917      0.13453746   
   2960000  -372.06412      888.25185      516.18773      289.03015      8.5273542      0.13453746   
   2970000  -362.22658      911.21589      548.98931      296.50247     -1.16977        0.13453746   
   2980000  -353.08417      918.12308      565.0389       298.75002     -7.2145613      0.13453746   
   2990000  -371.23136      883.73542      512.50405      287.56054      5.2661491      0.13453746   
   3000000  -393.90614      945.2576       551.35146      307.57938      5.0907917      0.13453746   
   3010000  -397.70771      890.69839      492.99068      289.82624      4.8941408      0.13453746   
   3020000  -393.89367      951.69855      557.80488      309.67521      3.9196105      0.13453746   
   3030000  -415.16362      938.95318      523.78956      305.52797      6.0753641      0.13453746   
   3040000  -416.04691      916.34138      500.29447      298.17027      0.72153843     0.13453746   
   3050000  -408.62738      933.35961      524.73222      303.70786     -6.5158199      0.13453746   
   3060000  -382.00091      908.45412      526.45321      295.60381      7.1699901      0.13453746   
   3070000  -419.14603      915.23109      496.08505      297.80898     -0.19178794     0.13453746   
   3080000  -400.79852      896.32994      495.53143      291.6587      -5.7804648      0.13453746   
   3090000  -416.20605      935.56417      519.35811      304.42521      9.7298304      0.13453746   
   3100000  -337.64413      917.90589      580.26176      298.67934      0.9385683      0.13453746   
   3110000  -389.01819      939.0935       550.07531      305.57363      6.2963065      0.13453746   
   3120000  -416.94731      911.74587      494.79856      296.67492      0.24171411     0.13453746   
   3130000  -485.54227      915.16334      429.62108      297.78694      1.0766359      0.13453746   
   3140000  -439.8447       908.21599      468.37129      295.52633      1.0429821      0.13453746   
   3150000  -440.57183      950.85759      510.28575      309.40157      2.5267379      0.13453746   
   3160000  -395.36812      885.26516      489.89703      288.05831     -5.8814251      0.13453746   
   3170000  -440.06957      895.29972      455.23015      291.32347     -1.8507488      0.13453746   
   3180000  -432.65512      932.69944      500.04432      303.49305      0.40328337     0.13453746   
   3190000  -369.09589      939.29113      570.19524      305.63793      1.188984       0.13453746   
   3200000  -353.64172      892.73426      539.09254      290.48869     -4.1654353      0.13453746   
   3210000  -332.5424       887.31469      554.77229      288.72521      0.79150347     0.13453746   
   3220000  -382.43113      920.34022      537.90909      299.47146     -1.6899438      0.13453746   
   3230000  -423.67334      935.57197      511.89863      304.42775     -2.9924662      0.13453746   
   3240000  -404.04943      939.5066       535.45717      305.70805      8.6245944      0.13453746   
   3250000  -355.6384       895.21216      539.57376      291.29498     -3.055716       0.13453746   
   3260000  -367.11919      937.40458      570.2854       305.02407      6.1350789      0.13453746   
   3270000  -368.74929      953.36663      584.61735      310.21799     -0.47335148     0.13453746   
   3280000  -358.51095      919.31079      560.79984      299.13649      7.9314609      0.13453746   
   3290000  -327.0401       916.40052      589.36041      298.18951      3.4971206      0.13453746   
   3300000  -333.23688      931.0799       597.84302      302.96606     -0.037575656    0.13453746   
   3310000  -324.48904      935.10307      610.61402      304.27517      2.4234312      0.13453746   
   3320000  -370.68404      908.37467      537.69063      295.57796      2.5490909      0.13453746   
   3330000  -360.20462      945.74479      585.54017      307.7379      -6.0913273      0.13453746   
   3340000  -345.42064      915.13416      569.71352      297.77745     -2.8907947      0.13453746   
   3350000  -354.79713      920.75668      565.95955      299.60697     -0.74909752     0.13453746   
   3360000  -346.5422       919.108        572.5658       299.0705       4.1185122      0.13453746   
   3370000  -336.87907      979.93088      643.05181      318.86179      6.9704543      0.13453746   
   3380000  -357.44855      898.03044      540.58189      292.21203     -8.8930515      0.13453746   
   3390000  -320.74025      900.45758      579.71732      293.0018      -4.0488035      0.13453746   
   3400000  -338.0669       928.10169      590.03479      301.99698     -1.6913072      0.13453746   
   3410000  -330.59396      948.82536      618.2314       308.7403      -0.83532522     0.13453746   
   3420000  -359.13093      920.06899      560.93807      299.3832      -2.0441702      0.13453746   
   3430000  -353.11869      889.42194      536.30325      289.41089      6.3635585      0.13453746   
   3440000  -387.46531      942.35836      554.89304      306.63598      8.5375652      0.13453746   
   3450000  -399.88657      932.00644      532.11987      303.26755      7.3430629      0.13453746   
   3460000  -349.48691      916.54408      567.05717      298.23622      0.37063876     0.13453746   
   3470000  -347.55753      946.28489      598.72735      307.91365      1.3974003      0.13453746   
   3480000  -366.16661      948.2422       582.07559      308.55054      1.3623723      0.13453746   
   3490000  -328.38532      874.53914      546.15382      284.56815     -2.6128905      0.13453746   
   3500000  -381.45457      900.32429      518.86972      292.95843      6.3425896      0.13453746   
   3510000  -382.40532      915.29155      532.88623      297.82866     -7.7962198      0.13453746   
   3520000  -286.22051      890.8772       604.65669      289.88442     -0.39782437     0.13453746   
   3530000  -342.41298      958.5334       616.12042      311.89922     -2.202524       0.13453746   
   3540000  -362.1251       932.77443      570.64933      303.51745      3.2252486      0.13453746   
   3550000  -342.14516      874.35928      532.21412      284.50962     -0.1069027      0.13453746   
   3560000  -393.8916       921.87284      527.98123      299.97016      2.8982246      0.13453746   
   3570000  -368.12722      901.48253      533.3553       293.33531      6.9370662      0.13453746   
   3580000  -348.8047       906.26409      557.45939      294.8912       0.19861665     0.13453746   
   3590000  -377.89955      887.14043      509.24087      288.66851      1.2793952      0.13453746   
   3600000  -395.94056      896.52506      500.5845       291.72219     -1.6958885      0.13453746   
   3610000  -326.68706      948.7056       622.01854      308.70133     -1.5743103      0.13453746   
   3620000  -358.61144      937.67393      579.06249      305.11171      2.241536       0.13453746   
   3630000  -330.1415       937.35097      607.20947      305.00662      4.8466821      0.13453746   
   3640000  -355.60499      909.27236      553.66737      295.87006      0.07135798     0.13453746   
   3650000  -340.15592      899.29263      559.13671      292.62274      8.3543684      0.13453746   
   3660000  -337.80516      907.02304      569.21787      295.13815     -6.5586294      0.13453746   
   3670000  -353.94237      892.06502      538.12265      290.27093     -6.6822434      0.13453746   
   3680000  -317.40237      912.89039      595.48802      297.04734      3.9576845      0.13453746   
   3690000  -324.43158      947.9211       623.48952      308.44606      1.2819502      0.13453746   
   3700000  -345.27638      868.8348       523.55842      282.712       -4.2370801      0.13453746   
   3710000  -341.72618      896.50597      554.77979      291.71598     -1.0458929      0.13453746   
   3720000  -374.88342      919.51035      544.62693      299.20142      2.0560962      0.13453746   
   3730000  -299.49504      935.63177      636.13672      304.44721     -1.1641239      0.13453746   
   3740000  -339.88645      934.42862      594.54217      304.05571      5.681974       0.13453746   
   3750000  -282.12303      880.30307      598.18003      286.44368     -5.0393414      0.13453746   
   3760000  -316.89441      935.98981      619.09539      304.56371      4.4340532      0.13453746   
   3770000  -340.76722      991.25912      650.4919       322.54791      3.9673232      0.13453746   
   3780000  -351.61763      927.8275       576.20987      301.90776     -2.9700725      0.13453746   
   3790000  -380.64421      916.53234      535.88813      298.2324       2.0933495      0.13453746   
   3800000  -427.01468      878.80544      451.79076      285.95636     -1.372667       0.13453746   
   3810000  -382.31479      921.5076       539.19281      299.85131      11.378206      0.13453746   
   3820000  -388.12122      935.47468      547.35345      304.39609      5.9981176      0.13453746   
   3830000  -447.84502      914.90782      467.06281      297.7038      -2.3851533      0.13453746   
   3840000  -440.65766      980.7966       540.13894      319.14349      1.5226667      0.13453746   
   3850000  -368.07531      935.30871      567.23341      304.34209      5.0277671      0.13453746   
   3860000  -370.38759      947.51119      577.1236       308.31268     -0.69232825     0.13453746   
   3870000  -411.00538      941.69891      530.69353      306.42141     -0.42012921     0.13453746   
   3880000  -432.39254      921.23488      488.84234      299.76257      6.0337785      0.13453746   
   3890000  -444.1716       913.66673      469.49513      297.29996      3.4127151      0.13453746   
   3900000  -434.45829      919.4108       484.95251      299.16903      8.2062607      0.13453746   
   3910000  -347.878        948.08772      600.20972      308.50027      11.75225       0.13453746   
   3920000  -394.37526      914.90277      520.52751      297.70215     -0.45194565     0.13453746   
   3930000  -374.84541      951.48065      576.63525      309.60431      3.5043599      0.13453746   
   3940000  -384.9543       906.24802      521.29372      294.88597      4.3637846      0.13453746   
   3950000  -374.77732      878.45312      503.6758       285.84173     -0.23345522     0.13453746   
   3960000  -397.99238      916.17482      518.18244      298.11607     -3.3734848      0.13453746   
   3970000  -395.50624      909.47873      513.97249      295.93721      4.122015       0.13453746   
   3980000  -404.7998       920.12594      515.32614      299.40173      6.0287896      0.13453746   
   3990000  -404.75187      899.54832      494.79644      292.70593      1.2615858      0.13453746   
   4000000  -412.44655      931.37814      518.93159      303.06311      1.0619104      0.13453746   
   4010000  -382.69014      922.94524      540.2551       300.31911      1.8126203      0.13453746   
   4020000  -337.46576      963.61991      626.15414      313.55433      7.3127575      0.13453746   
   4030000  -369.52083      867.08329      497.56246      282.14207     -0.095236715    0.13453746   
   4040000  -388.72386      899.8843       511.16044      292.81526      1.6567855      0.13453746   
   4050000  -359.43524      947.56951      588.13427      308.33165     -0.31485816     0.13453746   
   4060000  -311.45552      878.29578      566.84026      285.79053     -11.886245      0.13453746   
   4070000  -384.04822      939.73645      555.68823      305.78284     -3.6622106      0.13453746   
   4080000  -371.32527      924.99316      553.66789      300.98549     -9.3139791      0.13453746   
   4090000  -338.62622      926.44241      587.81619      301.45706     -1.7800579      0.13453746   
   4100000  -323.60402      902.02677      578.42275      293.51241     -3.3427504      0.13453746   
   4110000  -324.82683      952.00376      627.17693      309.77452     -1.5510023      0.13453746   
   4120000  -341.33715      911.53988      570.20273      296.6079      -6.1572476      0.13453746   
   4130000  -370.87526      919.7417       548.86644      299.2767       13.119006      0.13453746   
   4140000  -296.96615      942.63965      645.6735       306.72752      3.5991608      0.13453746   
   4150000  -341.0955       883.61174      542.51624      287.5203      -0.43239519     0.13453746   
   4160000  -336.44287      936.97963      600.53675      304.88579     -1.7241039      0.13453746   
   4170000  -350.41125      898.79965      548.3884       292.46233      2.5157804      0.13453746   
   4180000  -358.17657      904.47222      546.29565      294.30814     -3.2282944      0.13453746   
   4190000  -313.44107      912.72051      599.27944      296.99206      14.278949      0.13453746   
   4200000  -361.55556      921.46885      559.91329      299.83871      4.9124926      0.13453746   
   4210000  -379.6906       943.64106      563.95046      307.05337     -5.316371       0.13453746   
   4220000  -347.8645       923.04406      575.17957      300.35127      1.9487531      0.13453746   
   4230000  -393.97705      908.39123      514.41417      295.58335     -1.6993398      0.13453746   
   4240000  -380.252        951.13152      570.87952      309.4907       5.3178061      0.13453746   
   4250000  -398.37771      872.05214      473.67443      283.75889      7.2747915      0.13453746   
   4260000  -402.47652      911.54759      509.07107      296.61041      1.73871        0.13453746   
   4270000  -415.09684      928.53712      513.44028      302.13866     -5.4544064      0.13453746   
   4280000  -325.8294       946.83276      621.00336      308.09192      4.7836709      0.13453746   
   4290000  -369.86552      932.96772      563.10221      303.58035     -3.7857625      0.13453746   
   4300000  -386.90216      915.21916      528.31699      297.8051      -2.4289595      0.13453746   
   4310000  -341.81635      951.57812      609.76177      309.63602     -4.8768829      0.13453746   
   4320000  -348.46475      941.82371      593.35897      306.46202     -3.1812271      0.13453746   
   4330000  -372.73095      884.80629      512.07534      287.909        0.33065119     0.13453746   
   4340000  -357.60819      892.22349      534.6153       290.32249     -0.80152998     0.13453746   
   4350000  -367.44616      928.53339      561.08724      302.13745      3.0335668      0.13453746   
   4360000  -361.16051      877.31162      516.15111      285.47029      0.17958918     0.13453746   
   4370000  -375.70638      929.36664      553.66025      302.40858     -1.80465        0.13453746   
   4380000  -350.39358      891.99168      541.5981       290.24706      4.6045722      0.13453746   
   4390000  -336.80575      942.18621      605.38046      306.57997      3.0062881      0.13453746   
   4400000  -384.97548      903.33571      518.36023      293.93832     -2.7091879      0.13453746   
   4410000  -354.23543      893.59283      539.3574       290.76807     -6.9707066      0.13453746   
   4420000  -318.91281      906.40914      587.49633      294.93839     -0.24339954     0.13453746   
   4430000  -378.32678      918.08372      539.75694      298.73721      3.6152415      0.13453746   
   4440000  -365.55983      967.35988      601.80005      314.77128      0.1794933      0.13453746   
   4450000  -382.27254      925.847        543.57447      301.26332      2.8474721      0.13453746   
   4460000  -436.15719      961.58575      525.42856      312.89243     -1.5762629      0.13453746   
   4470000  -419.7129       925.8931       506.1802       301.27832      1.4512413      0.13453746   
   4480000  -385.62405      970.13979      584.51574      315.67584      12.54354       0.13453746   
   4490000  -399.86538      934.4476       534.58222      304.06189     -0.37880999     0.13453746   
   4500000  -423.09441      922.22632      499.13191      300.08518      1.7941932      0.13453746   
   4510000  -436.02844      937.81138      501.78294      305.15643     -5.092753       0.13453746   
   4520000  -393.61547      905.13044      511.51497      294.52231     -6.2355218      0.13453746   
   4530000  -396.48102      962.59657      566.11555      313.22134     -0.48717909     0.13453746   
   4540000  -369.85169      883.50658      513.65489      287.48608     -0.57329469     0.13453746   
   4550000  -401.12593      916.69217      515.56624      298.28441     -5.3571944      0.13453746   
   4560000  -408.27344      933.62888      525.35544      303.79548      4.0918155      0.13453746   
   4570000  -394.58684      914.32465      519.73781      297.51404     -0.83548152     0.13453746   
   4580000  -334.53193      878.15434      543.6224       285.7445      -0.8138218      0.13453746   
   4590000  -410.25356      926.71137      516.45781      301.54458     -8.1232958      0.13453746   
   4600000  -358.20235      906.75357      548.55122      295.05047      4.2245545      0.13453746   
   4610000  -340.04503      942.57751      602.53248      306.70729      0.44236047     0.13453746   
   4620000  -388.77791      934.73038      545.95246      304.1539       7.6743499      0.13453746   
   4630000  -398.22132      919.77124      521.54992      299.28631     -6.5295398      0.13453746   
   4640000  -388.21058      898.9707       510.76012      292.51798     -2.7211094      0.13453746   
   4650000  -386.75463      962.31506      575.56043      313.12974      1.608095       0.13453746   
   4660000  -415.40507      900.9203       485.51522      293.15237      1.7820873      0.13453746   
   4670000  -418.37937      920.51         502.13062      299.5267      -2.4769116      0.13453746   
   4680000  -385.43951      877.51788      492.07836      285.5374       1.8724475      0.13453746   
   4690000  -329.25244      919.38932      590.13688      299.16204     -3.7495247      0.13453746   
   4700000  -308.1997       968.38982      660.19011      315.10642      1.3322725      0.13453746   
   4710000  -368.60071      932.39098      563.79027      303.39268      4.0551092      0.13453746   
   4720000  -373.11355      950.45228      577.33873      309.26968      5.4335522      0.13453746   
   4730000  -407.62737      943.4814       535.85403      307.00141      0.40416237     0.13453746   
   4740000  -474.30343      902.65824      428.35482      293.71788     -3.2202172      0.13453746   
   4750000  -383.3393       941.92181      558.58251      306.49394      6.4514545      0.13453746   
   4760000  -472.96514      902.11732      429.15218      293.54187      1.5805776      0.13453746   
   4770000  -395.66616      902.81558      507.14942      293.76908      1.1595018      0.13453746   
   4780000  -385.5462       953.75213      568.20593      310.34343     -2.7629444      0.13453746   
   4790000  -412.2459       928.18001      515.93411      302.02246      5.5207866      0.13453746   
   4800000  -366.95836      930.15625      563.19789      302.66551      4.1437768      0.13453746   
   4810000  -395.58851      947.33268      551.74416      308.25459      1.2712103      0.13453746   
   4820000  -379.09445      924.996        545.90155      300.98641     -3.5943423      0.13453746   
   4830000  -380.89398      949.10875      568.21477      308.83251     -9.8804092      0.13453746   
   4840000  -444.04018      964.50048      520.4603       313.84086      2.9659047      0.13453746   
   4850000  -379.23716      917.18685      537.94969      298.44537      7.014765       0.13453746   
   4860000  -412.99384      939.12107      526.12723      305.5826      -1.9242741      0.13453746   
   4870000  -423.4503       902.4516       479.0013       293.65064      10.495683      0.13453746   
   4880000  -377.34012      917.11805      539.77794      298.42299     -1.6408696      0.13453746   
   4890000  -337.14956      941.61381      604.46425      306.39371     -3.2227232      0.13453746   
   4900000  -380.10857      968.73179      588.62323      315.21769     -0.61354507     0.13453746   
   4910000  -371.92504      924.44018      552.51514      300.80555     -2.1485612      0.13453746   
   4920000  -420.72398      910.28397      489.55999      296.19923     -2.0984517      0.13453746   
   4930000  -409.97147      885.87628      475.90481      288.25716      6.8126636      0.13453746   
   4940000  -422.92162      905.5966       482.67498      294.674        7.0873957      0.13453746   
   4950000  -367.16109      931.37602      564.21492      303.06242      2.3545162      0.13453746   
   4960000  -357.93536      952.25309      594.31773      309.85565     -4.1308284      0.13453746   
   4970000  -351.9375       926.23694      574.29945      301.3902       4.9163901      0.13453746   
   4980000  -399.78887      946.22172      546.43286      307.89309      2.6204335      0.13453746   
   4990000  -424.52266      911.02386      486.50121      296.43999     -0.62080408     0.13453746   
   5000000  -343.84913      911.96092      568.11179      296.7449      -2.4972471      0.13453746   
Loop time of 2308.88 on 4 procs for 5000000 steps with 1032 atoms

Performance: 1871.035 ns/day, 0.013 hours/ns, 2165.550 timesteps/s, 2.235 Matom-step/s
99.4% CPU use with 4 MPI tasks x 1 OpenMP threads

MPI task timing breakdown:
Section |  min time  |  avg time  |  max time  |%varavg| %total
---------------------------------------------------------------
Pair    | 1500.9     | 1637.1     | 1842       | 329.2 | 70.90
Bond    | 70.665     | 75.81      | 83.18      |  61.7 |  3.28
Neigh   | 4.5987     | 4.6461     | 4.6937     |   2.2 |  0.20
Comm    | 334.7      | 548.9      | 687.71     | 593.6 | 23.77
Output  | 0.09673    | 0.12299    | 0.19756    |  12.3 |  0.01
Modify  | 33.571     | 36.462     | 38.49      |  33.8 |  1.58
Other   |            | 5.831      |            |       |  0.25

Nlocal:            258 ave         321 max         185 min
Histogram: 1 0 0 0 1 0 0 1 0 1
Nghost:         840.75 ave         888 max         757 min
Histogram: 1 0 0 0 0 0 1 0 0 2
Neighs:        2784.25 ave        3627 max        1663 min
Histogram: 1 0 0 0 0 1 0 1 0 1

Total # of neighbors = 11137
Ave neighs/atom = 10.791667
Ave special neighs/atom = 4.8255814
Neighbor list builds = 10151
Dangerous builds = 0

# ===============================
# 4. PRODUCTION
# ===============================
# Reset averages for production
unfix favg
fix favg all ave/time 10000 10 100000 v_vpe v_vke v_vT v_vE v_vRg     file outputs/thermo_${tag}_production.dat
fix favg all ave/time 10000 10 100000 v_vpe v_vke v_vT v_vE v_vRg     file outputs/thermo_100ASO_mismatch_U5C_unmodified_production.dat

restart 10000000 outputs/backup_${tag}.*.restart
restart 10000000 outputs/backup_100ASO_mismatch_U5C_unmodified.*.restart
run 100000000
Generated 0 of 6 mixed pair_coeff terms from geometric mixing rule
Per MPI rank memory allocation (min/avg/max) = 8.612 | 8.613 | 8.614 Mbytes
   Step         PotEng         KinEng         TotEng          Temp          Press         Density    
   5000000  -343.84913      911.96092      568.11179      296.7449      -2.4972471      0.13453746   
   5010000  -358.21588      909.03094      550.81506      295.79151     -1.4339793      0.13453746   
   5020000  -382.47609      959.16749      576.6914       312.10554     -0.65188697     0.13453746   
   5030000  -313.82007      945.49363      631.67356      307.65618     -5.2123639      0.13453746   
   5040000  -388.98285      907.53717      518.55432      295.30544     -2.5644653      0.13453746   
   5050000  -375.48116      890.34122      514.86005      289.71002      0.31041358     0.13453746   
   5060000  -340.61484      902.68576      562.07092      293.72683      7.28178        0.13453746   
   5070000  -331.61734      905.58901      573.97166      294.67153      4.8451825      0.13453746   
   5080000  -318.27562      933.65137      615.37575      303.8028       0.056806179    0.13453746   
   5090000  -411.07985      921.94121      510.86136      299.9924       4.3822693      0.13453746   
   5100000  -385.86319      896.63513      510.77193      291.75801      6.1398739      0.13453746   
   5110000  -374.18494      934.0265       559.84155      303.92486     -4.6174844      0.13453746   
   5120000  -388.305        926.79033      538.48533      301.57027     -2.1351771      0.13453746   
   5130000  -358.56291      934.03576      575.47285      303.92788     -7.5401511      0.13453746   
   5140000  -436.87865      929.77814      492.89948      302.54248      1.2150888      0.13453746   
   5150000  -430.98286      910.82855      479.84569      296.37643      3.6896795      0.13453746   
   5160000  -389.37376      915.75261      526.37885      297.97869      7.7374821      0.13453746   
   5170000  -427.10408      911.10655      484.00247      296.46689      1.3410686      0.13453746   
   5180000  -459.21471      907.95667      448.74195      295.44195     -0.99570821     0.13453746   
   5190000  -435.34065      925.75263      490.41198      301.23261      1.3605502      0.13453746   
   5200000  -389.02323      907.60221      518.57898      295.32661     -2.579532       0.13453746   
   5210000  -375.52268      922.23132      546.70864      300.0868      -0.31320402     0.13453746   
   5220000  -376.671        869.36848      492.69748      282.88565      6.6333321      0.13453746   
   5230000  -421.15369      927.82108      506.66739      301.90567      2.2138029      0.13453746   
   5240000  -452.0166       900.21379      448.1972       292.92248     -0.98086854     0.13453746   
   5250000  -435.35775      933.13867      497.78093      303.63597      4.5293884      0.13453746   
   5260000  -415.61965      889.25674      473.63709      289.35714     -1.0849568      0.13453746   
   5270000  -443.945        910.97497      467.02997      296.42408      0.73503893     0.13453746   
   5280000  -369.707        953.63644      583.92944      310.30578     -5.5370107      0.13453746   
   5290000  -412.63049      943.72309      531.09259      307.08006     -5.5524498      0.13453746   
   5300000  -418.83929      963.57582      544.73653      313.53998      4.5026431      0.13453746   
   5310000  -367.72487      884.17278      516.44791      287.70286      2.4940141      0.13453746   
   5320000  -506.83983      900.90272      394.0629       293.14665     -2.3784589      0.13453746   
   5330000  -437.13582      894.85054      457.71472      291.17732     -5.2739471      0.13453746   
   5340000  -432.5519       936.041        503.4891       304.58037     -0.41151764     0.13453746   
   5350000  -419.57496      876.51243      456.93747      285.21024     -8.4861966      0.13453746   
   5360000  -470.76589      904.57736      433.81147      294.34235      6.3098806      0.13453746   
   5370000  -389.23409      911.00177      521.76768      296.4328       1.7289779      0.13453746   
   5380000  -444.07889      906.25415      462.17526      294.88796     -0.46882709     0.13453746   
   5390000  -437.76667      947.83634      510.06967      308.41848      4.2416359      0.13453746   
   5400000  -412.38787      900.19106      487.80319      292.91508     -0.57100041     0.13453746   
   5410000  -410.45905      956.46072      546.00167      311.22478      4.1177283      0.13453746   
   5420000  -431.58118      982.12654      550.54536      319.57624     -5.8046205      0.13453746   
   5430000  -430.4013       919.85926      489.45796      299.31496      3.9109381      0.13453746   
   5440000  -401.60022      970.0403       568.44008      315.64347     -2.4754736      0.13453746   
   5450000  -391.92172      955.57552      563.6538       310.93675      3.8790177      0.13453746   
   5460000  -385.36216      927.96048      542.59832      301.95103      0.92078437     0.13453746   
   5470000  -422.41339      947.38884      524.97545      308.27286     -0.92467031     0.13453746   
   5480000  -435.346        912.21687      476.87087      296.82818     -2.8564826      0.13453746   
   5490000  -419.75212      906.81333      487.06121      295.06991      3.0650927      0.13453746   
   5500000  -374.98572      937.36856      562.38283      305.01234      10.915049      0.13453746   
   5510000  -418.23353      913.96169      495.72816      297.39593      0.13085125     0.13453746   
   5520000  -440.78636      906.577        465.79064      294.99301     -0.69405102     0.13453746   
   5530000  -354.88539      903.5595       548.6741       294.01114     -2.4450452      0.13453746   
   5540000  -392.19696      933.74806      541.5511       303.83426      2.9813447      0.13453746   
   5550000  -465.22047      895.72644      430.50597      291.46233     -3.4032976      0.13453746   
   5560000  -409.26916      915.47785      506.20869      297.88928      14.692311      0.13453746   
   5570000  -383.97858      894.97494      510.99636      291.21779     -3.9479719      0.13453746   
   5580000  -384.79285      926.32635      541.5335       301.4193       6.3341384      0.13453746   
   5590000  -386.90822      924.10669      537.19848      300.69704      7.8860344      0.13453746   
   5600000  -409.98091      908.438        498.45709      295.59857      6.1608333      0.13453746   
   5610000  -392.2389       909.03225      516.79335      295.79193      1.4257833      0.13453746   
   5620000  -417.23672      923.06679      505.83007      300.35866     -2.4717405      0.13453746   
   5630000  -406.25142      928.23409      521.98268      302.04006      2.114483       0.13453746   
   5640000  -367.61295      904.88626      537.27331      294.44286     -3.6764392      0.13453746   
   5650000  -349.87654      926.7247       576.84816      301.54892      8.1967979      0.13453746   
   5660000  -391.72787      934.25105      542.52318      303.99793      4.789357       0.13453746   
   5670000  -372.9622       895.87669      522.91449      291.51122     -1.8482121      0.13453746   
   5680000  -412.64568      948.17809      535.53241      308.52968     -6.4346685      0.13453746   
   5690000  -421.55159      910.16695      488.61536      296.16115      1.6097965      0.13453746   
   5700000  -424.98157      958.19844      533.21688      311.79022      1.3518885      0.13453746   
   5710000  -463.82873      934.81625      470.98752      304.18184      2.8061234      0.13453746   
   5720000  -381.60532      953.94708      572.34177      310.40686      1.5115822      0.13453746   
   5730000  -376.53875      881.09024      504.55149      286.69982      2.4818406      0.13453746   
   5740000  -369.69196      930.20545      560.5135       302.68153     -0.58586258     0.13453746   
   5750000  -349.07659      959.44741      610.37082      312.19663     -10.222931      0.13453746   
   5760000  -351.62123      911.96291      560.34168      296.74555      0.91512402     0.13453746   
   5770000  -429.13273      946.99812      517.8654       308.14573      0.65534793     0.13453746   
   5780000  -362.64147      974.81069      612.16922      317.19572      0.76616167     0.13453746   
   5790000  -423.20287      910.26679      487.06391      296.19364      2.2362036      0.13453746   
   5800000  -443.69895      895.79801      452.09905      291.48561     -6.9640304      0.13453746   
   5810000  -423.62735      914.56686      490.93951      297.59285      2.6564433      0.13453746   
   5820000  -374.84678      971.69209      596.84532      316.18095     -2.5024596      0.13453746   
   5830000  -393.97224      905.73754      511.7653       294.71986      7.0944753      0.13453746   
   5840000  -428.87281      951.76585      522.89304      309.69711      4.8719855      0.13453746   
   5850000  -469.08849      926.27323      457.18474      301.40201      2.9711771      0.13453746   
   5860000  -392.3412       880.49593      488.15473      286.50644     -9.6272566      0.13453746   
   5870000  -424.5643       909.23907      484.67478      295.85923      7.1547578      0.13453746   
   5880000  -418.4092       915.78119      497.37199      297.98798     -0.66270193     0.13453746   
   5890000  -381.28891      888.51054      507.22163      289.11433     -4.1469717      0.13453746   
   5900000  -382.0246       944.62557      562.60097      307.37372      1.5631091      0.13453746   
   5910000  -389.8246       899.31873      509.49413      292.63123     -2.4180051      0.13453746   
   5920000  -334.06647      919.44024      585.37377      299.17861     -3.4996986      0.13453746   
   5930000  -354.18834      897.44668      543.25834      292.02208     -3.9268231      0.13453746   
   5940000  -364.05135      897.52329      533.47193      292.04701      5.1093753      0.13453746   
   5950000  -314.95214      921.33425      606.38211      299.79491      1.8899939      0.13453746   
   5960000  -364.35668      892.73253      528.37586      290.48813      3.6661647      0.13453746   
   5970000  -348.69091      946.53158      597.84067      307.99392     -7.3972801      0.13453746   
   5980000  -432.73244      914.71465      481.9822       297.64094     -3.3686174      0.13453746   
   5990000  -374.90321      956.79611      581.8929       311.33392      5.808432       0.13453746   
   6000000  -419.94895      942.23496      522.28601      306.59583      0.0012192499   0.13453746   
   6010000  -395.22957      930.77501      535.54544      302.86685      5.2174739      0.13453746   
   6020000  -428.09696      950.3603       522.26334      309.23975     -2.4490054      0.13453746   
   6030000  -395.50816      867.81982      472.31167      282.38173      0.61715715     0.13453746   
   6040000  -391.85771      950.96156      559.10385      309.4354       0.9051617      0.13453746   
   6050000  -385.33681      903.76154      518.42472      294.07688      2.8377615      0.13453746   
   6060000  -410.82447      922.39854      511.57407      300.14122      5.470712       0.13453746   
   6070000  -403.67105      913.12726      509.4562       297.12441      5.6361717      0.13453746   
   6080000  -369.04913      936.45296      567.40384      304.71442     -3.9294582      0.13453746   
   6090000  -380.98348      929.92525      548.94177      302.59035      4.7698161      0.13453746   
   6100000  -354.83488      932.46171      577.62683      303.41569      2.3615097      0.13453746   
   6110000  -461.42337      921.63559      460.21222      299.89296      4.2721473      0.13453746   
   6120000  -375.25828      896.31362      521.05534      291.65339      6.5165137      0.13453746   
   6130000  -433.21679      940.18994      506.97315      305.9304      -13.71226       0.13453746   
   6140000  -408.05151      917.84281      509.7913       298.65882      5.28391        0.13453746   
   6150000  -447.55173      908.15119      460.59946      295.50524      3.0080508      0.13453746   
   6160000  -453.42613      919.83018      466.40404      299.30549      5.5585325      0.13453746   
   6170000  -441.42353      916.92847      475.50494      298.3613       6.0367984      0.13453746   
   6180000  -377.00481      883.11869      506.11388      287.35986      0.20192531     0.13453746   
   6190000  -409.49426      925.45084      515.95659      301.13441      6.285019       0.13453746   
   6200000  -441.1545       930.23124      489.07674      302.68992      8.6756956      0.13453746   
   6210000  -434.67993      915.23372      480.55379      297.80984      6.3079841      0.13453746   
   6220000  -430.1497       945.54773      515.39803      307.67378      3.9654245      0.13453746   
   6230000  -448.50286      912.60947      464.10661      296.95593      7.3566996      0.13453746   
   6240000  -442.45194      896.34355      453.89161      291.66313     -5.9510468      0.13453746   
   6250000  -418.98536      915.88601      496.90065      298.02209      4.1266526      0.13453746   
   6260000  -484.06914      884.77941      400.71027      287.90025     -5.1756217      0.13453746   
   6270000  -445.6483       883.5047       437.8564       287.48547      6.3000732      0.13453746   
   6280000  -405.77448      922.60112      516.82665      300.20714     -0.3871631      0.13453746   
   6290000  -399.77356      917.82974      518.05617      298.65457      2.5079422      0.13453746   
   6300000  -403.46799      924.24991      520.78193      300.74364      4.1409305      0.13453746   
   6310000  -444.25033      937.34449      493.09416      305.00451     -7.036259       0.13453746   
   6320000  -465.1202       915.53944      450.41923      297.90932      1.4050717      0.13453746   
   6330000  -445.72292      935.63896      489.91604      304.44955      0.22624977     0.13453746   
   6340000  -466.1821       922.86612      456.68402      300.29336     -0.72921713     0.13453746   
   6350000  -464.72315      908.82163      444.09849      295.7234      -2.9571211      0.13453746   
   6360000  -436.58842      965.0102       528.42178      314.00671     -1.4071731      0.13453746   
   6370000  -415.82102      911.20399      495.38297      296.4986       3.5784254      0.13453746   
   6380000  -373.67603      941.03513      567.3591       306.20542      1.7683266      0.13453746   
   6390000  -432.32988      930.2294       497.89952      302.68932      3.0691798      0.13453746   
   6400000  -378.42612      893.66751      515.24139      290.79237      3.7683742      0.13453746   
   6410000  -387.27508      932.49612      545.22103      303.42689     -0.5752152      0.13453746   
   6420000  -371.61218      960.6125       589.00032      312.57574      2.9801879      0.13453746   
   6430000  -395.16461      909.99266      514.82805      296.10444      1.6456581      0.13453746   
   6440000  -361.62229      929.64932      568.02703      302.50056      11.468436      0.13453746   
   6450000  -429.58043      967.60172      538.02129      314.84998      2.9572808      0.13453746   
   6460000  -457.47499      919.23738      461.76239      299.1126      -10.14773       0.13453746   
   6470000  -486.9579       923.00828      436.05038      300.33962     -5.8478843      0.13453746   
   6480000  -418.14558      919.89134      501.74576      299.32539      3.5042276      0.13453746   
   6490000  -453.04163      926.36318      473.32154      301.43128     -2.6981054      0.13453746   
   6500000  -389.99109      928.93497      538.94388      302.26812      1.2529533      0.13453746   
   6510000  -419.1448       919.73388      500.58908      299.27416      6.1613201      0.13453746   
   6520000  -464.3042       901.12889      436.82469      293.22024      2.8376293      0.13453746   
   6530000  -411.35469      924.99369      513.639        300.98566     -3.5723732      0.13453746   
   6540000  -456.44633      919.09898      462.65265      299.06757      9.6280051      0.13453746   
   6550000  -452.98711      903.00807      450.02096      293.83171      5.8690892      0.13453746   
   6560000  -434.61804      921.99477      487.37673      300.00983      4.2472887      0.13453746   
   6570000  -473.09022      937.72582      464.6356       305.12859      9.8125653      0.13453746   
   6580000  -457.52584      919.46285      461.93701      299.18597      1.1482948      0.13453746   
   6590000  -468.79966      891.66315      422.8635       290.14016     -8.7614669      0.13453746   
   6600000  -377.93384      883.19678      505.26293      287.38527     -0.19888212     0.13453746   
   6610000  -477.01151      880.55178      403.54027      286.52461      4.1261769      0.13453746   
   6620000  -416.33563      911.91271      495.57707      296.72921      0.28676041     0.13453746   
   6630000  -450.11987      898.40273      448.28286      292.33317      3.94508        0.13453746   
   6640000  -399.31931      937.50438      538.18508      305.05654      1.8953002      0.13453746   
   6650000  -366.60484      940.02019      573.41535      305.87516     -10.518585      0.13453746   
   6660000  -393.19354      942.46423      549.27069      306.67044     -2.5000514      0.13453746   
   6670000  -404.12427      908.72129      504.59701      295.69075      1.5290582      0.13453746   
   6680000  -462.55299      921.25381      458.70082      299.76873     -2.9947302      0.13453746   
   6690000  -373.15504      927.36032      554.20528      301.75574     -5.4479233      0.13453746   
   6700000  -443.45751      871.31664      427.85913      283.51957     -2.654997       0.13453746   
   6710000  -424.84258      921.13486      496.29228      299.73003      5.0750551      0.13453746   
   6720000  -437.01144      878.08315      441.07171      285.72134     -3.262246       0.13453746   
   6730000  -400.19285      900.93292      500.74007      293.15647      3.3689077      0.13453746   
   6740000  -372.32482      912.90061      540.57579      297.05067      3.0190166      0.13453746   
   6750000  -395.6646       970.16518      574.50058      315.68411     -3.8186531      0.13453746   
   6760000  -441.27507      880.41873      439.14366      286.48132     -2.4700824      0.13453746   
   6770000  -453.88967      916.0238       462.13413      298.06693     -1.9381965      0.13453746   
   6780000  -375.40744      948.18038      572.77294      308.53042      1.9585924      0.13453746   
   6790000  -401.92829      921.23318      519.30489      299.76202      0.34416427     0.13453746   
   6800000  -368.44802      933.5527       565.10467      303.77069      7.2440211      0.13453746   
   6810000  -431.22042      883.70721      452.48679      287.55136      2.8227481      0.13453746   
   6820000  -431.98192      919.141        487.15908      299.08124      7.3828134      0.13453746   
   6830000  -405.82946      911.43754      505.60808      296.57459      2.8772025      0.13453746   
   6840000  -426.08303      922.44629      496.36325      300.15675      4.5502188      0.13453746   
   6850000  -404.36121      938.88533      534.52412      305.50589      4.2638124      0.13453746   
   6860000  -470.03607      906.38228      436.34622      294.92965      7.1693334      0.13453746   
   6870000  -415.08466      908.75774      493.67308      295.70261      8.0631639      0.13453746   
   6880000  -455.71074      923.16372      467.45299      300.3902       2.6432504      0.13453746   
   6890000  -453.38909      880.2921       426.90301      286.44011     -2.2919904      0.13453746   
   6900000  -437.48411      897.89243      460.40833      292.16712     -2.451208       0.13453746   
   6910000  -410.34883      888.80706      478.45823      289.21081     -0.8736495      0.13453746   
   6920000  -410.01109      911.42232      501.41124      296.56964     -3.0383601      0.13453746   
   6930000  -417.98554      938.5829       520.59736      305.40748     -5.560444       0.13453746   
   6940000  -401.09927      940.42987      539.3306       306.00847     -3.0723183      0.13453746   
   6950000  -425.46364      855.07956      429.61592      278.23615      5.0834932      0.13453746   
   6960000  -326.53448      965.46268      638.9282       314.15395      3.4243382      0.13453746   
   6970000  -384.43276      926.43712      542.00436      301.45534     -6.3106685      0.13453746   
   6980000  -423.07987      893.44746      470.36759      290.72076      6.8066365      0.13453746   
   6990000  -422.44412      936.35608      513.91195      304.68289     -5.0282241      0.13453746   
   7000000  -401.079        916.57324      515.49424      298.24571     -6.6312237      0.13453746   
[...]
  92890000  -436.98157      930.14127      493.1597       302.66064      2.7085772      0.13453746   
  92900000  -399.78388      887.23942      487.45555      288.70072      3.9056222      0.13453746   
  92910000  -357.85123      939.73337      581.88214      305.78183     -4.02483        0.13453746   
  92920000  -398.36342      898.13096      499.76754      292.24474     -1.4825822      0.13453746   
  92930000  -355.60975      938.74955      583.1398       305.46171      2.7969016      0.13453746   
  92940000  -340.6045       921.2634       580.65891      299.77185      4.4961784      0.13453746   
  92950000  -370.76447      922.77918      552.01472      300.26508      0.31237778     0.13453746   
  92960000  -369.92619      914.57072      544.64453      297.59411      0.84520835     0.13453746   
  92970000  -364.73349      912.22616      547.49266      296.8312       4.0368945      0.13453746   
  92980000  -378.29225      900.99916      522.70691      293.17803      9.2281585      0.13453746   
  92990000  -403.15946      931.1177       527.95824      302.97836     -6.5600272      0.13453746   
  93000000  -421.23476      899.70451      478.46975      292.75676      0.94013038     0.13453746   
  93010000  -356.26157      914.94135      558.67979      297.71471      2.0712873      0.13453746   
  93020000  -322.6293       935.55163      612.92233      304.42113     -6.9294388      0.13453746   
  93030000  -372.20196      923.73436      551.5324       300.57588      0.83436593     0.13453746   
  93040000  -345.81184      930.43329      584.62145      302.75566     -3.3854152      0.13453746   
  93050000  -383.24776      908.34951      525.10175      295.56977     -1.526762       0.13453746   
  93060000  -388.04157      890.83107      502.7895       289.86941     -0.21178372     0.13453746   
  93070000  -333.27043      929.30204      596.03161      302.38756      0.22695493     0.13453746   
  93080000  -365.98076      918.91678      552.93602      299.00828      5.2661799      0.13453746   
  93090000  -300.82327      921.83266      621.00939      299.95709      9.8609999      0.13453746   
  93100000  -305.66174      913.98294      608.3212       297.40285      3.8406014      0.13453746   
  93110000  -318.22403      913.69369      595.46966      297.30873     -3.019812       0.13453746   
  93120000  -324.33199      952.21198      627.87998      309.84228     -2.2594308      0.13453746   
  93130000  -331.8575       902.84272      570.98522      293.77791      3.0538858      0.13453746   
  93140000  -358.77085      933.88218      575.11133      303.8779      -6.6790331      0.13453746   
  93150000  -389.23433      939.0503       549.81598      305.55957      4.3658285      0.13453746   
  93160000  -411.67437      900.67542      489.00105      293.07269      2.8305782      0.13453746   
  93170000  -385.11531      942.60807      557.49275      306.71724     -0.64472297     0.13453746   
  93180000  -335.46382      930.47507      595.01124      302.76926      8.698147       0.13453746   
  93190000  -343.11168      882.00643      538.89476      286.99794      4.2067299      0.13453746   
  93200000  -350.1753       931.13559      580.96028      302.98418      2.7664324      0.13453746   
  93210000  -345.46762      982.73584      637.26822      319.7745       1.6132709      0.13453746   
  93220000  -362.41999      890.29692      527.87693      289.6956       16.205639      0.13453746   
  93230000  -317.03928      921.07087      604.03159      299.7092      -3.3993895      0.13453746   
  93240000  -360.05302      934.31873      574.26571      304.01995      2.011037       0.13453746   
  93250000  -418.70328      937.69155      518.98827      305.11744      1.186917       0.13453746   
  93260000  -352.50914      995.04728      642.53814      323.78054      5.0559165      0.13453746   
  93270000  -371.6538       929.64917      557.99537      302.50052      12.291358      0.13453746   
  93280000  -358.03343      867.36568      509.33225      282.23396     -8.9830836      0.13453746   
  93290000  -292.61659      914.036        621.41941      297.42011     -4.1115186      0.13453746   
  93300000  -368.40918      900.517        532.10782      293.02114      2.6325981      0.13453746   
  93310000  -307.52339      920.01651      612.49312      299.36612     -2.475684       0.13453746   
  93320000  -347.93439      913.09206      565.15767      297.11296      0.93986851     0.13453746   
  93330000  -384.28976      946.93103      562.64127      308.1239       4.3098337      0.13453746   
  93340000  -353.42563      988.44345      635.01782      321.63171      0.26180477     0.13453746   
  93350000  -334.56453      931.31594      596.75141      303.04287      2.2692316      0.13453746   
  93360000  -300.10644      895.82795      595.72152      291.49536     -7.3012797      0.13453746   
  93370000  -279.14819      892.31348      613.16529      290.35178     -6.377906       0.13453746   
  93380000  -353.60224      903.12886      549.52661      293.87101      2.0048497      0.13453746   
  93390000  -281.03278      947.74505      666.71226      308.38877     -3.3429837      0.13453746   
  93400000  -333.9842       909.89066      575.90646      296.07125      1.1845325      0.13453746   
  93410000  -309.00433      923.36983      614.3655       300.45727     -3.7832655      0.13453746   
  93420000  -269.18764      852.9422       583.75455      277.54067     -7.7407617      0.13453746   
  93430000  -319.79741      930.4531       610.65569      302.76211      9.0612593      0.13453746   
  93440000  -341.25004      918.79718      577.54714      298.96936     -4.5480734      0.13453746   
  93450000  -307.04294      910.36169      603.31875      296.22452      2.3421764      0.13453746   
  93460000  -324.70078      914.08502      589.38424      297.43606     -0.27792548     0.13453746   
  93470000  -348.77059      904.78089      556.0103       294.40857     -0.14341359     0.13453746   
  93480000  -361.62238      923.99276      562.37038      300.65996     -3.3160634      0.13453746   
  93490000  -392.03923      947.62383      555.5846       308.34933     -1.279573       0.13453746   
  93500000  -349.04363      949.74754      600.70391      309.04037      2.335655       0.13453746   
  93510000  -320.58754      905.61815      585.03061      294.68101     -1.9029805      0.13453746   
  93520000  -355.03517      889.34174      534.30658      289.3848      -0.5714211      0.13453746   
  93530000  -330.56085      931.15683      600.59599      302.9911       6.4489425      0.13453746   
  93540000  -349.94637      955.50394      605.55757      310.91345      0.75586868     0.13453746   
  93550000  -340.99429      914.17753      573.18324      297.46616      3.5682764      0.13453746   
  93560000  -352.66427      963.06445      610.40018      313.37359      4.869193       0.13453746   
  93570000  -342.25415      873.74084      531.48668      284.30838     -3.6944018      0.13453746   
  93580000  -365.3011       899.58299      534.28189      292.71722     -0.28671703     0.13453746   
  93590000  -330.05745      890.06655      560.0091       289.62064      0.67828272     0.13453746   
  93600000  -355.31196      933.13048      577.81852      303.6333      -2.1996029      0.13453746   
  93610000  -316.37702      925.93837      609.56135      301.29305     -1.5309329      0.13453746   
  93620000  -395.88954      911.09423      515.20469      296.46288      6.9613252      0.13453746   
  93630000  -361.50739      924.65915      563.15176      300.8768       1.0684132      0.13453746   
  93640000  -375.36853      917.86739      542.49886      298.66682      3.1976439      0.13453746   
  93650000  -385.37148      947.34288      561.97141      308.25791      0.21588096     0.13453746   
  93660000  -325.8252       883.85417      558.02897      287.59918      11.067393      0.13453746   
  93670000  -357.05233      959.99135      602.93902      312.37362     -6.720162       0.13453746   
  93680000  -342.06063      903.42589      561.36525      293.96767      0.15484776     0.13453746   
  93690000  -309.09988      904.42632      595.32644      294.2932       3.5014017      0.13453746   
  93700000  -264.35223      955.24945      690.89723      310.83065      11.487366      0.13453746   
  93710000  -304.06442      917.24699      613.18258      298.46494     -10.803912      0.13453746   
  93720000  -337.04184      891.28573      554.24388      290.01735      0.87503287     0.13453746   
  93730000  -331.12767      931.70565      600.57797      303.16968      5.0773191      0.13453746   
  93740000  -315.98172      901.75282      585.7711       293.42326     -2.1734055      0.13453746   
  93750000  -252.87111      969.72268      716.85157      315.54012      0.96953464     0.13453746   
  93760000  -314.24216      954.74385      640.50168      310.66613      0.85743791     0.13453746   
  93770000  -378.35357      928.43577      550.08221      302.10569     -2.3767942      0.13453746   
  93780000  -357.39858      899.08188      541.6833       292.55416      7.0146759      0.13453746   
  93790000  -388.15085      914.77167      526.62081      297.65949      0.40502082     0.13453746   
  93800000  -330.54024      916.64662      586.10638      298.26959     -7.9325063      0.13453746   
  93810000  -370.07691      916.37232      546.29541      298.18033      6.9721574      0.13453746   
  93820000  -375.0575       906.73969      531.68219      295.04595     -0.3246766      0.13453746   
  93830000  -384.32926      902.25947      517.93021      293.58812     -2.6005186      0.13453746   
  93840000  -347.78119      929.24866      581.46746      302.37019     -2.2365759      0.13453746   
  93850000  -410.25178      948.16558      537.9138       308.52561      8.4437892      0.13453746   
  93860000  -391.55157      919.3812       527.82963      299.1594       2.4299777      0.13453746   
  93870000  -381.00306      951.60865      570.60559      309.64596      4.2055737      0.13453746   
  93880000  -405.88825      954.94666      549.05841      310.73212     -2.8151039      0.13453746   
  93890000  -393.71779      879.47134      485.75355      286.17304      5.4653911      0.13453746   
  93900000  -370.84521      914.52084      543.67563      297.57788      2.1123908      0.13453746   
  93910000  -443.27754      949.77233      506.49479      309.04843      0.018330692    0.13453746   
  93920000  -375.28819      904.31765      529.02946      294.25784     -0.81845676     0.13453746   
  93930000  -377.37595      916.23565      538.8597       298.13586     -2.2141433      0.13453746   
  93940000  -416.48412      877.4215       460.93738      285.50604     -3.8584205      0.13453746   
  93950000  -378.91935      880.13546      501.2161       286.38914     -6.2194989      0.13453746   
  93960000  -423.77731      929.85025      506.07294      302.56594     -0.24116846     0.13453746   
  93970000  -350.70554      922.42792      571.72237      300.15078      2.5768145      0.13453746   
  93980000  -387.19981      932.70039      545.50058      303.49336     -1.920613       0.13453746   
  93990000  -398.57513      894.68291      496.10777      291.12277     -5.5577475      0.13453746   
  94000000  -363.85685      880.28136      516.42451      286.43662     -3.3075983      0.13453746   
  94010000  -356.63901      907.62082      550.98181      295.33267      0.59721479     0.13453746   
  94020000  -336.97971      926.89436      589.91465      301.60412      1.8566361      0.13453746   
  94030000  -320.50228      920.72379      600.22151      299.59627      4.6905553      0.13453746   
  94040000  -341.79201      899.92922      558.13721      292.82988      1.5083055      0.13453746   
  94050000  -379.14423      914.19374      535.04951      297.47144     -0.9888984      0.13453746   
  94060000  -328.35988      929.83784      601.47797      302.56191      9.4810712      0.13453746   
  94070000  -361.30621      903.79789      542.49168      294.08871      0.76735387     0.13453746   
  94080000  -326.85874      934.38         607.52126      304.03989     -5.6356612      0.13453746   
  94090000  -402.16429      901.48106      499.31678      293.33483     -3.5437475      0.13453746   
  94100000  -333.11995      885.52524      552.40529      288.14294      1.3933939      0.13453746   
  94110000  -394.99306      980.14946      585.1564       318.93291      2.5794248      0.13453746   
  94120000  -386.3034       932.29556      545.99216      303.36163     -3.5673569      0.13453746   
  94130000  -396.4592       912.6721       516.21289      296.97631      1.6884197      0.13453746   
  94140000  -352.0491       904.10226      552.05317      294.18775      1.2072443      0.13453746   
  94150000  -355.87672      894.21857      538.34185      290.97168      0.87681407     0.13453746   
  94160000  -363.88542      919.34265      555.45723      299.14686      7.2546575      0.13453746   
  94170000  -363.13499      923.06811      559.93311      300.35909     -4.340417       0.13453746   
  94180000  -365.07349      928.87576      563.80227      302.24885     -0.48809974     0.13453746   
  94190000  -372.19021      921.51522      549.32501      299.85379     -2.0141962      0.13453746   
  94200000  -371.45804      948.22603      576.76799      308.54528      1.2377656      0.13453746   
  94210000  -356.40878      928.47153      572.06276      302.11732      4.2825374      0.13453746   
  94220000  -423.12998      953.98282      530.85284      310.41849      4.0566232      0.13453746   
  94230000  -325.84089      916.75271      590.91182      298.30411      4.3887209      0.13453746   
  94240000  -363.70888      901.22285      537.51397      293.25082     -0.96454741     0.13453746   
  94250000  -358.67133      918.17505      559.50372      298.76693      6.8129699      0.13453746   
  94260000  -363.01734      927.30897      564.29163      301.73903     -0.041481356    0.13453746   
  94270000  -381.77642      882.82434      501.04792      287.26408      6.0106612      0.13453746   
  94280000  -437.42746      949.33618      511.90873      308.90651     -2.7002338      0.13453746   
  94290000  -375.16111      920.17756      545.01645      299.41853     -7.2014256      0.13453746   
  94300000  -458.42791      931.88249      473.45457      303.22722      2.5122638      0.13453746   
  94310000  -398.38906      917.08319      518.69413      298.41164     -3.2692788      0.13453746   
  94320000  -365.54781      868.25339      502.70558      282.52281     -8.1820269      0.13453746   
  94330000  -344.41302      939.17843      594.76541      305.60126      0.49868213     0.13453746   
  94340000  -401.84291      894.312        492.46909      291.00208      3.7102861      0.13453746   
  94350000  -378.68352      907.08361      528.40009      295.15786      13.116708      0.13453746   
  94360000  -317.69139      908.28284      590.59145      295.54808     -1.3055264      0.13453746   
  94370000  -330.48579      921.23702      590.75123      299.76327     -8.3269824      0.13453746   
  94380000  -394.60601      913.20109      518.59508      297.14844      10.421966      0.13453746   
  94390000  -358.74974      933.53333      574.78359      303.76439      3.2995721      0.13453746   
  94400000  -370.00993      928.91974      558.90981      302.26316      3.5576356      0.13453746   
  94410000  -359.19472      925.85781      566.66309      301.26684     -2.4982402      0.13453746   
  94420000  -357.74021      960.14854      602.40833      312.42477      0.51869727     0.13453746   
  94430000  -381.18088      885.43835      504.25746      288.11466      1.1655205      0.13453746   
  94440000  -324.4903       892.60107      568.11077      290.44536     -2.5011006      0.13453746   
  94450000  -304.79072      932.92953      628.1388       303.56792     -0.6704845      0.13453746   
  94460000  -388.03925      928.83608      540.79683      302.23594      0.6357857      0.13453746   
  94470000  -289.61571      932.02614      642.41043      303.27396     -8.7116755      0.13453746   
  94480000  -357.68601      877.2551       519.56908      285.4519      -7.1902078      0.13453746   
  94490000  -281.47013      936.31171      654.84159      304.66845     -1.158394       0.13453746   
  94500000  -332.25553      940.75466      608.49913      306.11416     -2.7911528      0.13453746   
  94510000  -354.8839       913.19502      558.31113      297.14647      5.8824386      0.13453746   
  94520000  -336.27759      955.67366      619.39607      310.96868      0.71665709     0.13453746   
  94530000  -359.11018      924.2204       565.11022      300.73404     -4.8623003      0.13453746   
  94540000  -272.60107      902.64531      630.04424      293.71367      0.42547051     0.13453746   
  94550000  -309.45118      917.68553      608.23435      298.60764      1.4753709      0.13453746   
  94560000  -324.16122      944.20167      620.04045      307.23578      3.5418956      0.13453746   
  94570000  -344.94008      883.04292      538.10284      287.33521     -1.4246018      0.13453746   
  94580000  -259.42424      926.12116      666.69692      301.35253     -1.3386226      0.13453746   
  94590000  -286.93298      943.63986      656.70688      307.05298      4.822718       0.13453746   
  94600000  -310.00403      911.34495      601.34092      296.54447      0.83621867     0.13453746   
  94610000  -366.73634      936.22727      569.49093      304.64098     -3.0490919      0.13453746   
  94620000  -344.13088      922.21672      578.08584      300.08205      2.6556655      0.13453746   
  94630000  -348.13811      910.88018      562.74207      296.39323     -1.4975317      0.13453746   
  94640000  -393.67866      981.14959      587.47093      319.25835      1.2148099      0.13453746   
  94650000  -390.44505      943.40403      552.95897      306.97624     -9.5959204      0.13453746   
  94660000  -392.6352       939.04009      546.40489      305.55625     -1.3901251      0.13453746   
  94670000  -444.0391       910.67838      466.63928      296.32757      1.0383563      0.13453746   
  94680000  -355.79536      928.03556      572.2402       301.97546      3.5992419      0.13453746   
  94690000  -355.01816      933.43742      578.41927      303.73318     -2.1835909      0.13453746   
  94700000  -310.40824      926.29618      615.88794      301.40948      1.5781022      0.13453746   
  94710000  -363.2231       925.84376      562.62066      301.26227      1.2898363      0.13453746   
  94720000  -379.95853      902.8357       522.87717      293.77562     -5.1419799      0.13453746   
  94730000  -366.10406      934.76626      568.6622       304.16558     -3.8944285      0.13453746   
  94740000  -365.2669       910.04389      544.77699      296.12111      4.9094036      0.13453746   
  94750000  -329.26234      938.84126      609.57892      305.49155     -1.5026255      0.13453746   
  94760000  -358.94872      886.4214       527.47268      288.43454     -6.3034546      0.13453746   
  94770000  -384.57718      939.08673      554.50955      305.57142     -0.1322933      0.13453746   
  94780000  -376.93777      867.65066      490.71289      282.32669      7.3615265      0.13453746   
  94790000  -322.64658      919.68685      597.04028      299.25886      9.4111504      0.13453746   
  94800000  -346.11941      942.37483      596.25542      306.64135      3.0707052      0.13453746   
  94810000  -372.03838      892.1543       520.11592      290.29998     -10.99571       0.13453746   
  94820000  -303.98848      950.14854      646.16006      309.17085     -4.8638792      0.13453746   
  94830000  -414.15173      905.54467      491.39295      294.6571      -1.0516155      0.13453746   
  94840000  -316.56954      918.89617      602.32663      299.00157      0.076625536    0.13453746   
