
# ===============================
# FORCE FIELD (same as original)
# ===============================
bond_style harmonic
bond_coeff 1 7.5 5.9

angle_style harmonic
angle_coeff 1 5.0 150.0

pair_style hybrid/overlay lj/cut 10.0 base/rna 18.0
pair_modify shift yes
pair_coeff * * lj/cut 2.0 8.9089871814

pair_coeff 1 1 base/rna 0.00000 3.0 13.8 1.5 0.5 1.8326 0.9425 1.8326 1.1345
pair_coeff 1 2 base/rna 0.00000 3.0 13.8 1.5 0.5 1.8326 0.9425 1.8326 1.1345
pair_coeff 1 3 base/rna 0.00000 3.0 13.8 1.5 0.5 1.8326 0.9425 1.8326 1.1345
pair_coeff 1 4 base/rna 3.33333 3.0 13.8 1.5 0.5 1.8326 0.9425 1.8326 1.1345
pair_coeff 2 2 base/rna 0.00000 3.0 13.8 1.5 0.5 1.8326 0.9425 1.8326 1.1345
pair_coeff 2 3 base/rna 5.00000 3.0 13.8 1.5 0.5 1.8326 0.9425 1.8326 1.1345
pair_coeff 2 4 base/rna 0.00000 3.0 13.8 1.5 0.5 1.8326 0.9425 1.8326 1.1345
pair_coeff 3 3 base/rna 0.00000 3.0 13.8 1.5 0.5 1.8326 0.9425 1.8326 1.1345
pair_coeff 3 4 base/rna 3.33333 3.0 13.8 1.5 0.5 1.8326 0.9425 1.8326 1.1345
pair_coeff 4 4 base/rna 0.00000 3.0 13.8 1.5 0.5 1.8326 0.9425 1.8326 1.1345

special_bonds lj 0.0 0.0 1.0
Finding 1-2 1-3 1-4 neighbors ...
  special bond factors lj:    0        0        1       
  special bond factors coul:  0        0        0       
     2 = max # of 1-2 neighbors
     2 = max # of 1-3 neighbors
     4 = max # of 1-4 neighbors
     6 = max # of special neighbors
  special bonds CPU = 0.000 seconds
neighbor 15.0 bin
neigh_modify every 10 delay 0
comm_style tiled
timestep 10

# ===============================
# 1. MINIMIZATION
# ===============================
minimize 1.0e-4 1.0e-6 1000 10000

CITE-CITE-CITE-CITE-CITE-CITE-CITE-CITE-CITE-CITE-CITE-CITE-CITE

Your simulation uses code contributions which should be cited:

- Type Label Framework: https://doi.org/10.1021/acs.jpcb.3c08419

@Article{Gissinger24,
 author = {Jacob R. Gissinger, Ilia Nikiforov, Yaser Afshar, Brendon Waters, Moon-ki Choi, Daniel S. Karls, Alexander Stukowski, Wonpil Im, Hendrik Heinz, Axel Kohlmeyer, and Ellad B. Tadmor},
 title = {Type Label Framework for Bonded Force Fields in LAMMPS},
 journal = {J. Phys. Chem. B},
 year =    2024,
 volume =  128,
 number =  13,
 pages =   {3282–-3297}
}

CITE-CITE-CITE-CITE-CITE-CITE-CITE-CITE-CITE-CITE-CITE-CITE-CITE

Switching to 'neigh_modify every 1 delay 0 check yes' setting during minimization
Generated 0 of 6 mixed pair_coeff terms from geometric mixing rule
Neighbor list info ...
  update: every = 1 steps, delay = 0 steps, check = yes
  max neighbors/atom: 2000, page size: 100000
  master list distance cutoff = 33
  ghost atom cutoff = 33
  binsize = 16.5, bins = 10 10 10
  2 neighbor lists, perpetual/occasional/extra = 2 0 0
  (1) pair lj/cut, perpetual, trim from (2)
      attributes: half, newton on, cut 25
      pair build: trim
      stencil: none
      bin: none
  (2) pair base/rna, perpetual
      attributes: half, newton on
      pair build: half/bin/newton
      stencil: half/bin/3d
      bin: standard
Per MPI rank memory allocation (min/avg/max) = 8.408 | 8.408 | 8.408 Mbytes
   Step          Temp          E_pair         E_mol          TotEng         Press     
         0   0              59273.665      649.30211      59922.967      4044.2556    
       486   0             -101.2735       4.1538972     -97.119598      0.016025759  
Loop time of 0.0381426 on 4 procs for 486 steps with 282 atoms

98.4% CPU use with 4 MPI tasks x 1 OpenMP threads

Minimization stats:
  Stopping criterion = energy tolerance
  Energy initial, next-to-last, final = 
      59922.9667993081  -97.1107499155898  -97.1195978768222
  Force two-norm initial, final = 136741.65 0.57257256
  Force max component initial, final = 79262.465 0.11914331
  Final line search alpha, max atom move = 0.13386821 0.015949501
  Iterations, force evaluations = 486 782

MPI task timing breakdown:
Section |  min time  |  avg time  |  max time  |%varavg| %total
---------------------------------------------------------------
Pair    | 0.011618   | 0.016386   | 0.023278   |   3.7 | 42.96
Bond    | 0.0018528  | 0.0022729  | 0.002956   |   0.9 |  5.96
Neigh   | 0.00015501 | 0.00015892 | 0.00016309 |   0.0 |  0.42
Comm    | 0.0079677  | 0.015625   | 0.020806   |   4.2 | 40.97
Output  | 0          | 0          | 0          |   0.0 |  0.00
Modify  | 0          | 0          | 0          |   0.0 |  0.00
Other   |            | 0.003699   |            |       |  9.70

Nlocal:           70.5 ave          92 max          51 min
Histogram: 1 0 1 0 0 0 1 0 0 1
Nghost:         247.25 ave         252 max         235 min
Histogram: 1 0 0 0 0 0 0 0 0 3
Neighs:         315.25 ave         509 max         195 min
Histogram: 1 0 2 0 0 0 0 0 0 1

Total # of neighbors = 1261
Ave neighs/atom = 4.4716312
Ave special neighs/atom = 4.893617
Neighbor list builds = 2
Dangerous builds = 0
reset_timestep 0

# ===============================
# 2. OUTPUTS
# ===============================
dump d1 all custom 50000 outputs/${tag}.lammpstrj id mol type q xu yu zu
dump d1 all custom 50000 outputs/25ASO_unmod.lammpstrj id mol type q xu yu zu
dump_modify d1 sort id

thermo_style custom step pe ke etotal temp press density
thermo 10000
thermo_modify flush yes

variable vpe equal pe
variable vke equal ke
variable vT  equal temp
variable vE  equal etotal
variable vRg equal gyration(all)

fix favg all ave/time 10000 10 100000 v_vpe v_vke v_vT v_vE v_vRg     file outputs/thermo_${tag}_averaged.dat
fix favg all ave/time 10000 10 100000 v_vpe v_vke v_vT v_vE v_vRg     file outputs/thermo_25ASO_unmod_averaged.dat

# ===============================
# 3. EQUILIBRATION (NVT)
# ===============================
velocity all create ${T_target} 44438 rot yes dist gaussian
velocity all create 300 44438 rot yes dist gaussian

# Langevin thermostat for equilibration
fix fxlang all langevin ${T_target} ${T_target} 1000.0 86622
fix fxlang all langevin 300 ${T_target} 1000.0 86622
fix fxlang all langevin 300 300 1000.0 86622
fix fxnve  all nve
fix recenter all momentum 1000 linear 1 1 1

# Equilibration run
run 5000000
Generated 0 of 6 mixed pair_coeff terms from geometric mixing rule
Per MPI rank memory allocation (min/avg/max) = 7.298 | 7.298 | 7.299 Mbytes
   Step         PotEng         KinEng         TotEng          Temp          Press         Density    
         0  -97.119598      251.28229      154.16269      300            2.8203923      0.03676391   
     10000   106.64512      262.96487      369.60999      313.94756      1.1078194      0.03676391   
     20000   109.73665      228.17683      337.91348      272.41494      0.49833796     0.03676391   
     30000   76.143421      250.73955      326.88298      299.35204     -2.5246349      0.03676391   
     40000   94.004572      246.53529      340.53986      294.33267     -1.78285        0.03676391   
     50000   86.199459      242.76525      328.96471      289.83171      2.9902582      0.03676391   
     60000   85.663795      251.10454      336.76834      299.7878      -1.2700244      0.03676391   
     70000   68.981391      258.65308      327.63447      308.79982      2.9584001      0.03676391   
     80000   62.575729      261.6252       324.20093      312.34816     -0.00043657676  0.03676391   
     90000   53.369994      249.7734       303.1434       298.19858      0.46772699     0.03676391   
    100000   59.085454      266.12134      325.20679      317.71599     -0.69575675     0.03676391   
    110000   29.727785      263.36065      293.08843      314.42007      0.37271873     0.03676391   
    120000   36.590564      258.42058      295.01114      308.52224      0.12093425     0.03676391   
    130000   40.473082      242.92719      283.40027      290.02504      1.0225517      0.03676391   
    140000   36.238852      259.64964      295.88849      309.98958      1.1731668      0.03676391   
    150000   20.905077      260.43293      281.33801      310.92473      0.30856102     0.03676391   
    160000   63.263418      246.33531      309.59873      294.09392     -1.1493663      0.03676391   
    170000   41.884177      229.76484      271.64902      274.31083      0.69870095     0.03676391   
    180000   60.589194      247.84791      308.43711      295.89978      1.1172041      0.03676391   
    190000   24.493299      243.09927      267.59257      290.23049     -3.9883674      0.03676391   
    200000   29.66664       243.43686      273.1035       290.63353      3.0458463      0.03676391   
    210000   25.655621      258.04868      283.70431      308.07824      1.3617247      0.03676391   
    220000   48.16476       254.9269       303.09166      304.35121     -0.85498891     0.03676391   
    230000   28.485689      260.56765      289.05334      311.08557     -1.950078       0.03676391   
    240000   40.227547      264.28679      304.51434      315.52577     -0.15336946     0.03676391   
    250000   19.436566      258.54117      277.97773      308.6662       5.6198661      0.03676391   
    260000   3.2722547      249.7407       253.01296      298.15954      0.84014934     0.03676391   
    270000   9.2199039      265.95411      275.17401      317.51634     -2.2131369      0.03676391   
    280000   23.164266      258.34559      281.50986      308.43271      2.6760881      0.03676391   
    290000   17.105579      264.20195      281.30753      315.42448     -0.51338872     0.03676391   
    300000   54.948573      253.73399      308.68256      302.92703     -0.50503056     0.03676391   
    310000   15.139284      247.57578      262.71506      295.57489      0.63406462     0.03676391   
    320000   33.39802       243.15951      276.55753      290.30241     -1.6423552      0.03676391   
    330000   16.038001      266.7295       282.7675       318.44207      0.86814316     0.03676391   
    340000   31.576367      248.07749      279.65386      296.17387     -0.1181829      0.03676391   
    350000   30.943511      243.8767       274.82021      291.15865     -2.1649801      0.03676391   
    360000   28.576088      246.16752      274.7436       293.8936      -0.35295698     0.03676391   
    370000   18.858204      249.9311       268.7893       298.38685      2.0250692      0.03676391   
    380000   25.727699      253.86573      279.59342      303.08431      4.1336885      0.03676391   
    390000   14.33105       257.67176      272.00281      307.62824      5.1016359      0.03676391   
    400000   13.541315      251.44982      264.99114      300.20002     -3.1490785      0.03676391   
    410000   31.123121      278.1495       309.27262      332.07613     -2.9335548      0.03676391   
    420000   28.047815      255.65777      283.70558      305.22378      2.8239568      0.03676391   
    430000   41.255227      247.80003      289.05525      295.84261     -0.85668148     0.03676391   
    440000   18.876368      248.62698      267.50335      296.8299       4.3429426      0.03676391   
    450000   8.709312       236.70553      245.41484      282.59715     -0.27589178     0.03676391   
    460000   7.5303435      249.26449      256.79483      297.591        2.9433445      0.03676391   
    470000   15.589827      237.54148      253.1313       283.59517     -2.6042399      0.03676391   
    480000   16.590018      255.77476      272.36478      305.36346      0.94520511     0.03676391   
    490000  -2.0361003      242.14669      240.11059      289.09322     -0.46566969     0.03676391   
    500000   33.897216      281.05603      314.95325      335.54617     -3.2599488      0.03676391   
    510000   46.130673      264.589        310.71967      315.88657      1.4479984      0.03676391   
    520000   18.460026      254.21048      272.67051      303.49591      0.27082873     0.03676391   
    530000   19.70987       263.8733       283.58317      315.03211     -2.873009       0.03676391   
    540000   10.492787      273.46535      283.95814      326.48384      2.1675415      0.03676391   
    550000   41.005628      235.7819       276.78752      281.49445      2.0752923      0.03676391   
    560000   11.445654      243.53743      254.98309      290.7536      -0.44279157     0.03676391   
    570000   3.9977433      254.92642      258.92416      304.35064     -1.2748776      0.03676391   
    580000   3.4749432      268.96253      272.43747      321.10802     -1.3049522      0.03676391   
    590000   15.487012      252.65853      268.14554      301.64307      1.4968807      0.03676391   
    600000   6.2822927      276.39418      282.67647      329.9805       3.2775139      0.03676391   
    610000   5.0860626      252.08122      257.16728      300.95382     -0.090358843    0.03676391   
    620000   49.803318      229.70987      279.51319      274.2452       2.1625803      0.03676391   
    630000   23.916542      256.21762      280.13416      305.89218      1.9634743      0.03676391   
    640000   36.434978      264.00835      300.44333      315.19335     -2.4271888      0.03676391   
    650000   49.563278      255.80428      305.36756      305.3987       0.56457364     0.03676391   
    660000   19.442403      233.24793      252.69033      278.4692       0.40429632     0.03676391   
    670000   26.933745      240.35219      267.28593      286.95081      1.1740962      0.03676391   
    680000   8.2718914      238.62359      246.89549      284.88709     -0.66802919     0.03676391   
    690000   24.407183      253.36341      277.77059      302.4846       2.5110737      0.03676391   
    700000   25.577833      235.74105      261.31888      281.44569     -1.4496134      0.03676391   
    710000   30.670552      248.64626      279.31681      296.85291      0.64026033     0.03676391   
    720000   30.505215      256.36679      286.87201      306.07027      0.055134122    0.03676391   
    730000   18.526198      254.92367      273.44987      304.34736      1.3497395      0.03676391   
    740000   42.068629      223.88382      265.95245      267.28962      0.194499       0.03676391   
    750000   14.293002      248.65466      262.94767      296.86294      1.3607138      0.03676391   
    760000   16.861934      257.95026      274.81219      307.96073      0.57343204     0.03676391   
    770000   31.395876      244.68925      276.08512      292.12873     -2.2597241      0.03676391   
    780000   31.00062       246.18328      277.1839       293.91241      0.0015584431   0.03676391   
    790000   41.421063      250.0474       291.46847      298.5257      -0.86591232     0.03676391   
    800000   46.377839      266.12362      312.50146      317.71872     -0.88270043     0.03676391   
    810000   24.876676      261.25698      286.13366      311.90855      5.648969       0.03676391   
    820000   36.803006      258.82744      295.63045      309.00799      1.8701342      0.03676391   
    830000   1.6703476      226.86785      228.5382       270.85218     -0.049288577    0.03676391   
    840000   2.9574417      231.82667      234.78411      276.77239      1.7391517      0.03676391   
    850000   17.328196      251.16924      268.49744      299.86504      1.2406845      0.03676391   
    860000   25.020505      247.97262      272.99313      296.04867     -3.2143544      0.03676391   
    870000   13.465911      249.97155      263.43746      298.43514      2.8387535      0.03676391   
    880000   10.751349      251.91596      262.66731      300.75653     -0.13853072     0.03676391   
    890000   22.115252      245.52244      267.63769      293.12345     -0.43525785     0.03676391   
    900000  -4.4263146      230.59291      226.16659      275.29944     -0.12360748     0.03676391   
    910000   3.2502054      246.77097      250.02118      294.61405      4.1760169      0.03676391   
    920000   23.625839      256.89715      280.52298      306.70345      0.94763813     0.03676391   
    930000   18.766569      258.6924       277.45897      308.84676      2.0110559      0.03676391   
    940000   28.381803      246.83911      275.22092      294.6954      -0.12237759     0.03676391   
    950000   15.951665      258.19546      274.14713      308.25347     -0.053228795    0.03676391   
    960000   12.894636      224.46071      237.35534      267.97835      2.3814716      0.03676391   
    970000   9.8626738      232.18033      242.043        277.19462      2.4677765      0.03676391   
    980000  -14.038809      247.55609      233.51728      295.55138      0.078930666    0.03676391   
    990000  -1.2057519      246.52271      245.31696      294.31765     -1.8040134      0.03676391   
   1000000   16.699113      246.05723      262.75634      293.76192      0.77768593     0.03676391   
   1010000   27.564769      258.6064       286.17117      308.74408      1.5288407      0.03676391   
   1020000   27.979465      232.30153      260.281        277.33933      2.6758198      0.03676391   
   1030000   24.445802      263.45893      287.90473      314.53741      0.83198577     0.03676391   
   1040000   20.940431      271.62416      292.56459      324.28568      3.7171253      0.03676391   
   1050000   23.950444      239.57788      263.52833      286.02639      0.43471258     0.03676391   
   1060000   21.843623      241.36871      263.21233      288.16442     -0.009087574    0.03676391   
   1070000   58.270543      252.26655      310.53709      301.17508     -1.5884051      0.03676391   
   1080000   55.47514       248.16379      303.63893      296.2769      -0.09996687     0.03676391   
   1090000   65.9058        235.00044      300.90624      280.56149     -0.03114781     0.03676391   
   1100000   50.438668      242.24299      292.68166      289.20819      0.046077311    0.03676391   
   1110000   45.370872      249.50519      294.87606      297.87836     -3.9813783      0.03676391   
   1120000   35.250466      221.94263      257.1931       264.97208      1.6262142      0.03676391   
   1130000   67.420552      254.73888      322.15943      304.12674      2.5026289      0.03676391   
   1140000   60.578653      253.73538      314.31403      302.92869      2.2704408      0.03676391   
   1150000   70.066283      251.62533      321.69161      300.40955      1.0639988      0.03676391   
   1160000   63.326514      266.69189      330.0184       318.39716     -0.64571395     0.03676391   
   1170000   66.614594      251.71184      318.32644      300.51284     -2.5693134      0.03676391   
   1180000   59.036159      231.11488      290.15104      275.92261     -1.2590056      0.03676391   
   1190000   60.198613      250.2605       310.45911      298.78011      1.0139702      0.03676391   
   1200000   55.243135      245.8293       301.07244      293.48981      1.7136822      0.03676391   
   1210000   58.950793      218.47777      277.42857      260.83547      2.72982        0.03676391   
   1220000   67.432326      236.56276      303.99509      282.42671      0.80243604     0.03676391   
   1230000   57.830487      227.55692      285.3874       271.67484      0.29600607     0.03676391   
   1240000   92.265628      278.39571      370.66133      332.37007     -0.066510361    0.03676391   
   1250000   60.065023      251.16974      311.23477      299.86564     -0.81468421     0.03676391   
   1260000   89.473413      243.14947      332.62288      290.29042     -0.33748025     0.03676391   
   1270000   52.195783      256.78644      308.98223      306.57128     -0.96900059     0.03676391   
   1280000   50.436736      239.62638      290.06311      286.08428     -1.26049        0.03676391   
   1290000   46.571508      248.91188      295.48339      297.17002      0.51409186     0.03676391   
   1300000   15.075414      252.02022      267.09564      300.881        1.957078       0.03676391   
   1310000   13.437285      261.69833      275.13562      312.43547      1.0227806      0.03676391   
   1320000   8.6060142      268.77282      277.37883      320.88153     -2.3225913      0.03676391   
   1330000   14.137738      251.72233      265.86007      300.52535      0.15755281     0.03676391   
   1340000   23.027835      272.07946      295.1073       324.82926      2.3802083      0.03676391   
   1350000   45.079736      256.85156      301.9313       306.64902      4.9441182      0.03676391   
   1360000   60.095943      241.43562      301.53156      288.2443      -2.844914       0.03676391   
   1370000   67.599555      256.82416      324.42371      306.61631     -0.04071258     0.03676391   
   1380000   41.687699      231.61624      273.30394      276.52117      2.9282558      0.03676391   
   1390000   54.610886      259.25333      313.86422      309.51644      0.76344066     0.03676391   
   1400000   44.850668      256.23607      301.08674      305.9142       1.5818511      0.03676391   
   1410000   47.208895      230.12526      277.33416      274.74113     -1.4511698      0.03676391   
   1420000   69.212258      256.65044      325.8627       306.40891     -2.2247673      0.03676391   
   1430000   33.376817      260.8428       294.21961      311.41407     -1.7486866      0.03676391   
   1440000   30.837945      235.79993      266.63787      281.51597     -3.4143972      0.03676391   
   1450000   30.416357      241.06851      271.48486      287.80601      0.30953957     0.03676391   
   1460000   20.469043      245.81803      266.28708      293.47636     -2.5704044      0.03676391   
   1470000   37.141749      242.72922      279.87097      289.7887      -0.21423291     0.03676391   
   1480000   33.829398      249.35241      283.18181      297.69597      0.66927821     0.03676391   
   1490000   34.479933      267.02082      301.50075      318.78986      1.6477509      0.03676391   
   1500000   41.296401      252.09133      293.38773      300.96589      0.043579323    0.03676391   
   1510000   64.956532      242.44389      307.40043      289.44805     -0.98959509     0.03676391   
   1520000   42.591866      270.50792      313.09979      322.95303     -0.54221448     0.03676391   
   1530000   53.179687      260.11871      313.29839      310.54959      1.2967408      0.03676391   
   1540000   48.912256      267.51828      316.43054      319.38377      1.2081937      0.03676391   
   1550000   39.801757      261.81812      301.61987      312.57848      0.51859918     0.03676391   
   1560000   36.18116       249.9639       286.14506      298.426        1.0312283      0.03676391   
   1570000   19.68174       263.62642      283.30816      314.73736      2.7871614      0.03676391   
   1580000   42.005865      256.16624      298.1721       305.83083     -0.75688805     0.03676391   
   1590000   41.153757      233.79904      274.95279      279.12716     -1.9925688      0.03676391   
   1600000   65.778967      244.81389      310.59286      292.27754     -0.92832574     0.03676391   
   1610000   65.857954      253.50538      319.36334      302.6541       1.4384463      0.03676391   
   1620000   53.827352      279.52004      333.34739      333.71239     -1.466662       0.03676391   
   1630000   46.111363      258.31804      304.4294       308.39982     -2.4584636      0.03676391   
   1640000   32.780722      225.50643      258.28715      269.22681     -1.1030795      0.03676391   
   1650000   59.205198      264.41693      323.62213      315.68114     -0.19925234     0.03676391   
   1660000   28.076101      284.33108      312.40718      339.45617      0.12339669     0.03676391   
   1670000   48.947707      240.5865       289.53421      287.23055      1.4633237      0.03676391   
   1680000   41.185968      239.74969      280.93565      286.2315      -1.7506968      0.03676391   
   1690000   55.129594      252.9022       308.03179      301.93397     -0.9824027      0.03676391   
   1700000   57.193491      236.39126      293.58475      282.22195     -0.33251755     0.03676391   
   1710000   51.175996      249.41246      300.58846      297.76766     -1.3445613      0.03676391   
   1720000   29.762192      257.1473       286.90949      307.00209      2.6822736      0.03676391   
   1730000   63.190917      255.449        318.63992      304.97454      1.6532134      0.03676391   
   1740000   30.443271      261.7745       292.21777      312.5264      -2.7509231      0.03676391   
   1750000   51.261776      274.06284      325.32462      327.19717     -0.37338193     0.03676391   
   1760000   43.319408      258.10444      301.42385      308.1448      -0.13241179     0.03676391   
   1770000   50.233894      239.46811      289.70201      285.89534      1.0771596      0.03676391   
   1780000   58.793752      243.99706      302.79081      291.30234     -1.4535524      0.03676391   
   1790000   25.743581      243.44035      269.18393      290.63769     -0.20822713     0.03676391   
   1800000   41.657454      243.84321      285.50067      291.11866     -3.2497296      0.03676391   
   1810000   34.730558      249.48398      284.21453      297.85304      2.2095694      0.03676391   
   1820000   28.98328       262.31409      291.29737      313.17061      2.0444911      0.03676391   
   1830000   43.624706      238.54321      282.16792      284.79112      0.8861016      0.03676391   
   1840000   14.263411      243.54945      257.81286      290.76795      3.8949301      0.03676391   
   1850000   14.294865      248.93212      263.22698      297.19419     -3.535315       0.03676391   
   1860000   35.621533      251.85771      287.47924      300.68698     -1.0232998      0.03676391   
   1870000   19.976381      246.71964      266.69603      294.55277      0.30933474     0.03676391   
   1880000   23.40079       282.84287      306.24366      337.67944     -3.8794246      0.03676391   
   1890000   25.183609      240.689        265.87261      287.35292     -0.37089275     0.03676391   
   1900000  -3.2068214      259.22821      256.02139      309.48645      3.2782303      0.03676391   
   1910000  -4.5289029      246.46561      241.93671      294.24948      1.8505558      0.03676391   
   1920000   44.642322      252.66355      297.30587      301.64905     -4.3397922      0.03676391   
   1930000   22.336451      253.22821      275.56466      302.32319     -3.6975229      0.03676391   
   1940000   8.9101335      266.76341      275.67354      318.48254     -0.76033855     0.03676391   
   1950000   25.837418      237.9932       263.83062      284.13448      1.9373657      0.03676391   
   1960000   60.244103      256.7025       316.94661      306.47107      1.1713241      0.03676391   
   1970000   32.441537      245.33382      277.77535      292.89826      0.40592125     0.03676391   
   1980000   10.225385      241.28107      251.50646      288.05979      0.68063636     0.03676391   
   1990000   36.115632      254.66066      290.77629      304.03336     -1.5147911      0.03676391   
   2000000   34.303239      251.40663      285.70987      300.14845      1.3326347      0.03676391   
   2010000   4.8671886      241.84146      246.70864      288.72881     -0.12727167     0.03676391   
   2020000   27.647046      243.10857      270.75562      290.2416       0.38044036     0.03676391   
   2030000   9.4712122      267.91841      277.38962      319.86147      1.3427385      0.03676391   
   2040000   14.592421      258.53265      273.12507      308.65604      0.18856251     0.03676391   
   2050000  -14.957051      256.5828       241.62575      306.32816     -0.15724669     0.03676391   
   2060000   11.577621      223.41551      234.99313      266.73051     -2.0674336      0.03676391   
   2070000   21.500645      238.51614      260.01679      284.7588       2.4317635      0.03676391   
   2080000   24.009781      253.38263      277.39241      302.50755     -2.4171403      0.03676391   
   2090000   29.475931      248.55123      278.02716      296.73945      3.9806013      0.03676391   
   2100000   20.316464      247.94889      268.26535      296.02034      0.49733528     0.03676391   
   2110000   14.986371      247.23079      262.21716      295.16301     -2.1857254      0.03676391   
   2120000   9.5428127      257.56912      267.11193      307.5057       3.6103622      0.03676391   
   2130000   7.4459992      240.87023      248.31623      287.5693       1.7577986      0.03676391   
   2140000  -5.1028772      270.6854       265.58252      323.16492      4.1944759      0.03676391   
   2150000   26.613519      255.26609      281.87961      304.75616     -2.4694634      0.03676391   
   2160000   30.670919      253.93705      284.60797      303.16946     -6.4790552      0.03676391   
   2170000   30.587858      240.90702      271.49488      287.61321      1.467608       0.03676391   
   2180000   25.691539      246.01298      271.70452      293.7091      -0.18397069     0.03676391   
   2190000   30.374057      254.42137      284.79543      303.74768      1.6829468      0.03676391   
   2200000   38.818288      250.93604      289.75432      299.58662      0.044018277    0.03676391   
   2210000   2.9790159      246.32462      249.30363      294.08115     -0.62087803     0.03676391   
   2220000   10.263965      240.29632      250.56029      286.88411     -0.56089411     0.03676391   
   2230000   41.915247      256.4498       298.36504      306.16937      1.8608944      0.03676391   
   2240000   31.751002      253.11986      284.87086      302.19384     -2.267832       0.03676391   
   2250000   20.354104      251.69226      272.04636      300.48945     -0.89288011     0.03676391   
   2260000   30.96557       274.23069      305.19626      327.39755      4.142716       0.03676391   
   2270000   34.194015      254.33699      288.53101      303.64694      1.8709013      0.03676391   
   2280000   7.5438652      265.78883      273.33269      317.31902     -1.9315989      0.03676391   
   2290000   16.130182      251.76919      267.89937      300.58131      0.53604046     0.03676391   
   2300000   29.241966      246.78759      276.02956      294.63389     -2.1636496      0.03676391   
   2310000   39.806635      261.7743       301.58094      312.52617      2.8114575      0.03676391   
   2320000   16.848579      267.18235      284.03093      318.98271      2.2265718      0.03676391   
   2330000   26.882544      239.9685       266.85105      286.49274     -2.2122224      0.03676391   
   2340000   49.704191      288.01607      337.72026      343.85559      4.7119994      0.03676391   
   2350000   40.876345      242.68604      283.56239      289.73715     -1.5680312      0.03676391   
   2360000   28.57762       239.12124      267.69886      285.48121      1.6334835      0.03676391   
   2370000   34.90171       295.31195      330.21366      352.56597      3.0721709      0.03676391   
   2380000   43.273838      247.44213      290.71596      295.41532      2.0317507      0.03676391   
   2390000   36.158642      227.25328      263.41192      271.31234     -2.6726013      0.03676391   
   2400000   20.008496      244.2133       264.2218       291.5605      -0.14751984     0.03676391   
   2410000   30.900022      252.63368      283.5337       301.61339     -1.9784097      0.03676391   
   2420000   43.428477      257.33358      300.76206      307.2245      -1.3205147      0.03676391   
   2430000   22.694125      264.38619      287.08031      315.64444      1.6828187      0.03676391   
   2440000   13.306562      264.19687      277.50343      315.41841     -3.4989503      0.03676391   
   2450000   23.076434      254.26906      277.3455       303.56584      1.5170808      0.03676391   
   2460000   25.165324      255.56323      280.72856      305.11092     -0.16060706     0.03676391   
   2470000   4.765719       247.12342      251.88913      295.03482      1.3117671      0.03676391   
   2480000   12.354444      233.77704      246.13148      279.10089     -1.1204559      0.03676391   
   2490000   14.514031      222.8004       237.31443      265.99614      0.43877545     0.03676391   
   2500000   43.609933      255.83577      299.4457       305.43629      4.0727612      0.03676391   
   2510000   33.85589       242.95245      276.80834      290.0552      -2.0433163      0.03676391   
   2520000   44.861115      272.87917      317.74029      325.78401      0.79264588     0.03676391   
   2530000   23.451603      251.56792      275.01952      300.34101      0.3811764      0.03676391   
   2540000   53.198177      280.53154      333.72972      334.91999     -1.1710608      0.03676391   
   2550000   47.701399      248.69427      296.39567      296.91023     -1.3825313      0.03676391   
   2560000   37.054613      261.21171      298.26633      311.85451     -2.7495037      0.03676391   
   2570000   43.170961      243.2646       286.43556      290.42787     -3.383078       0.03676391   
   2580000   48.50268       273.42645      321.92913      326.43739     -1.3065134      0.03676391   
   2590000   23.626903      249.32337      272.95027      297.6613      -4.2145635      0.03676391   
   2600000   64.029203      256.63295      320.66215      306.38803     -1.9966073      0.03676391   
   2610000   72.256035      240.09788      312.35392      286.6472       2.0183446      0.03676391   
   2620000   59.219154      241.55431      300.77347      288.386        1.955571       0.03676391   
   2630000   70.463009      252.79286      323.25587      301.80344      2.754346       0.03676391   
   2640000   76.517287      236.77741      313.2947       282.68297      3.3927981      0.03676391   
   2650000   53.527768      261.22841      314.75618      311.87445      1.0556457      0.03676391   
   2660000   39.399059      247.65219      287.05125      295.66611      4.0119266      0.03676391   
   2670000   60.083493      234.60595      294.68945      280.09052      2.3639179      0.03676391   
   2680000   55.237318      249.67462      304.91194      298.08064      2.4842394      0.03676391   
   2690000   63.231069      285.5103       348.74136      340.86401      2.0465598      0.03676391   
   2700000   50.861951      247.24522      298.10717      295.18023      2.1229087      0.03676391   
   2710000   50.338125      268.05255      318.39067      320.02162     -1.1442978      0.03676391   
   2720000   64.866213      236.23318      301.0994       282.03323      2.7604724      0.03676391   
   2730000   54.964687      263.7406       318.70529      314.87368     -0.032223092    0.03676391   
   2740000   27.613672      254.79694      282.41061      304.19606     -3.9247773      0.03676391   
   2750000   55.093546      223.67098      278.76452      267.03551      1.3029932      0.03676391   
   2760000   59.001422      246.78127      305.78269      294.62634      1.2676355      0.03676391   
   2770000   42.008495      236.61654      278.62503      282.49091     -0.91703879     0.03676391   
   2780000   20.903148      249.43377      270.33691      297.79309     -2.0874416      0.03676391   
   2790000   49.991877      248.30777      298.29964      296.44879      2.0820588      0.03676391   
   2800000   55.675963      252.3704       308.04636      301.29907      3.4438895      0.03676391   
   2810000   60.278424      252.47975      312.75817      301.42962      1.6803261      0.03676391   
   2820000   50.958867      259.17889      310.13775      309.42756      1.091199       0.03676391   
   2830000   54.75339       243.19255      297.94594      290.34185     -1.6637522      0.03676391   
   2840000   57.400705      235.84135      293.24205      281.56542      0.17492674     0.03676391   
   2850000   44.063529      259.47265      303.53618      309.77829     -0.033026334    0.03676391   
   2860000   61.057265      250.35882      311.41608      298.89749     -2.0681181      0.03676391   
   2870000   69.896769      250.63839      320.53515      299.23126     -0.48725033     0.03676391   
   2880000   59.603317      224.37716      283.98047      267.8786      -0.26138027     0.03676391   
   2890000   44.581922      248.008        292.58992      296.09091      2.0222677      0.03676391   
   2900000   44.553369      241.88914      286.44251      288.78575      0.04818963     0.03676391   
   2910000   57.778556      232.40521      290.18376      277.4631      -2.4018723      0.03676391   
   2920000   36.676973      245.22567      281.90264      292.76915      1.4797825      0.03676391   
   2930000   36.720169      267.98331      304.70348      319.93896      1.0866705      0.03676391   
   2940000   47.619699      262.1846       309.8043       313.01602     -1.7958828      0.03676391   
   2950000   50.053266      268.09159      318.14486      320.06823      0.60708124     0.03676391   
   2960000   56.253434      271.56577      327.81921      324.21598      0.18981478     0.03676391   
   2970000   40.940493      243.71577      284.65626      290.96651     -1.8946374      0.03676391   
   2980000   19.448225      250.97187      270.4201       299.6294      -1.3143769      0.03676391   
   2990000   2.5070521      254.27166      256.77871      303.56894      2.2209199      0.03676391   
   3000000   16.325935      255.8594       272.18534      305.46451      1.7557925      0.03676391   
   3010000   10.323514      248.32958      258.65309      296.47483     -4.9979206      0.03676391   
   3020000  -20.179457      236.2371       216.05764      282.03791     -1.2447912      0.03676391   
   3030000  -3.3664109      247.82208      244.45567      295.86894      4.1634601      0.03676391   
   3040000   0.060629938    233.04267      233.1033       278.22415      0.66338968     0.03676391   
   3050000  -3.194299       243.78702      240.59272      291.05157      2.4879737      0.03676391   
   3060000   17.701864      270.45895      288.16081      322.89456      1.3105879      0.03676391   
   3070000   14.127317      255.29397      269.42128      304.78945     -1.6822829      0.03676391   
   3080000   26.306918      261.33008      287.637        311.99583     -1.3633207      0.03676391   
   3090000   14.589767      241.69879      256.28856      288.55849      2.3278989      0.03676391   
   3100000   28.148125      235.78116      263.92929      281.49358      3.9684321      0.03676391   
   3110000   2.7266839      237.23373      239.96041      283.22776      1.2335539      0.03676391   
   3120000   4.1457922      245.27986      249.42566      292.83385     -0.57016846     0.03676391   
   3130000   7.0966812      269.53662      276.6333       321.79341      1.0594245      0.03676391   
   3140000   52.806698      246.3799       299.1866       294.14716      0.70061218     0.03676391   
   3150000   11.4462        231.1244       242.5706       275.93397      2.2294034      0.03676391   
   3160000  -3.5588117      263.91354      260.35473      315.08015     -4.0402701      0.03676391   
   3170000   18.89621       244.93483      263.83104      292.42192      3.0167182      0.03676391   
   3180000   11.021188      272.30281      283.324        325.0959      -0.15726475     0.03676391   
   3190000   7.7843321      258.87164      266.65597      309.06075     -1.9846509      0.03676391   
   3200000   32.682374      231.97215      264.65452      276.94608     -0.053447541    0.03676391   
   3210000   16.46705       232.50833      248.97538      277.58621     -0.85058076     0.03676391   
   3220000   31.252883      248.60589      279.85877      296.80471      0.41580941     0.03676391   
   3230000   9.7670348      246.88679      256.65383      294.75232     -0.51020756     0.03676391   
   3240000   26.098222      265.449        291.54722      316.9133       0.15430097     0.03676391   
   3250000  -0.44140055     241.2563       240.8149       288.03021      0.89017238     0.03676391   
   3260000  -0.58386416     229.30448      228.72061      273.76121     -0.019947839    0.03676391   
   3270000   36.408555      246.99005      283.39861      294.8756      -0.35951579     0.03676391   
   3280000   40.069609      244.76745      284.83706      292.22209     -2.2842899      0.03676391   
   3290000   19.39432       238.65743      258.05175      284.92748      1.0821114      0.03676391   
   3300000   18.711373      259.73458      278.44595      310.09099      1.659118       0.03676391   
   3310000   36.08707       262.41048      298.49755      313.28569      0.40705191     0.03676391   
   3320000   5.798126       255.9625       261.76063      305.58759     -0.78059004     0.03676391   
   3330000  -6.4692648      254.82197      248.35271      304.22595      1.2686932      0.03676391   
   3340000   46.274726      257.16182      303.43654      307.01943     -2.9010028      0.03676391   
   3350000   8.8430694      252.75231      261.59538      301.75503     -1.8139085      0.03676391   
   3360000   24.082268      262.11208      286.19434      312.92943     -0.34259837     0.03676391   
   3370000   34.346175      234.01077      268.35694      279.37994      1.6621725      0.03676391   
   3380000   29.002716      265.96723      294.96994      317.532        1.0803498      0.03676391   
   3390000   36.49497       237.65205      274.14702      283.72718      2.570078       0.03676391   
   3400000   25.958265      236.46393      262.42219      282.30871      3.4583585      0.03676391   
   3410000   33.775857      232.81844      266.5943       277.95645     -0.84315579     0.03676391   
   3420000   34.65183       251.29533      285.94716      300.01557      2.0124914      0.03676391   
   3430000   39.901659      241.44592      281.34757      288.25659     -0.097113106    0.03676391   
   3440000   36.051529      244.56608      280.61761      291.98168     -0.69102684     0.03676391   
   3450000   58.859535      245.87106      304.73059      293.53966     -0.61989192     0.03676391   
   3460000   32.330525      242.72916      275.05969      289.78862      0.2888441      0.03676391   
   3470000  -2.4703727      233.20325      230.73287      278.41586      2.9672354      0.03676391   
   3480000   15.017527      245.07013      260.08766      292.58345      1.0806279      0.03676391   
   3490000   27.657235      248.19664      275.85388      296.31612      3.132982       0.03676391   
   3500000   1.9728223      269.38578      271.35861      321.61334      2.6778021      0.03676391   
   3510000   6.2681953      246.83987      253.10807      294.69631      1.4521453      0.03676391   
   3520000   16.917883      243.64692      260.5648       290.88431     -1.2302242      0.03676391   
   3530000   25.378466      254.44704      279.8255       303.77832      1.4480015      0.03676391   
   3540000   7.8084519      253.07822      260.88667      302.14412      3.2325946      0.03676391   
   3550000   22.720565      231.9415       254.66206      276.90949      3.0544702      0.03676391   
   3560000   26.656426      234.22229      260.87872      279.63247      2.5492022      0.03676391   
   3570000   14.497835      260.77287      275.27071      311.33059     -2.1024392      0.03676391   
   3580000   45.508834      234.03031      279.53915      279.40327      0.60720133     0.03676391   
   3590000   7.4154894      271.88322      279.29871      324.59497      3.950901       0.03676391   
   3600000   43.156488      259.30339      302.45987      309.5762       3.7592731      0.03676391   
   3610000   20.803502      245.31328      266.11679      292.87375      0.1222394      0.03676391   
   3620000   36.702042      234.31757      271.01961      279.74622      2.6371017      0.03676391   
   3630000   15.568659      231.05873      246.62739      275.85557     -1.5420826      0.03676391   
   3640000   39.298166      252.79792      292.09609      301.80948      3.1557086      0.03676391   
   3650000   36.640178      245.23913      281.87931      292.78522     -0.34496764     0.03676391   
   3660000   74.118453      217.67493      291.79338      259.87696      3.3944811      0.03676391   
   3670000   51.31909       276.38937      327.70846      329.97475      2.281409       0.03676391   
   3680000   24.854831      263.39419      288.24902      314.46012      0.63170293     0.03676391   
   3690000   34.310772      245.88503      280.1958       293.55634      1.2674176      0.03676391   
   3700000   22.035782      242.86042      264.8962       289.94533      0.60537637     0.03676391   
   3710000   13.83253       272.37155      286.20408      325.17797     -0.57764283     0.03676391   
   3720000   5.731403       268.64207      274.37348      320.72544      0.95232618     0.03676391   
   3730000  -11.261026      275.60613      264.3451       329.03966      0.94048123     0.03676391   
   3740000   18.384002      245.39316      263.77716      292.96911     -1.7764         0.03676391   
   3750000   25.383909      228.04032      253.42423      272.25197     -0.25345124     0.03676391   
   3760000   24.175914      244.10465      268.28057      291.43079      0.36630367     0.03676391   
   3770000   27.77822       247.07068      274.8489       294.97186      0.35951592     0.03676391   
   3780000   27.093418      236.60035      263.69377      282.47158     -1.8295886      0.03676391   
   3790000   18.183919      245.49528      263.67919      293.09102      2.0276025      0.03676391   
   3800000  -13.65373       240.37796      226.72423      286.98158     -0.82135619     0.03676391   
   3810000   27.174538      243.46913      270.64367      290.67205     -0.40361829     0.03676391   
   3820000   16.482579      250.13096      266.61354      298.62546      1.5186639      0.03676391   
   3830000   22.467547      274.61102      297.07857      327.85163      1.1517396      0.03676391   
   3840000   2.8500217      243.19512      246.04514      290.34492      2.0889224      0.03676391   
   3850000  -4.7035475      268.51472      263.81117      320.57339     -1.2212212      0.03676391   
   3860000  -4.27248        261.35705      257.08457      312.02803      1.7387322      0.03676391   
   3870000  -10.320661      258.85011      248.52945      309.03504      0.65430776     0.03676391   
   3880000   12.354374      260.23688      272.59126      310.69068      0.68142318     0.03676391   
   3890000  -5.3159381      235.39514      230.0792       281.03271     -1.1305713      0.03676391   
   3900000  -3.6687274      248.17106      244.50234      296.28558      2.4277028      0.03676391   
   3910000   18.537303      239.96317      258.50047      286.48637      2.1753091      0.03676391   
   3920000   20.359058      256.10148      276.46053      305.75352      1.149849       0.03676391   
   3930000   5.1421081      251.56468      256.70679      300.33714     -1.3293244      0.03676391   
   3940000  -20.987708      262.87629      241.88859      313.84181      2.2248008      0.03676391   
   3950000  -17.83758       236.43358      218.596        282.27248     -1.7054795      0.03676391   
   3960000  -27.609181      249.43548      221.8263       297.79514     -0.97340679     0.03676391   
   3970000  -21.620804      259.36841      237.74761      309.65383     -2.7488315      0.03676391   
   3980000  -16.870634      224.16876      207.29813      267.6298       3.6987055      0.03676391   
   3990000  -9.2966066      254.46052      245.16391      303.79441     -1.6075316      0.03676391   
   4000000  -2.5418497      256.8379       254.29605      306.63271      1.1819558      0.03676391   
   4010000  -7.7785669      246.20967      238.43111      293.94393      3.2476672      0.03676391   
   4020000  -17.789356      251.2594       233.47005      299.97268      1.4872357      0.03676391   
   4030000  -32.39137       236.27502      203.88365      282.08317      0.9449817      0.03676391   
   4040000   8.7440732      272.72127      281.46535      325.5955      -0.80010148     0.03676391   
   4050000   11.790279      240.54566      252.33594      287.18179      1.7764984      0.03676391   
   4060000   22.656839      250.49259      273.14942      299.05719      0.39693652     0.03676391   
   4070000  -3.0199405      255.71971      252.69977      305.29774     -3.2784218      0.03676391   
   4080000  -11.962364      262.18694      250.22458      313.01881      0.022414826    0.03676391   
   4090000  -0.045416752    241.4411       241.39568      288.25084      3.8299401      0.03676391   
   4100000  -6.5460683      236.68799      230.14192      282.57621     -0.6711299      0.03676391   
   4110000   7.4387607      234.00338      241.44214      279.37112      4.378022       0.03676391   
   4120000   10.607898      245.76831      256.37621      293.417       -4.4367696      0.03676391   
   4130000   11.157962      269.48913      280.64709      321.73672      1.9695404      0.03676391   
   4140000   0.12114677     239.66338      239.78452      286.12846     -0.073457125    0.03676391   
   4150000  -13.362889      228.20225      214.83936      272.44529     -3.7785389      0.03676391   
   4160000   3.314167       247.2624       250.57656      295.20075     -0.3187215      0.03676391   
   4170000  -10.459039      263.30885      252.84981      314.35823      0.24113041     0.03676391   
   4180000  -11.25283       250.51172      239.25889      299.08004      3.5315319      0.03676391   
   4190000  -6.3298974      259.63844      253.30855      309.97622     -0.25052949     0.03676391   
   4200000  -19.891645      241.85739      221.96575      288.74784     -3.5639828      0.03676391   
   4210000   0.087942223    264.8505       264.93845      316.19877     -0.79165277     0.03676391   
   4220000  -22.279639      241.64263      219.36299      288.49144     -1.7025639      0.03676391   
   4230000  -8.6547479      250.07754      241.42279      298.56168     -0.9170131      0.03676391   
   4240000  -16.365548      254.59687      238.23132      303.9572      -0.70202919     0.03676391   
   4250000  -7.9353815      264.25301      256.31763      315.48544     -2.6259691      0.03676391   
   4260000   2.5630795      253.44349      256.00657      302.58021     -1.8102914      0.03676391   
   4270000  -5.1472209      234.71355      229.56633      280.21897      2.3619628      0.03676391   
   4280000  -1.5290782      264.79695      263.26787      316.13483      0.12615675     0.03676391   
   4290000   1.621706       244.25873      245.88044      291.61474     -0.33607051     0.03676391   
   4300000   1.6225784      256.83532      258.4579       306.62963     -2.7281079      0.03676391   
   4310000   28.399922      253.25715      281.65707      302.35774     -3.2211191      0.03676391   
   4320000  -20.020053      233.00631      212.98626      278.18074     -0.14059676     0.03676391   
   4330000  -5.0627345      261.15727      256.09453      311.7895      -0.75034781     0.03676391   
   4340000  -1.666575       240.23748      238.5709       286.81386      1.1008114      0.03676391   
   4350000  -12.542016      253.88827      241.34625      303.11122     -5.3930908      0.03676391   
   4360000   9.3662315      255.355        264.72124      304.86232      2.5285145      0.03676391   
   4370000   14.7187        242.95504      257.67374      290.05829      0.065104294    0.03676391   
   4380000   11.107636      258.18005      269.28769      308.23508      3.7025099      0.03676391   
   4390000   6.4400849      278.43791      284.87799      332.42045     -1.9450295      0.03676391   
   4400000   17.82441       235.25071      253.07512      280.86028     -2.6693856      0.03676391   
   4410000  -9.5685182      247.29377      237.72525      295.2382       1.8969103      0.03676391   
   4420000  -18.070083      259.62551      241.55543      309.96078      1.5595736      0.03676391   
   4430000  -23.496079      247.36326      223.86718      295.32117     -3.1922136      0.03676391   
   4440000   28.198417      247.40476      275.60317      295.37071     -2.3369081      0.03676391   
   4450000  -26.874591      243.47764      216.60305      290.68222     -0.40239446     0.03676391   
   4460000  -2.1795117      254.39639      252.21687      303.71785      1.5956244      0.03676391   
   4470000  -13.460942      259.81498      246.35404      310.18699     -1.2418925      0.03676391   
   4480000   8.773713       223.56303      232.33675      266.90664     -0.90035539     0.03676391   
   4490000   1.9205073      258.83824      260.75875      309.02087     -1.8344978      0.03676391   
   4500000  -24.667535      270.10836      245.44082      322.476        1.3009823      0.03676391   
   4510000   14.303681      265.59557      279.89925      317.08829      1.4419836      0.03676391   
   4520000  -16.070039      237.92116      221.85112      284.04847     -1.9716741      0.03676391   
   4530000   7.992876       254.06277      262.05564      303.31955     -2.3576573      0.03676391   
   4540000   3.221682       241.33753      244.55921      288.12719     -0.38843604     0.03676391   
   4550000   16.000478      229.62573      245.62621      274.14475      1.462019       0.03676391   
   4560000  -30.73496       254.63558      223.90062      304.00342      0.56669717     0.03676391   
   4570000   13.275899      254.1718       267.4477       303.44973      2.6180381      0.03676391   
   4580000   37.877475      258.42706      296.30454      308.52998     -2.2394732      0.03676391   
   4590000  -3.4888167      262.6952       259.20638      313.62561      1.9581124      0.03676391   
   4600000   9.5268035      258.74203      268.26883      308.90601     -0.95001086     0.03676391   
   4610000   32.378282      278.3037       310.68198      332.26022     -0.63307014     0.03676391   
   4620000   36.708603      260.36957      297.07817      310.84909      4.3276672      0.03676391   
   4630000   24.641651      257.26999      281.91164      307.14858     -0.28355752     0.03676391   
   4640000   44.549791      257.64556      302.19536      307.59697     -1.5810592      0.03676391   
   4650000   1.4877295      251.64537      253.1331       300.43347     -1.3187707      0.03676391   
   4660000   38.485037      255.04289      293.52793      304.48969     -1.1704545      0.03676391   
   4670000   16.168878      263.08056      279.24944      314.08568      3.5324062      0.03676391   
   4680000   17.364645      237.9399       255.30454      284.07084     -1.4823453      0.03676391   
   4690000  -5.8781149      241.18745      235.30934      287.94801     -1.4299445      0.03676391   
   4700000   2.3745837      239.5634       241.93798      286.0091      -1.4717991      0.03676391   
   4710000   13.68617       253.95731      267.64348      303.19365     -1.8935028      0.03676391   
   4720000   32.330608      252.57508      284.90568      301.54343     -0.23083095     0.03676391   
   4730000  -4.9368372      244.73788      239.80104      292.18678      1.7839439      0.03676391   
   4740000   0.46693792     223.87433      224.34127      267.27829      0.36874927     0.03676391   
   4750000  -1.7297154      239.87078      238.14106      286.37607      1.0154767      0.03676391   
   4760000   6.1391345      272.17245      278.31159      324.94028      1.8316785      0.03676391   
   4770000  -1.8325605      243.84344      242.01088      291.11893      0.1037907      0.03676391   
   4780000   18.518556      217.16798      235.68654      259.27174      0.051595618    0.03676391   
   4790000  -20.023062      259.40679      239.38373      309.69965      0.94534589     0.03676391   
   4800000  -15.499427      243.97936      228.47994      291.28121      0.97947767     0.03676391   
   4810000  -19.349937      264.58012      245.23018      315.87597     -0.57737264     0.03676391   
   4820000  -12.291504      231.86049      219.56899      276.81278      0.24880194     0.03676391   
   4830000  -17.710658      249.38775      231.67709      297.73815     -2.4510309      0.03676391   
   4840000  -10.134579      253.9942       243.85962      303.23769     -0.027960335    0.03676391   
   4850000   8.8383095      237.91563      246.75394      284.04186     -2.5031029      0.03676391   
   4860000  -9.3373492      279.10254      269.76519      333.21394      0.14257603     0.03676391   
   4870000  -17.918992      247.06392      229.14493      294.96379      0.46718748     0.03676391   
   4880000  -13.840593      252.53579      238.6952       301.49653      3.0034019      0.03676391   
   4890000  -14.129894      230.39835      216.26846      275.06716     -2.0046871      0.03676391   
   4900000  -27.445703      239.43784      211.99214      285.85919     -0.95018035     0.03676391   
   4910000  -14.065049      255.24517      241.18012      304.7312      -0.90185912     0.03676391   
   4920000  -6.13654        248.10414      241.9676       296.20569      3.00511        0.03676391   
   4930000   5.2525319      248.51231      253.76484      296.69299     -4.48255        0.03676391   
   4940000  -18.943335      257.95765      239.01431      307.96956     -1.1403086      0.03676391   
   4950000  -8.6898168      278.80133      270.11151      332.85434     -3.8246087      0.03676391   
   4960000  -23.225329      267.24444      244.01911      319.05683     -2.2122075      0.03676391   
   4970000  -20.262397      261.31316      241.05076      311.97562     -2.6745727      0.03676391   
   4980000  -38.430262      258.42791      219.99765      308.53099     -1.4594795      0.03676391   
   4990000  -39.331614      234.99324      195.66162      280.55288     -4.4281294      0.03676391   
   5000000  -23.346543      237.49047      214.14393      283.53427      1.0792814      0.03676391   
Loop time of 253.122 on 4 procs for 5000000 steps with 282 atoms

Performance: 17066.848 ns/day, 0.001 hours/ns, 19753.296 timesteps/s, 5.570 Matom-step/s
99.4% CPU use with 4 MPI tasks x 1 OpenMP threads

MPI task timing breakdown:
Section |  min time  |  avg time  |  max time  |%varavg| %total
---------------------------------------------------------------
Pair    | 118.58     | 127.21     | 147.73     | 105.6 | 50.26
Bond    | 13.932     | 14.473     | 15.31      |  13.7 |  5.72
Neigh   | 0.5804     | 0.58145    | 0.58242    |   0.1 |  0.23
Comm    | 79.563     | 101.42     | 110.76     | 126.0 | 40.07
Output  | 0.034171   | 0.04849    | 0.090505   |  11.0 |  0.02
Modify  | 7.1778     | 7.6581     | 8.2569     |  14.5 |  3.03
Other   |            | 1.736      |            |       |  0.69

Nlocal:           70.5 ave          95 max          48 min
Histogram: 1 0 0 0 2 0 0 0 0 1
Nghost:         257.25 ave         266 max         237 min
Histogram: 1 0 0 0 0 0 0 0 1 2
Neighs:          481.5 ave         712 max         279 min
Histogram: 1 0 1 0 0 1 0 0 0 1

Total # of neighbors = 1926
Ave neighs/atom = 6.8297872
Ave special neighs/atom = 4.893617
Neighbor list builds = 8338
Dangerous builds = 0

# ===============================
# 4. PRODUCTION
# ===============================
# Reset averages for production
unfix favg
fix favg all ave/time 10000 10 100000 v_vpe v_vke v_vT v_vE v_vRg     file outputs/thermo_${tag}_production.dat
fix favg all ave/time 10000 10 100000 v_vpe v_vke v_vT v_vE v_vRg     file outputs/thermo_25ASO_unmod_production.dat

restart 10000000 outputs/backup_${tag}.*.restart
restart 10000000 outputs/backup_25ASO_unmod.*.restart
run 100000000
Generated 0 of 6 mixed pair_coeff terms from geometric mixing rule
Per MPI rank memory allocation (min/avg/max) = 8.83 | 8.83 | 8.831 Mbytes
   Step         PotEng         KinEng         TotEng          Temp          Press         Density    
   5000000  -23.346543      237.49047      214.14393      283.53427      1.0792814      0.03676391   
   5010000  -26.901944      238.59858      211.69664      284.85722     -0.95960206     0.03676391   
   5020000  -27.87385       269.22881      241.35497      321.42594     -0.85318541     0.03676391   
   5030000  -15.422883      246.95115      231.52826      294.82915     -1.2422761      0.03676391   
   5040000  -48.804455      273.01056      224.20611      325.94088      3.1645808      0.03676391   
   5050000  -37.31241       270.19502      232.88261      322.57946      1.0555268      0.03676391   
   5060000  -44.918823      282.49967      237.58084      337.2697       0.53738674     0.03676391   
   5070000  -50.64494       245.73628      195.09134      293.37876     -4.6073709      0.03676391   
   5080000  -13.086365      240.37958      227.29321      286.98351     -1.036735       0.03676391   
   5090000  -15.998738      224.98766      208.98892      268.60747      1.404508       0.03676391   
   5100000  -12.558136      236.75076      224.19262      282.65115     -0.084641468    0.03676391   
   5110000  -17.376669      260.49042      243.11375      310.99338      5.3387882      0.03676391   
   5120000  -22.604326      267.56809      244.96377      319.44324      0.77237911     0.03676391   
   5130000  -39.537214      257.32474      217.78752      307.21394      2.1222806      0.03676391   
   5140000  -25.715515      259.33788      233.62236      309.61738      0.56081969     0.03676391   
   5150000  -24.874864      249.58483      224.70997      297.97344      0.68083309     0.03676391   
   5160000  -24.358147      256.07297      231.71482      305.71948     -0.84741118     0.03676391   
   5170000  -18.42017       260.87781      242.45764      311.45587     -2.1869843      0.03676391   
   5180000  -5.1346073      263.43252      258.29791      314.50587      0.89860783     0.03676391   
   5190000   4.1817292      262.18342      266.36515      313.01461     -0.5944922      0.03676391   
   5200000   8.9523119      261.37885      270.33116      312.05405     -5.1293576      0.03676391   
   5210000  -2.3665333      260.15255      257.78602      310.59         2.3828878      0.03676391   
   5220000  -42.248199      234.72968      192.48148      280.23823      2.2140829      0.03676391   
   5230000  -22.137621      219.88155      197.74393      262.5114      -2.4198753      0.03676391   
   5240000  -14.933809      246.21504      231.28124      293.95034     -0.40530876     0.03676391   
   5250000  -7.8105086      245.71927      237.90877      293.35845     -2.5143604      0.03676391   
   5260000  -15.182614      260.09925      244.91664      310.52637      1.563923       0.03676391   
   5270000  -13.112299      253.6138       240.5015       302.78354      1.6927713      0.03676391   
   5280000  -40.554339      238.19868      197.64434      284.37979      1.4264186      0.03676391   
   5290000  -24.361711      258.72918      234.36747      308.89067     -1.5425018      0.03676391   
   5300000  -6.4847006      233.13491      226.6502       278.33427     -4.6126927      0.03676391   
   5310000   16.23204       247.76833      264.00037      295.80477     -0.76180557     0.03676391   
   5320000   1.5127241      277.72896      279.24169      331.57406      3.7665642      0.03676391   
   5330000   6.7792375      237.02667      243.8059       282.98055     -0.62372859     0.03676391   
   5340000  -45.724322      260.55966      214.83534      311.07604      4.9694796      0.03676391   
   5350000  -16.894943      266.92363      250.02869      318.67383      1.3748837      0.03676391   
   5360000  -8.5416666      261.62186      253.0802       312.34418     -2.1164768      0.03676391   
   5370000  -7.5568482      256.08598      248.52913      305.73501      0.089351306    0.03676391   
   5380000  -21.201638      260.22955      239.02791      310.68192      0.46780176     0.03676391   
   5390000  -3.9860345      244.39932      240.41329      291.78259     -1.932896       0.03676391   
   5400000   6.8295875      245.78643      252.61602      293.43863     -0.23457086     0.03676391   
   5410000  -36.978613      223.32587      186.34726      266.62349     -1.9822388      0.03676391   
   5420000   9.3706597      265.26034      274.631        316.68807      1.0646095      0.03676391   
   5430000  -25.907561      228.12055      202.21298      272.34774     -2.6263893      0.03676391   
   5440000  -34.708096      237.81931      203.11121      283.92687      4.9747284      0.03676391   
   5450000  -51.4612        249.98806      198.52686      298.45486      0.11299892     0.03676391   
   5460000  -12.736947      248.9969       236.25995      297.27153     -0.47994288     0.03676391   
   5470000  -15.064738      239.70165      224.63691      286.17415      5.183279       0.03676391   
   5480000  -1.2488143      245.48983      244.24101      293.08452      3.7690179      0.03676391   
   5490000  -6.5256012      264.1658       257.6402       315.38132     -3.216203       0.03676391   
   5500000   26.386078      253.07017      279.45625      302.13452      0.48327256     0.03676391   
   5510000   55.552952      254.19587      309.74883      303.47846     -0.070150626    0.03676391   
   5520000   34.040459      244.62743      278.66789      292.05492     -1.5952023      0.03676391   
   5530000   39.006452      239.47772      278.48417      285.9068      -1.0769986      0.03676391   
   5540000   35.031791      244.88792      279.91972      292.36592      0.43763153     0.03676391   
   5550000   11.144748      257.7118       268.85655      307.67604      0.19748214     0.03676391   
   5560000   14.360303      257.71745      272.07775      307.68278      2.7403446      0.03676391   
   5570000   20.355025      258.76849      279.12351      308.9376       0.46553746     0.03676391   
   5580000   16.012618      256.34716      272.35978      306.04684      1.9477382      0.03676391   
   5590000   26.622297      266.24864      292.87093      317.86797      0.53990776     0.03676391   
   5600000   21.032031      244.36746      265.39949      291.74455     -1.0102325      0.03676391   
   5610000   8.4229409      281.38524      289.80818      335.93921      2.7941519      0.03676391   
   5620000   13.722488      253.70919      267.43168      302.89742      0.045128738    0.03676391   
   5630000   13.543375      252.21528      265.75866      301.11388      2.1208214      0.03676391   
   5640000   23.660334      255.5661       279.22643      305.11434     -0.089068275    0.03676391   
   5650000   51.711889      239.99264      291.70453      286.52156      2.368803       0.03676391   
   5660000   22.208182      258.95594      281.16412      309.1614      -4.8761863      0.03676391   
   5670000   17.813141      270.50707      288.32022      322.95202     -1.3669751      0.03676391   
   5680000  -7.6327992      263.93862      256.30582      315.1101      -4.3916886      0.03676391   
   5690000  -11.061299      255.68969      244.62839      305.26189     -2.2965097      0.03676391   
   5700000   25.532935      231.72006      257.25299      276.64512      3.1912971      0.03676391   
   5710000   33.207371      248.79327      282.00064      297.02842      1.1582699      0.03676391   
   5720000   4.4744269      256.3813       260.85572      306.08759      0.021948216    0.03676391   
   5730000   11.087403      227.58111      238.66851      271.70373      0.75332519     0.03676391   
   5740000   9.7001167      249.6662       259.36632      298.07059      1.7244668      0.03676391   
   5750000   9.3397322      245.84178      255.18151      293.5047      -0.0025304827   0.03676391   
   5760000  -8.8468753      255.58616      246.73928      305.13829      3.3579048      0.03676391   
   5770000   33.55771       257.82218      291.37989      307.80782      1.6244942      0.03676391   
   5780000  -7.5444718      251.40363      243.85916      300.14486     -0.19902083     0.03676391   
   5790000   6.6733435      227.18616      233.8595       271.2322       2.3991315      0.03676391   
   5800000  -0.68949574     252.46756      251.77806      301.41507     -0.059626851    0.03676391   
   5810000   10.366457      241.40543      251.77189      288.20825     -0.17959435     0.03676391   
   5820000   1.5221911      261.98229      263.50448      312.77448     -1.1442382      0.03676391   
   5830000  -0.76209586     260.24631      259.48422      310.70194      1.3971268      0.03676391   
   5840000   16.236824      245.21484      261.45167      292.75622     -3.6745602      0.03676391   
   5850000   11.032147      230.68752      241.71967      275.4124      -0.12607303     0.03676391   
   5860000   6.2646246      247.44004      253.70467      295.41283      3.378141       0.03676391   
   5870000   14.409213      250.01564      264.42485      298.48778      2.0500502      0.03676391   
   5880000  -26.768946      251.76714      224.99819      300.57885     -0.56610314     0.03676391   
   5890000  -8.3628328      251.91654      243.5537       300.75722     -0.21526575     0.03676391   
   5900000  -24.370465      252.36197      227.99151      301.28901      0.11438656     0.03676391   
   5910000  -21.72562       257.45079      235.72517      307.36444      1.3246838      0.03676391   
   5920000  -13.128951      274.62274      261.49379      327.86562      1.7693891      0.03676391   
   5930000  -12.961772      246.33153      233.36976      294.08941      3.165299       0.03676391   
   5940000  -8.2359248      248.59253      240.35661      296.78876      4.2378546      0.03676391   
   5950000   8.3607732      234.81386      243.17464      280.33874     -0.29642581     0.03676391   
   5960000  -22.775039      242.62395      219.84892      289.66302     -0.71122348     0.03676391   
   5970000   8.2867523      248.85242      257.13918      297.09904      0.91733758     0.03676391   
   5980000  -23.07347       236.04624      212.97277      281.81005      1.3859248      0.03676391   
   5990000   1.0101072      257.12746      258.13757      306.97841      0.4353631      0.03676391   
   6000000   9.0907325      239.3452       248.43593      285.74859      6.0471676      0.03676391   
   6010000   7.9920513      254.03444      262.02649      303.28573     -2.3990339      0.03676391   
   6020000  -17.47991       269.50798      252.02807      321.75923      2.2223219      0.03676391   
   6030000  -31.973399      240.3139       208.3405       286.9051       1.6348655      0.03676391   
   6040000  -3.4513929      258.26931      254.81792      308.34165      1.1755514      0.03676391   
   6050000  -19.090937      268.42222      249.33128      320.46296      1.6209009      0.03676391   
   6060000  -19.980426      257.37047      237.39004      307.26854      3.2697598      0.03676391   
   6070000  -11.413002      257.37741      245.96441      307.27682     -1.8025336      0.03676391   
   6080000  -27.130166      255.02197      227.89181      304.46472      1.4253467      0.03676391   
   6090000  -3.3766629      260.19939      256.82273      310.64592     -1.4150002      0.03676391   
   6100000  -11.154206      252.48053      241.32632      301.43055      6.6301425      0.03676391   
   6110000   0.25492071     247.19868      247.4536       295.12468      2.5233108      0.03676391   
   6120000   11.100188      261.00732      272.10751      311.61049     -3.9036358      0.03676391   
   6130000  -7.7611246      262.53403      254.7729       313.43319     -2.0491466      0.03676391   
   6140000  -11.707223      253.36974      241.66251      302.49216      0.48232348     0.03676391   
   6150000  -4.6721253      257.47059      252.79846      307.38807      4.253895       0.03676391   
   6160000  -15.432339      250.18442      234.75209      298.68929      4.3320752      0.03676391   
   6170000   3.454876       247.26109      250.71597      295.19919      1.5327509      0.03676391   
   6180000  -1.5219158      260.60942      259.08751      311.13545     -0.12590129     0.03676391   
   6190000  -10.808509      239.50719      228.69869      285.94199      0.62016396     0.03676391   
   6200000   11.030317      262.48531      273.51562      313.37502     -4.5947537      0.03676391   
   6210000   10.809375      274.57078      285.38015      327.80358      2.9137101      0.03676391   
   6220000  -9.7656554      252.72151      242.95585      301.71825     -1.2439462      0.03676391   
   6230000  -0.13661292     241.61558      241.47896      288.45914      1.7466687      0.03676391   
   6240000  -19.80425       262.0294       242.22515      312.83072      0.53352879     0.03676391   
   6250000   2.7465182      233.77409      236.52061      279.09738     -0.39878723     0.03676391   
   6260000  -28.23112       227.27292      199.0418       271.33579      1.4243206      0.03676391   
   6270000  -6.0130428      264.87753      258.86448      316.23104      2.1872119      0.03676391   
   6280000  -0.41124717     235.97001      235.55876      281.71903      3.5505876      0.03676391   
   6290000  -16.350849      238.4949       222.14405      284.73344      0.005883468    0.03676391   
   6300000  -10.910411      251.84975      240.93933      300.67747      1.7156159      0.03676391   
   6310000   16.165578      250.8081       266.97368      299.43388     -0.3025717      0.03676391   
   6320000   14.238529      267.48895      281.72748      319.34876      0.94992973     0.03676391   
   6330000   29.186647      265.58758      294.77423      317.07876     -0.61760568     0.03676391   
   6340000   10.826993      253.83985      264.66684      303.05342      1.0240826      0.03676391   
   6350000  -11.829652      252.30489      240.47524      301.22087     -2.2903055      0.03676391   
   6360000  -27.416836      257.22332      229.80649      307.09286     -1.9361012      0.03676391   
   6370000   18.019906      245.93754      263.95744      293.61903      6.6800015      0.03676391   
   6380000  -8.6462092      263.45567      254.80946      314.53351      0.68727949     0.03676391   
   6390000  -14.878719      252.65464      237.77592      301.63842      0.9956307      0.03676391   
   6400000  -12.907358      257.48015      244.5728       307.39949      2.9568261      0.03676391   
   6410000   0.42793434     242.17612      242.60405      289.12836     -2.8748484      0.03676391   
   6420000  -2.3453548      229.64296      227.2976       274.16532      0.48096531     0.03676391   
   6430000   10.552996      262.15118      272.70418      312.97612      1.6246049      0.03676391   
   6440000  -43.093575      263.19916      220.10559      314.22728      2.1247684      0.03676391   
   6450000  -12.13086       259.30028      247.16942      309.5725      -0.49122672     0.03676391   
   6460000  -4.7893678      248.9771       244.18774      297.2479       0.025444457    0.03676391   
   6470000  -3.4248112      261.38391      257.95909      312.06008     -2.4440764      0.03676391   
   6480000  -9.4853307      260.30957      250.82424      310.77747      1.1488144      0.03676391   
   6490000   24.984677      248.9827       273.96738      297.25458     -0.79219252     0.03676391   
   6500000   6.2302287      254.75216      260.98239      304.1426      -1.6856824      0.03676391   
   6510000   2.0439976      253.55192      255.59592      302.70966      1.3545319      0.03676391   
   6520000  -15.544666      236.06573      220.52106      281.83331     -2.4698158      0.03676391   
   6530000   35.090219      283.48106      318.57128      338.44136      1.7356596      0.03676391   
   6540000   8.6468999      262.47157      271.11847      313.35862      1.5883562      0.03676391   
   6550000   0.0065442084   256.80183      256.80837      306.58965      2.7975886      0.03676391   
   6560000   21.1363        255.97618      277.11248      305.60393     -6.1627996      0.03676391   
   6570000   29.141221      252.43762      281.57884      301.37932     -0.63824845     0.03676391   
   6580000   19.58139       236.49778      256.07917      282.34913     -2.124683       0.03676391   
   6590000   20.257017      268.70539      288.9624       320.80103     -5.3325686      0.03676391   
   6600000   38.519985      245.80936      284.32934      293.466       -2.331644       0.03676391   
   6610000   19.45165       258.35917      277.81082      308.44892      1.0905045      0.03676391   
   6620000   40.402023      279.70554      320.10757      333.93386     -2.586715       0.03676391   
   6630000   38.485079      274.04364      312.52872      327.17424      4.5244306      0.03676391   
   6640000   34.77257       252.17505      286.94762      301.06585      0.058191097    0.03676391   
   6650000   32.012133      253.26962      285.28175      302.37263      0.97052937     0.03676391   
   6660000   35.837225      234.25669      270.09391      279.67353      0.7619945      0.03676391   
   6670000   28.486579      257.71481      286.20139      307.67964     -1.6285213      0.03676391   
   6680000   18.49539       246.01912      264.51451      293.71642      2.4645911      0.03676391   
   6690000   23.520513      237.32329      260.8438       283.33468     -1.3447433      0.03676391   
   6700000   19.827676      253.23982      273.06749      302.33705      2.0232869      0.03676391   
   6710000   26.423385      237.85634      264.27973      283.97108      0.48665345     0.03676391   
   6720000   5.98523        245.77774      251.76297      293.42825      1.1689109      0.03676391   
   6730000   17.248583      265.89976      283.14834      317.45146      1.1095682      0.03676391   
   6740000  -8.5691548      242.26921      233.70005      289.2395      -0.030107522    0.03676391   
   6750000  -9.7931192      255.48705      245.69393      305.01997      1.9902515      0.03676391   
   6760000   27.842435      235.52518      263.36762      281.18796      1.0304307      0.03676391   
   6770000   0.30717664     257.41158      257.71876      307.31762     -0.32557341     0.03676391   
   6780000   22.667751      248.98265      271.6504       297.25452      1.6863027      0.03676391   
   6790000   10.917157      251.47571      262.39287      300.23092     -0.65006192     0.03676391   
   6800000   5.6283874      268.05041      273.6788       320.01907      2.4467154      0.03676391   
   6810000   9.6715921      277.47408      287.14568      331.26977      4.9873194      0.03676391   
   6820000   24.628531      239.91264      264.54117      286.42604      0.69479149     0.03676391   
   6830000   29.275694      267.13432      296.41002      318.92537      2.7656714      0.03676391   
   6840000   6.6376746      264.91636      271.55403      316.27739     -1.2940813      0.03676391   
   6850000  -2.8202702      261.44046      258.62019      312.1276      -3.3120603      0.03676391   
   6860000   24.543179      253.24304      277.78622      302.3409       3.0638562      0.03676391   
   6870000  -0.8054416      251.42306      250.61762      300.16807      3.5663249      0.03676391   
   6880000   9.6922346      239.70439      249.39662      286.17742     -2.9260233      0.03676391   
   6890000   16.981789      255.07183      272.05362      304.52425      0.53796674     0.03676391   
   6900000   17.400317      238.20181      255.60213      284.38353     -1.5844018      0.03676391   
   6910000   5.8144716      263.94143      269.7559       315.11345      2.4282793      0.03676391   
   6920000  -3.6790795      276.81         273.13092      330.47693     -1.1255633      0.03676391   
   6930000  -5.6788021      233.22755      227.54875      278.44488     -0.53430972     0.03676391   
   6940000  -2.7420712      247.79124      245.04917      295.83213     -1.4281079      0.03676391   
   6950000  -20.319657      251.90899      231.58933      300.7482       2.8399228      0.03676391   
   6960000   3.7342437      258.36198      262.09623      308.45228     -2.1975521      0.03676391   
   6970000  -17.344757      250.52231      233.17756      299.09269      2.1982822      0.03676391   
   6980000  -3.9881292      258.53286      254.54473      308.65629      1.4006641      0.03676391   
   6990000  -13.348722      247.85304      234.50432      295.90591      0.53446997     0.03676391   
   7000000  -22.365798      257.19023      234.82443      307.05335     -3.5045964      0.03676391   
   7010000   10.608845      255.73013      266.33897      305.31017      0.75041132     0.03676391   
[...]
 103190000   23.776599      253.67103      277.44763      302.85187      1.2846268      0.03676391   
 103200000   7.9668501      251.06893      259.03578      299.74528      0.12035641     0.03676391   
 103210000  -6.0746198      268.15556      262.08094      320.1446       1.3405476      0.03676391   
 103220000   24.145619      250.8589       275.00452      299.49453      1.1723026      0.03676391   
 103230000  -1.1819333      257.10643      255.9245       306.95331     -1.6040705      0.03676391   
 103240000   12.550776      243.43631      255.98709      290.63287      1.3961876      0.03676391   
 103250000   30.35525       273.66061      304.01586      326.71695      3.5386282      0.03676391   
 103260000   4.6363657      256.71455      261.35092      306.48545      2.9053849      0.03676391   
 103270000   19.210819      256.57238      275.7832       306.31571     -0.16106081     0.03676391   
 103280000   10.658863      237.84624      248.5051       283.95902      1.1681072      0.03676391   
 103290000   9.3055431      248.2234       257.52894      296.34807     -0.98774343     0.03676391   
 103300000   5.0019926      254.019        259.02099      303.2673      -3.2891037      0.03676391   
 103310000   27.334785      271.35206      298.68684      323.96082     -0.87570495     0.03676391   
 103320000   9.4588155      254.77788      264.23669      304.17331      1.03596        0.03676391   
 103330000   25.349106      241.3947       266.74381      288.19545     -1.9527174      0.03676391   
 103340000   31.196077      253.89575      285.09183      303.12015     -0.6925715      0.03676391   
 103350000   36.717416      268.46107      305.17848      320.50934      1.1510515      0.03676391   
 103360000   16.86034       254.60466      271.46501      303.96651     -1.8733881      0.03676391   
 103370000   33.911311      238.44314      272.35445      284.67165      1.9057003      0.03676391   
 103380000   41.048064      245.96417      287.01224      293.65083      0.10496968     0.03676391   
 103390000   15.133461      242.61022      257.74368      289.64662      0.76660536     0.03676391   
 103400000   26.67402       275.27334      301.94736      328.64235     -0.10263288     0.03676391   
 103410000   49.678545      251.39683      301.07537      300.13675      0.68975762     0.03676391   
 103420000   30.678735      270.62107      301.2998       323.08811      1.0734281      0.03676391   
 103430000   35.108646      259.44866      294.55731      309.74964     -0.30828928     0.03676391   
 103440000   39.627724      247.60233      287.23006      295.60659     -0.65121014     0.03676391   
 103450000   27.084761      267.89523      294.97999      319.8338       3.3308324      0.03676391   
 103460000   21.543858      237.12318      258.66704      283.09577      2.39051        0.03676391   
 103470000   33.68375       248.38831      282.07206      296.54495     -0.19194102     0.03676391   
 103480000   37.413736      247.17873      284.59247      295.10087     -0.54815516     0.03676391   
 103490000   50.229809      255.45856      305.68836      304.98595      1.2355741      0.03676391   
 103500000   47.451865      254.14129      301.59315      303.41329      2.0378277      0.03676391   
 103510000   31.789395      242.38789      274.17729      289.38119     -4.2316002      0.03676391   
 103520000   46.433051      251.14493      297.57798      299.83601     -3.8220917      0.03676391   
 103530000   38.703209      259.21107      297.91428      309.46599      0.3439658      0.03676391   
 103540000   15.30949       239.20575      254.51524      285.58211     -0.027571434    0.03676391   
 103550000   33.8598        253.87074      287.73054      303.09029     -0.032575853    0.03676391   
 103560000   29.643644      234.83885      264.48249      280.36857      2.4575354      0.03676391   
 103570000   43.204019      239.3208       282.52482      285.71946      2.2080354      0.03676391   
 103580000   37.67511       254.52672      292.20183      303.87346      0.011257561    0.03676391   
 103590000   37.477386      253.83574      291.31313      303.04851      2.5174972      0.03676391   
 103600000   35.976078      249.80809      285.78417      298.24        -3.7313079      0.03676391   
 103610000   42.295206      255.25216      297.54737      304.73954     -0.59790736     0.03676391   
 103620000   35.524926      250.00245      285.52737      298.47203     -3.2023704      0.03676391   
 103630000   36.601295      256.46733      293.06862      306.1903      -1.6179576      0.03676391   
 103640000   39.771804      261.01542      300.78722      311.62015      2.0501442      0.03676391   
 103650000   48.426354      250.91996      299.34632      299.56743     -0.27288006     0.03676391   
 103660000   35.51957       258.40052      293.92009      308.49829     -1.0942944      0.03676391   
 103670000   58.60309       242.85781      301.4609       289.94222     -2.5885474      0.03676391   
 103680000   50.732779      279.0949       329.82768      333.20482      0.71769918     0.03676391   
 103690000   52.157883      261.47893      313.63681      312.17353      0.20052833     0.03676391   
 103700000   29.709747      237.7195       267.42925      283.80771     -1.5309031      0.03676391   
 103710000   40.336466      243.77161      284.10808      291.03318     -3.1810805      0.03676391   
 103720000   9.177332       258.4922       267.66953      308.60774     -1.089819       0.03676391   
 103730000   5.9677717      265.48521      271.45298      316.95653      4.9161122      0.03676391   
 103740000   33.751166      251.28573      285.0369       300.00412      2.1160428      0.03676391   
 103750000   24.595881      253.0634       277.65928      302.12643      1.213439       0.03676391   
 103760000   34.950372      268.76817      303.71854      320.87599      0.70313362     0.03676391   
 103770000   38.225547      256.14975      294.3753       305.81115     -3.6356363      0.03676391   
 103780000   16.423364      238.28177      254.70514      284.47899      0.38126581     0.03676391   
 103790000   6.6800865      238.04201      244.7221       284.19275      1.933129       0.03676391   
 103800000   43.384851      235.55298      278.93783      281.22115      3.0987515      0.03676391   
 103810000   12.133903      265.71293      277.84683      317.2284      -3.2257587      0.03676391   
 103820000   14.923703      250.15528      265.07898      298.65449      2.0077155      0.03676391   
 103830000   34.706569      252.06339      286.76996      300.93254     -0.93961822     0.03676391   
 103840000   13.908736      259.92463      273.83337      310.31789      1.1015875      0.03676391   
 103850000   15.147633      254.13858      269.28621      303.41006      3.3214323      0.03676391   
 103860000   22.895936      258.05814      280.95408      308.08953     -1.0309027      0.03676391   
 103870000   33.002604      242.64527      275.64788      289.68847     -0.023102842    0.03676391   
 103880000   40.003942      267.32983      307.33378      319.15879      1.577595       0.03676391   
 103890000   32.691592      272.09713      304.78873      324.85035      0.22182964     0.03676391   
 103900000   45.586729      243.46224      289.04897      290.66383      0.86977925     0.03676391   
 103910000   68.035087      247.45598      315.49107      295.43186     -2.8433607      0.03676391   
 103920000   51.924871      252.99285      304.91772      302.0422       0.26115697     0.03676391   
 103930000   40.214512      253.68686      293.90137      302.87076     -2.3380305      0.03676391   
 103940000   34.949618      236.81216      271.76178      282.72446     -1.4965285      0.03676391   
 103950000   60.484119      220.58849      281.07261      263.3554      -1.2052746      0.03676391   
 103960000   40.277314      253.46771      293.74503      302.60913     -0.64547359     0.03676391   
 103970000   35.190954      258.8957       294.08666      309.08948      0.48230816     0.03676391   
 103980000   34.134436      269.72861      303.86305      322.02263      1.4139519      0.03676391   
 103990000   28.445133      282.46849      310.91363      337.23248      0.14313227     0.03676391   
 104000000   55.361761      236.13397      291.49573      281.91478     -2.3331238      0.03676391   
 104010000   48.048278      252.60315      300.65142      301.57694      0.68706786     0.03676391   
 104020000   26.498781      237.9984       264.49718      284.14068     -1.032259       0.03676391   
 104030000   46.817967      239.59207      286.41004      286.04333     -3.6807174      0.03676391   
 104040000   54.50714       244.64803      299.15517      292.07952     -1.6010114      0.03676391   
 104050000   31.428346      259.85574      291.28408      310.23564     -3.3515557      0.03676391   
 104060000   33.725503      237.25995      270.98545      283.25906      1.7175402      0.03676391   
 104070000   53.910116      252.68092      306.59103      301.66979      1.9870598      0.03676391   
 104080000   27.124507      251.60646      278.73097      300.38703      1.2867082      0.03676391   
 104090000   21.48667       265.52194      287.00861      317.00038     -0.52878068     0.03676391   
 104100000   49.802089      242.46843      292.27052      289.47735     -0.57974524     0.03676391   
 104110000   39.367232      261.45847      300.8257       312.14911      1.3303889      0.03676391   
 104120000   52.699789      241.303        294.00279      288.08596     -1.5014884      0.03676391   
 104130000   29.224837      250.88767      280.11251      299.52887     -0.94996626     0.03676391   
 104140000   35.168054      237.15274      272.3208       283.13107     -0.19413428     0.03676391   
 104150000   60.300915      239.40981      299.71073      285.82573     -0.95941255     0.03676391   
 104160000   40.324144      250.96644      291.29058      299.62291      1.2470421      0.03676391   
 104170000   42.777247      237.64075      280.418        283.71369      2.7029943      0.03676391   
 104180000   64.090317      243.39393      307.48425      290.58228      0.013533098    0.03676391   
 104190000   70.344366      239.92368      310.26805      286.43923     -3.5365428      0.03676391   
 104200000   36.945011      247.90931      284.85432      295.97308     -1.3208778      0.03676391   
 104210000   36.162511      256.7635       292.92601      306.54389      0.28113988     0.03676391   
 104220000   43.810221      289.56716      333.37739      345.70741     -2.0095778      0.03676391   
 104230000   27.266173      264.59578      291.86196      315.89467     -5.8490547      0.03676391   
 104240000   19.898278      251.64044      271.53872      300.42759      4.1942534      0.03676391   
 104250000   13.473186      271.7706       285.24379      324.46051     -0.25219294     0.03676391   
 104260000   24.886053      254.22152      279.10757      303.50907      2.7846014      0.03676391   
 104270000   6.3086384      250.91996      257.2286       299.56743      1.2880548      0.03676391   
 104280000   6.0209792      252.29158      258.31256      301.20497      0.046317065    0.03676391   
 104290000   17.888259      257.99783      275.88609      308.01753      1.1363139      0.03676391   
 104300000   26.632586      232.88361      259.5162       278.03425      1.1663936      0.03676391   
 104310000   11.13424       237.86367      248.99791      283.97983      2.8835752      0.03676391   
 104320000  -9.1374356      262.59197      253.45454      313.50237      0.12237954     0.03676391   
 104330000   13.639269      239.68096      253.32023      286.14945      2.2376262      0.03676391   
 104340000   21.005038      232.40304      253.40807      277.46051      1.5952875      0.03676391   
 104350000   47.81371       240.75387      288.56758      287.43037      0.55846497     0.03676391   
 104360000   10.829504      245.86157      256.69107      293.52833     -2.5994576      0.03676391   
 104370000   18.465404      239.88533      258.35073      286.39344      0.3045855      0.03676391   
 104380000  -2.7816261      235.94159      233.15996      281.6851       0.78944335     0.03676391   
 104390000   35.246         248.89292      284.13892      297.14739     -2.3372255      0.03676391   
 104400000   27.268252      255.59463      282.86289      305.14841      1.9641661      0.03676391   
 104410000   13.434742      250.43101      263.86575      298.98368     -1.6841913      0.03676391   
 104420000   10.75591       247.04965      257.80556      294.94675      1.3598972      0.03676391   
 104430000   14.112594      274.63788      288.75047      327.88369      2.9749665      0.03676391   
 104440000   30.884405      266.84163      297.72603      318.57593      0.3707568      0.03676391   
 104450000   34.299822      258.2777       292.57752      308.35166      2.4434435      0.03676391   
 104460000   37.652978      234.08743      271.7404       279.47146      0.67055449     0.03676391   
 104470000   23.760146      247.87921      271.63936      295.93715      2.3667384      0.03676391   
 104480000   11.959071      230.92083      242.8799       275.69093      1.8373394      0.03676391   
 104490000   20.983284      250.41621      271.3995       298.96601      3.6708575      0.03676391   
 104500000   25.589681      253.67807      279.26775      302.86027      3.2923347      0.03676391   
 104510000   23.391654      264.56086      287.95252      315.85298      0.80411662     0.03676391   
 104520000   8.0937384      231.49424      239.58798      276.37552     -0.41342593     0.03676391   
 104530000   28.080083      246.17461      274.25469      293.90206     -0.062379519    0.03676391   
 104540000   23.207516      243.76207      266.96959      291.02179     -0.43737716     0.03676391   
 104550000   37.307851      230.28919      267.59705      274.93684     -1.9210281      0.03676391   
 104560000   25.841789      247.94461      273.7864       296.01523      4.3754267      0.03676391   
 104570000   36.407721      243.21151      279.61923      290.36449     -1.53745        0.03676391   
 104580000   12.36805       248.32613      260.69418      296.47071     -0.16686465     0.03676391   
 104590000   25.185378      245.8216       271.00698      293.48061      0.20304292     0.03676391   
 104600000   16.625778      233.67973      250.30551      278.98472     -0.89943129     0.03676391   
 104610000   10.206263      253.87926      264.08553      303.10047      6.0251572      0.03676391   
 104620000   25.208801      270.66011      295.86891      323.13472      1.6791529      0.03676391   
 104630000   44.341082      262.09612      306.4372       312.91037      1.2223649      0.03676391   
 104640000   6.7605903      263.43204      270.19263      314.50531     -1.8237225      0.03676391   
 104650000   3.203765       257.39019      260.59396      307.29208     -0.7547502      0.03676391   
 104660000   37.01655       247.10967      284.12622      295.01841     -0.2767487      0.03676391   
 104670000  -3.1707533      233.14358      229.97283      278.34463      0.020756816    0.03676391   
 104680000   34.40827       250.36991      284.77818      298.91073      0.67127566     0.03676391   
 104690000   52.905284      253.86751      306.77279      303.08644     -0.86282214     0.03676391   
 104700000   27.140671      261.71595      288.85662      312.4565       1.4930506      0.03676391   
 104710000   49.994263      256.24087      306.23514      305.91994     -0.75556173     0.03676391   
 104720000   30.296941      279.85804      310.15498      334.11592      3.3648887      0.03676391   
 104730000  -2.1348568      244.2791       242.14424      291.63906     -2.3442386      0.03676391   
 104740000   7.3158356      265.04184      272.35767      316.4272      -0.26553623     0.03676391   
 104750000   19.119889      249.7007       268.82059      298.11178      1.8500791      0.03676391   
 104760000   16.587178      251.76949      268.35667      300.58166     -0.58297119     0.03676391   
 104770000   8.4626573      256.50023      264.96289      306.22958     -2.9126969      0.03676391   
 104780000  -15.542584      265.61137      250.06879      317.10715     -1.0295113      0.03676391   
 104790000   3.7220016      235.72624      239.44824      281.428       -3.1419558      0.03676391   
 104800000   28.837385      254.16361      283.00099      303.43994     -1.1978726      0.03676391   
 104810000   53.948107      250.64975      304.59786      299.24483      0.9714447      0.03676391   
 104820000   6.9087523      251.36974      258.27849      300.1044       2.5166052      0.03676391   
 104830000   42.223778      249.77712      292.0009       298.20302     -1.6720974      0.03676391   
 104840000   50.049477      255.2739       305.32338      304.7655      -1.0940516      0.03676391   
 104850000   33.773136      247.78898      281.56211      295.82942     -1.1727187      0.03676391   
 104860000   14.385583      250.21397      264.59955      298.72456      1.1732635      0.03676391   
 104870000   14.017345      239.30623      253.32357      285.70206     -1.3203346      0.03676391   
 104880000   33.959833      236.75589      270.71572      282.65728      0.38788709     0.03676391   
 104890000   13.899839      264.5384       278.43824      315.82617      2.5220198      0.03676391   
 104900000   7.6836583      239.74969      247.43335      286.23151     -1.1507847      0.03676391   
 104910000   11.296651      230.31512      241.61178      274.9678       0.069376539    0.03676391   
 104920000  -1.8392492      278.1668       276.32755      332.09679     -0.47758757     0.03676391   
 104930000  -13.469412      257.44065      243.97124      307.35233     -1.2596714      0.03676391   
 104940000  -14.872501      251.36208      236.48958      300.09526      2.383532       0.03676391   
 104950000   1.7526668      251.99649      253.74915      300.85267      0.2538359      0.03676391   
 104960000  -5.7705133      246.18945      240.41894      293.91979      2.2125066      0.03676391   
 104970000   21.404514      259.34071      280.74522      309.62076     -0.31218306     0.03676391   
 104980000  -3.4997495      260.96752      257.46777      311.56297     -1.0745702      0.03676391   
 104990000   17.657982      253.74499      271.40298      302.94017     -1.4330621      0.03676391   
 105000000   25.87695       261.26631      287.14326      311.91969      0.5217685      0.03676391   
Loop time of 6901.13 on 4 procs for 100000000 steps with 282 atoms

Performance: 12519.690 ns/day, 0.002 hours/ns, 14490.382 timesteps/s, 4.086 Matom-step/s
99.5% CPU use with 4 MPI tasks x 1 OpenMP threads

MPI task timing breakdown:
Section |  min time  |  avg time  |  max time  |%varavg| %total
---------------------------------------------------------------
Pair    | 2969.3     | 3025.3     | 3106.3     | 106.1 | 43.84
Bond    | 284.78     | 294.88     | 309.43     |  52.7 |  4.27
Neigh   | 13.652     | 13.682     | 13.71      |   0.6 |  0.20
Comm    | 3283.5     | 3370.1     | 3439       | 103.8 | 48.83
Output  | 0.93651    | 1.4775     | 3.0836     |  76.3 |  0.02
Modify  | 150.96     | 154.26     | 161.75     |  35.0 |  2.24
Other   |            | 41.42      |            |       |  0.60

Nlocal:           70.5 ave         124 max          49 min
Histogram: 2 1 0 0 0 0 0 0 0 1
Nghost:         251.75 ave         291 max         210 min
Histogram: 1 0 0 0 0 2 0 0 0 1
Neighs:         433.75 ave        1013 max         206 min
Histogram: 2 1 0 0 0 0 0 0 0 1

Total # of neighbors = 1735
Ave neighs/atom = 6.1524823
Ave special neighs/atom = 4.893617
Neighbor list builds = 165901
Dangerous builds = 0

write_data outputs/${tag}_final.data
write_data outputs/25ASO_unmod_final.data
System init for write_data ...
Generated 0 of 6 mixed pair_coeff terms from geometric mixing rule
Total wall time: 1:59:14
