
# ===============================
# FORCE FIELD (same as original)
# ===============================
bond_style harmonic
bond_coeff 1 7.5 5.9

angle_style harmonic
angle_coeff 1 5.0 150.0

pair_style hybrid/overlay lj/cut 10.0 base/rna 18.0
pair_modify shift yes
pair_coeff * * lj/cut 2.0 8.9089871814

pair_coeff 1 1 base/rna 0.00000 3.0 13.8 1.5 0.5 1.8326 0.9425 1.8326 1.1345
pair_coeff 1 2 base/rna 0.00000 3.0 13.8 1.5 0.5 1.8326 0.9425 1.8326 1.1345
pair_coeff 1 3 base/rna 0.00000 3.0 13.8 1.5 0.5 1.8326 0.9425 1.8326 1.1345
pair_coeff 1 4 base/rna 3.33333 3.0 13.8 1.5 0.5 1.8326 0.9425 1.8326 1.1345
pair_coeff 2 2 base/rna 0.00000 3.0 13.8 1.5 0.5 1.8326 0.9425 1.8326 1.1345
pair_coeff 2 3 base/rna 5.00000 3.0 13.8 1.5 0.5 1.8326 0.9425 1.8326 1.1345
pair_coeff 2 4 base/rna 0.00000 3.0 13.8 1.5 0.5 1.8326 0.9425 1.8326 1.1345
pair_coeff 3 3 base/rna 0.00000 3.0 13.8 1.5 0.5 1.8326 0.9425 1.8326 1.1345
pair_coeff 3 4 base/rna 3.33333 3.0 13.8 1.5 0.5 1.8326 0.9425 1.8326 1.1345
pair_coeff 4 4 base/rna 0.00000 3.0 13.8 1.5 0.5 1.8326 0.9425 1.8326 1.1345

special_bonds lj 0.0 0.0 1.0
Finding 1-2 1-3 1-4 neighbors ...
  special bond factors lj:    0        0        1       
  special bond factors coul:  0        0        0       
     2 = max # of 1-2 neighbors
     2 = max # of 1-3 neighbors
     4 = max # of 1-4 neighbors
     6 = max # of special neighbors
  special bonds CPU = 0.000 seconds
neighbor 15.0 bin
neigh_modify every 10 delay 0
comm_style tiled
timestep 10

# ===============================
# 1. MINIMIZATION
# ===============================
minimize 1.0e-4 1.0e-6 1000 10000

CITE-CITE-CITE-CITE-CITE-CITE-CITE-CITE-CITE-CITE-CITE-CITE-CITE

Your simulation uses code contributions which should be cited:

- Type Label Framework: https://doi.org/10.1021/acs.jpcb.3c08419

@Article{Gissinger24,
 author = {Jacob R. Gissinger, Ilia Nikiforov, Yaser Afshar, Brendon Waters, Moon-ki Choi, Daniel S. Karls, Alexander Stukowski, Wonpil Im, Hendrik Heinz, Axel Kohlmeyer, and Ellad B. Tadmor},
 title = {Type Label Framework for Bonded Force Fields in LAMMPS},
 journal = {J. Phys. Chem. B},
 year =    2024,
 volume =  128,
 number =  13,
 pages =   {3282–-3297}
}

CITE-CITE-CITE-CITE-CITE-CITE-CITE-CITE-CITE-CITE-CITE-CITE-CITE

Switching to 'neigh_modify every 1 delay 0 check yes' setting during minimization
Generated 0 of 6 mixed pair_coeff terms from geometric mixing rule
Neighbor list info ...
  update: every = 1 steps, delay = 0 steps, check = yes
  max neighbors/atom: 2000, page size: 100000
  master list distance cutoff = 33
  ghost atom cutoff = 33
  binsize = 16.5, bins = 10 10 10
  2 neighbor lists, perpetual/occasional/extra = 2 0 0
  (1) pair lj/cut, perpetual, trim from (2)
      attributes: half, newton on, cut 25
      pair build: trim
      stencil: none
      bin: none
  (2) pair base/rna, perpetual
      attributes: half, newton on
      pair build: half/bin/newton
      stencil: half/bin/3d
      bin: standard
Per MPI rank memory allocation (min/avg/max) = 8.417 | 8.417 | 8.417 Mbytes
   Step          Temp          E_pair         E_mol          TotEng         Press     
         0   0              4.9634469e+10  1533.8524      4.963447e+10   3.3236138e+09
      1000   0             -314.88906      11.741992     -303.14707     -0.20645692   
Loop time of 0.245639 on 4 procs for 1000 steps with 732 atoms

98.8% CPU use with 4 MPI tasks x 1 OpenMP threads

Minimization stats:
  Stopping criterion = max iterations
  Energy initial, next-to-last, final = 
      49634470343.9536  -302.912975153112  -303.147071045269
  Force two-norm initial, final = 6.179393e+11 3.2770515
  Force max component initial, final = 3.5814429e+11 1.4561736
  Final line search alpha, max atom move = 0.042359001 0.061682059
  Iterations, force evaluations = 1000 1513

MPI task timing breakdown:
Section |  min time  |  avg time  |  max time  |%varavg| %total
---------------------------------------------------------------
Pair    | 0.16728    | 0.1727     | 0.18663    |   1.9 | 70.31
Bond    | 0.017456   | 0.020178   | 0.022553   |   1.3 |  8.21
Neigh   | 0.0015599  | 0.0015654  | 0.0015705  |   0.0 |  0.64
Comm    | 0.028203   | 0.039667   | 0.04539    |   3.4 | 16.15
Output  | 2.5208e-05 | 2.57e-05   | 2.6203e-05 |   0.0 |  0.01
Modify  | 0          | 0          | 0          |   0.0 |  0.00
Other   |            | 0.0115     |            |       |  4.68

Nlocal:            183 ave         198 max         167 min
Histogram: 1 0 0 0 1 0 1 0 0 1
Nghost:          598.5 ave         637 max         571 min
Histogram: 1 0 1 1 0 0 0 0 0 1
Neighs:        1256.75 ave        1337 max        1171 min
Histogram: 1 0 0 1 0 0 0 1 0 1

Total # of neighbors = 5027
Ave neighs/atom = 6.8674863
Ave special neighs/atom = 4.3442623
Neighbor list builds = 5
Dangerous builds = 0
reset_timestep 0

# ===============================
# 2. OUTPUTS
# ===============================
dump d1 all custom 50000 outputs/${tag}.lammpstrj id mol type q xu yu zu
dump d1 all custom 50000 outputs/100ASO_truncated_unmodified.lammpstrj id mol type q xu yu zu
dump_modify d1 sort id

thermo_style custom step pe ke etotal temp press density
thermo 10000
thermo_modify flush yes

variable vpe equal pe
variable vke equal ke
variable vT  equal temp
variable vE  equal etotal
variable vRg equal gyration(all)

fix favg all ave/time 10000 10 100000 v_vpe v_vke v_vT v_vE v_vRg     file outputs/thermo_${tag}_averaged.dat
fix favg all ave/time 10000 10 100000 v_vpe v_vke v_vT v_vE v_vRg     file outputs/thermo_100ASO_truncated_unmodified_averaged.dat

# ===============================
# 3. EQUILIBRATION (NVT)
# ===============================
velocity all create ${T_target} 12050 rot yes dist gaussian
velocity all create 300 12050 rot yes dist gaussian

# Langevin thermostat for equilibration
fix fxlang all langevin ${T_target} ${T_target} 1000.0 41544
fix fxlang all langevin 300 ${T_target} 1000.0 41544
fix fxlang all langevin 300 300 1000.0 41544
fix fxnve  all nve
fix recenter all momentum 1000 linear 1 1 1

# Equilibration run
run 5000000
Generated 0 of 6 mixed pair_coeff terms from geometric mixing rule
Per MPI rank memory allocation (min/avg/max) = 7.307 | 7.307 | 7.308 Mbytes
   Step         PotEng         KinEng         TotEng          Temp          Press         Density    
         0  -303.14707      653.69164      350.54457      300            7.0888881      0.0973375    
     10000   154.93302      674.10104      829.03406      309.36652      0.76191392     0.0973375    
     20000   165.2956       669.40902      834.70463      307.21321      4.7538161      0.0973375    
     30000   88.130656      654.44029      742.57094      300.34358     -0.35526641     0.0973375    
     40000   47.681423      656.78298      704.46441      301.41871      3.2431417      0.0973375    
     50000   46.168898      691.1928       737.36169      317.21048     -5.8396464      0.0973375    
     60000   18.523799      644.75277      663.27657      295.89766      0.61804021     0.0973375    
     70000  -36.748171      698.5557       661.80753      320.58955      1.5504423      0.0973375    
     80000  -59.520106      667.54188      608.02177      306.35631     -2.8375129      0.0973375    
     90000  -74.833224      666.34783      591.51461      305.80833      2.3674484      0.0973375    
    100000  -71.926277      656.01318      584.0869       301.06543      2.1083525      0.0973375    
    110000  -61.72091       650.84178      589.12087      298.69211     -0.64154754     0.0973375    
    120000   27.705587      650.98404      678.68963      298.7574      -1.3781772      0.0973375    
    130000  -26.523635      674.67438      648.15074      309.62965     -3.8296105      0.0973375    
    140000  -76.170811      680.93806      604.76725      312.50425      2.8336702      0.0973375    
    150000  -51.736321      653.51806      601.78173      299.92033     -1.4044244      0.0973375    
    160000  -41.834889      635.91577      594.08088      291.84208      6.6134446      0.0973375    
    170000  -21.547634      657.90347      636.35584      301.93294     -0.073897702    0.0973375    
    180000  -16.198321      686.85549      670.65717      315.21995     -2.8625037      0.0973375    
    190000  -37.165635      641.60458      604.43894      294.45286      2.5383175      0.0973375    
    200000  -47.808899      689.0814       641.2725       316.24149      1.2656301      0.0973375    
    210000  -60.233263      634.54527      574.31201      291.21312     -3.7332935      0.0973375    
    220000  -64.773716      668.96797      604.19425      307.01079      8.6668871      0.0973375    
    230000  -50.311607      663.16415      612.85254      304.34723      1.0984322      0.0973375    
    240000  -84.767619      637.45024      552.68262      292.5463       0.83403638     0.0973375    
    250000  -96.191822      612.78659      516.59477      281.22736     -1.3258253      0.0973375    
    260000  -74.208854      647.72892      573.52007      297.26352     -3.0610192      0.0973375    
    270000  -119.51403      650.58946      531.07543      298.57631      2.9493911      0.0973375    
    280000  -63.698303      655.07062      591.37231      300.63285      0.97410232     0.0973375    
    290000  -66.355828      665.97481      599.61898      305.63714     -0.71237545     0.0973375    
    300000  -61.74014       671.12132      609.38118      307.99903     -0.43297991     0.0973375    
    310000  -98.40272       620.48692      522.0842       284.76129      6.933708       0.0973375    
    320000  -113.20035      645.26652      532.06617      296.13344      4.4566107      0.0973375    
    330000  -99.838153      654.40947      554.57132      300.32943      1.1229462      0.0973375    
    340000  -73.052057      654.57494      581.52288      300.40537      0.51905718     0.0973375    
    350000  -105.82843      645.78911      539.96067      296.37327      3.4403157      0.0973375    
    360000  -70.777675      657.05795      586.28027      301.5449       2.4810717      0.0973375    
    370000  -63.121285      637.37056      574.24927      292.50973     -1.5173324      0.0973375    
    380000  -64.872987      667.08813      602.21514      306.14808      2.3400625      0.0973375    
    390000  -77.663486      670.35023      592.68675      307.64516      4.2979147      0.0973375    
    400000  -44.407117      660.90321      616.49609      303.30962      4.2711999      0.0973375    
    410000  -81.789651      666.60168      584.81203      305.92483     -2.3940723      0.0973375    
    420000  -33.171174      661.40766      628.23648      303.54112     -1.3475463      0.0973375    
    430000  -2.4324992      670.40067      667.96818      307.66831      6.898335       0.0973375    
    440000  -37.6722        647.22514      609.55294      297.03232      4.1840878      0.0973375    
    450000  -21.749654      689.60978      667.86013      316.48398      3.0681443      0.0973375    
    460000  -92.437095      655.40228      562.96519      300.78507     -0.26107235     0.0973375    
    470000  -101.29803      656.94109      555.64305      301.49127      3.8345958      0.0973375    
    480000  -71.087235      644.83534      573.74811      295.93556      2.8266329      0.0973375    
    490000  -150.47546      609.38361      458.90816      279.66563     -0.16454203     0.0973375    
    500000  -101.61837      637.73882      536.12045      292.67874      3.8341137      0.0973375    
    510000  -78.543543      622.73366      544.19012      285.79239      5.2785077      0.0973375    
    520000  -100.70452      649.24957      548.54505      297.96139     -0.38904024     0.0973375    
    530000  -78.578129      691.61055      613.03242      317.4022       2.3062026      0.0973375    
    540000  -100.07431      622.43147      522.35716      285.6537      -3.669012       0.0973375    
    550000  -153.58652      678.06808      524.48156      311.18712      4.2915187      0.0973375    
    560000  -142.33799      661.62176      519.28377      303.63938      7.3297083      0.0973375    
    570000  -112.35713      635.85265      523.49552      291.81311      0.36205761     0.0973375    
    580000  -137.04743      638.16975      501.12232      292.87651     -3.0794191      0.0973375    
    590000  -164.28767      692.82685      528.53918      317.9604       2.0041609      0.0973375    
    600000  -151.71544      659.54828      507.83285      302.6878      -1.0314169      0.0973375    
    610000  -197.72319      653.50238      455.7792       299.91314     -0.72527908     0.0973375    
    620000  -150.60351      664.87978      514.27627      305.1346       0.62330715     0.0973375    
    630000  -132.05369      632.00034      499.94665      290.04517      2.6366588      0.0973375    
    640000  -120.47772      634.87473      514.397        291.36431      0.85874935     0.0973375    
    650000  -120.01367      654.77044      534.75677      300.49509      4.8511067      0.0973375    
    660000  -83.156127      699.4274       616.27127      320.9896      -2.623467       0.0973375    
    670000  -132.06822      643.72627      511.65805      295.42657     -2.9415142      0.0973375    
    680000  -143.66647      646.69791      503.03144      296.79035      9.6457113      0.0973375    
    690000  -159.80408      650.88709      491.08301      298.7129       2.9138902      0.0973375    
    700000  -123.43644      683.84452      560.40808      313.83812     -6.6170508      0.0973375    
    710000  -121.83423      595.84193      474.0077       273.45092     -2.0007864      0.0973375    
    720000  -128.16647      643.59041      515.42394      295.36422      5.7525722      0.0973375    
    730000  -96.772867      631.21743      534.44456      289.68586     -2.7242903      0.0973375    
    740000  -120.77874      661.16112      540.38238      303.42798      5.0369713      0.0973375    
    750000  -86.08151       664.04896      577.96745      304.7533      -3.8885041      0.0973375    
    760000  -74.931229      641.42061      566.48938      294.36843      8.9005926      0.0973375    
    770000  -98.892898      658.34468      559.45178      302.13543      6.4263283      0.0973375    
    780000  -106.49525      623.81751      517.32226      286.28981      0.39714815     0.0973375    
    790000  -114.90641      646.82001      531.9136       296.84639      3.9248845      0.0973375    
    800000  -56.401914      650.62986      594.22794      298.59485      8.4887734      0.0973375    
    810000  -72.917533      635.11089      562.19336      291.4727       3.0907148      0.0973375    
    820000  -127.88488      651.95205      524.06717      299.20165      7.9911772      0.0973375    
    830000  -67.782455      657.10698      589.32453      301.56741      1.7291455      0.0973375    
    840000  -100.89555      688.04115      587.1456       315.76409     -1.6022454      0.0973375    
    850000  -107.35105      642.18845      534.83741      294.72082     -1.3120404      0.0973375    
    860000  -107.37924      647.85054      540.47129      297.31933      0.36415977     0.0973375    
    870000  -137.93603      670.79945      532.86342      307.85132     -1.7039962      0.0973375    
    880000  -111.53738      664.26993      552.73255      304.85471      2.9978644      0.0973375    
    890000  -127.4185       656.66908      529.25057      301.36644     -2.2085291      0.0973375    
    900000  -92.207716      640.45775      548.25003      293.92654      2.3163977      0.0973375    
    910000  -89.673451      620.10655      530.4331       284.58673      1.3843996      0.0973375    
    920000  -112.55602      628.31657      515.76055      288.35457      1.0383398      0.0973375    
    930000  -152.45412      646.72612      494.272        296.8033       5.799023       0.0973375    
    940000  -108.96737      673.91378      564.94641      309.28058      4.2089433      0.0973375    
    950000  -117.5415       681.96505      564.42355      312.97557     -1.2491184      0.0973375    
    960000  -71.728614      625.01292      553.28431      286.83842      4.036427       0.0973375    
    970000  -104.78164      645.54123      540.75958      296.25951      1.8900504      0.0973375    
    980000  -113.22759      659.84975      546.62216      302.82615     -7.7810974      0.0973375    
    990000  -91.281604      659.36802      568.08641      302.60507     -5.2627583      0.0973375    
   1000000  -107.19847      688.69946      581.50099      316.06621      2.4834386      0.0973375    
   1010000  -76.731777      640.71149      563.97971      294.04299     -2.8608954      0.0973375    
   1020000  -124.17447      676.81777      552.6433       310.61332     -5.6758008      0.0973375    
   1030000  -130.50308      646.00914      515.50606      296.47425     -2.7691924      0.0973375    
   1040000  -83.126556      629.72978      546.60323      289.00314     -3.5337038      0.0973375    
   1050000  -77.530979      651.74291      574.21194      299.10567      2.0211559      0.0973375    
   1060000  -114.92758      607.64339      492.71581      278.86698      0.41184971     0.0973375    
   1070000  -118.12235      621.51356      503.39121      285.23245     -2.9023557      0.0973375    
   1080000  -101.99588      619.65831      517.66244      284.38102      6.3039368      0.0973375    
   1090000  -111.06849      674.93186      563.86337      309.74781      4.3640629      0.0973375    
   1100000  -48.34584       624.0978       575.75196      286.41844     -7.0343898      0.0973375    
   1110000  -62.986847      644.68183      581.69498      295.86511      3.7976911      0.0973375    
   1120000  -74.96043       634.86637      559.90594      291.36048     -2.2744309      0.0973375    
   1130000  -44.219716      657.86922      613.6495       301.91722      2.4309708      0.0973375    
   1140000  -54.282822      642.74824      588.46542      294.97772     -0.038579246    0.0973375    
   1150000  -54.689694      633.06154      578.37185      290.53219     -2.8885483      0.0973375    
   1160000  -36.552749      670.89069      634.33795      307.89319      2.4613928      0.0973375    
   1170000  -71.248713      665.60461      594.35589      305.46724     -0.6623872      0.0973375    
   1180000  -47.932481      659.45611      611.52362      302.6455       4.3049863      0.0973375    
   1190000  -53.687911      656.38572      602.69781      301.2364       2.6296603      0.0973375    
   1200000   6.5865614      656.6853       663.27186      301.37388     -8.019799       0.0973375    
   1210000  -62.087528      635.84332      573.7558       291.80883     -0.80643934     0.0973375    
   1220000  -14.184552      654.72611      640.54156      300.47475     -3.7698723      0.0973375    
   1230000  -37.178649      659.14406      621.96541      302.50229     -0.68439067     0.0973375    
   1240000  -18.099719      643.80684      625.70712      295.46355      1.0755071      0.0973375    
   1250000  -89.578441      642.3025       552.72405      294.77316      5.7984116      0.0973375    
   1260000  -85.988445      641.99474      556.00629      294.63191     -4.6708124      0.0973375    
   1270000  -73.255739      658.2241       584.96836      302.08009     -0.44994328     0.0973375    
   1280000  -37.840613      648.9257       611.08508      297.81275     -0.23307873     0.0973375    
   1290000  -55.453224      674.5508       619.09758      309.57294      4.092018       0.0973375    
   1300000  -42.386199      654.42941      612.04321      300.33858      1.5917263      0.0973375    
   1310000  -96.173481      631.38854      535.21506      289.76439     -0.5817774      0.0973375    
   1320000   17.572626      650.99335      668.56598      298.76167      0.71974546     0.0973375    
   1330000  -83.276571      638.16981      554.89324      292.87654     -4.6125098      0.0973375    
   1340000  -72.614599      667.86283      595.24823      306.50361      3.7919906      0.0973375    
   1350000  -95.244244      657.38292      562.13868      301.69405     -0.45218525     0.0973375    
   1360000  -63.543056      647.74915      584.20609      297.2728       2.0139778      0.0973375    
   1370000  -31.850087      689.16255      657.31246      316.27873      3.5866114      0.0973375    
   1380000  -59.671084      682.26486      622.59377      313.11316      0.18514921     0.0973375    
   1390000  -110.69231      627.37208      516.67977      287.92111      2.8926036      0.0973375    
   1400000  -108.58739      660.46948      551.88209      303.11056      0.97810021     0.0973375    
   1410000  -91.122367      656.74058      565.61821      301.39925     -4.2100739      0.0973375    
   1420000  -93.066459      687.55269      594.48623      315.53991      3.248843       0.0973375    
   1430000  -101.56735      639.84442      538.27707      293.64507      0.83020133     0.0973375    
   1440000  -78.328504      638.07105      559.74254      292.83121      4.373126       0.0973375    
   1450000  -80.534174      680.48315      599.94897      312.29548      3.6088222      0.0973375    
   1460000  -50.643785      652.56425      601.92047      299.4826       7.6724349      0.0973375    
   1470000  -67.457427      638.93916      571.48173      293.22961      1.5803306      0.0973375    
   1480000  -61.806262      691.30927      629.503        317.26393      4.0889501      0.0973375    
   1490000  -64.597038      634.87124      570.2742       291.36271      0.76357607     0.0973375    
   1500000  -40.739686      653.29564      612.55595      299.81826      1.8925266      0.0973375    
   1510000  -77.028476      694.08619      617.05772      318.53835      6.6020249      0.0973375    
   1520000  -134.16192      648.38027      514.21835      297.56244      3.0743686      0.0973375    
   1530000  -71.225687      693.363        622.13731      318.20645      0.27870199     0.0973375    
   1540000  -116.19863      627.80177      511.60314      288.11831     -5.0759514      0.0973375    
   1550000  -31.302706      667.53684      636.23414      306.354       -0.61362776     0.0973375    
   1560000  -72.185215      706.84327      634.65805      324.39298     -2.1703422      0.0973375    
   1570000  -99.453573      652.86545      553.41187      299.62083     -1.5899166      0.0973375    
   1580000  -102.52604      630.86122      528.33519      289.52239     -6.1791488      0.0973375    
   1590000  -76.745293      649.00308      572.25779      297.84827     -3.7816331      0.0973375    
   1600000  -82.894311      656.42696      573.53265      301.25533     -4.5359979      0.0973375    
   1610000  -84.332836      635.71575      551.38291      291.75029     -0.27606809     0.0973375    
   1620000  -79.981865      664.85975      584.87789      305.1254      -1.7312649      0.0973375    
   1630000  -94.798172      646.82558      552.02741      296.84895      1.3400532      0.0973375    
   1640000  -152.02559      635.7222       483.69661      291.75325      2.705193       0.0973375    
   1650000  -98.81207       661.14799      562.33592      303.42196      7.5871278      0.0973375    
   1660000  -69.821347      660.26223      590.44089      303.01545      2.4939725      0.0973375    
   1670000  -153.31257      633.44577      480.1332       290.70852      2.1729966      0.0973375    
   1680000  -166.88385      677.75395      510.87011      311.04296      3.1501875      0.0973375    
   1690000  -128.69882      634.84087      506.14205      291.34878      6.9349552      0.0973375    
   1700000  -69.937482      661.38438      591.44689      303.53044      3.3283999      0.0973375    
   1710000  -94.436526      661.02401      566.58748      303.36506     -1.0370747      0.0973375    
   1720000  -93.710705      635.53519      541.82449      291.66742      6.1850545      0.0973375    
   1730000  -105.80757      633.14277      527.33521      290.56947     -2.3389589      0.0973375    
   1740000  -93.269552      659.54244      566.27289      302.68512      2.4523504      0.0973375    
   1750000  -103.60238      633.02309      529.42071      290.51454     -0.27131647     0.0973375    
   1760000  -94.39514       625.0406       530.64546      286.85112      3.6861535      0.0973375    
   1770000  -41.348115      647.57944      606.23133      297.19492      3.2117311      0.0973375    
   1780000  -82.479015      645.18687      562.70786      296.09689      3.1619505      0.0973375    
   1790000  -68.967669      667.05532      598.08765      306.13302      11.231892      0.0973375    
   1800000  -84.025849      645.18241      561.15656      296.09484      6.4149927      0.0973375    
   1810000  -64.054775      638.71031      574.65554      293.12459      4.4011481      0.0973375    
   1820000  -109.34698      622.00141      512.65443      285.45634      2.3153645      0.0973375    
   1830000  -85.371754      646.73348      561.36172      296.80667      3.7572323      0.0973375    
   1840000  -97.809679      632.00516      534.19548      290.04738     -3.1746388      0.0973375    
   1850000  -106.35951      637.11966      530.76015      292.39459      0.87197736     0.0973375    
   1860000  -74.364816      639.39957      565.03476      293.44091     -1.8831144      0.0973375    
   1870000  -108.95672      664.87611      555.91939      305.13291     -2.5171108      0.0973375    
   1880000  -104.11655      627.26128      523.14473      287.87026      0.91877314     0.0973375    
   1890000  -72.124237      665.7246       593.60037      305.52231      3.5540975      0.0973375    
   1900000  -56.137686      676.23723      620.09955      310.34689      0.82139171     0.0973375    
   1910000  -100.81669      638.11433      537.29765      292.85107      1.8314359      0.0973375    
   1920000  -96.557003      650.4927       553.9357       298.5319       0.92912755     0.0973375    
   1930000  -77.497966      638.35533      560.85737      292.96168      5.2998693      0.0973375    
   1940000  -69.782527      658.47817      588.69564      302.19669     -5.2647075      0.0973375    
   1950000  -19.914653      671.3417       651.42705      308.10018     -5.4805718      0.0973375    
   1960000  -34.977896      620.61527      585.63738      284.8202      -2.8075678      0.0973375    
   1970000  -88.534195      626.50722      537.97303      287.5242       1.4037346      0.0973375    
   1980000  -94.161166      668.91622      574.75505      306.98704      2.8046764      0.0973375    
   1990000  -52.790377      690.33504      637.54466      316.81683     -1.2278909      0.0973375    
   2000000  -45.418405      626.47932      581.06091      287.51139      2.5626126      0.0973375    
   2010000  -36.535172      683.03587      646.5007       313.467        0.79978737     0.0973375    
   2020000  -71.958622      644.23361      572.27499      295.65941      2.8818593      0.0973375    
   2030000  -86.718045      637.9096       551.19156      292.75712      0.32518243     0.0973375    
   2040000  -53.453664      645.88583      592.43216      296.41766      3.6151741      0.0973375    
   2050000  -32.549822      680.72943      648.17961      312.40851      5.8690016      0.0973375    
   2060000  -48.564099      668.18644      619.62234      306.65212     -7.1916916      0.0973375    
   2070000  -70.346347      651.65376      581.30741      299.06475      7.1169856      0.0973375    
   2080000  -100.49907      652.77757      552.2785       299.5805       3.0464195      0.0973375    
   2090000  -61.563213      648.22465      586.66144      297.49102      2.2072488      0.0973375    
   2100000  -102.8782       648.0453       545.16711      297.40871     -7.3306284      0.0973375    
   2110000  -60.043003      632.54923      572.50623      290.29707      4.6637533      0.0973375    
   2120000  -49.86824       631.21386      581.34562      289.68423     -7.0962403      0.0973375    
   2130000  -79.308323      666.74349      587.43517      305.98991     -4.133009       0.0973375    
   2140000  -36.682059      655.67128      618.98922      300.90852     -6.0464004      0.0973375    
   2150000  -48.386043      685.08684      636.7008       314.40826      2.7509268      0.0973375    
   2160000  -46.836739      640.86063      594.02389      294.11144     -1.3086961      0.0973375    
   2170000  -35.081188      637.71032      602.62913      292.66566      0.89363678     0.0973375    
   2180000  -40.236912      617.15014      576.91323      283.22993     -1.8253729      0.0973375    
   2190000  -108.75748      661.11563      552.35815      303.4071      -0.84152738     0.0973375    
   2200000  -74.027601      632.40024      558.37264      290.22869      1.1733999      0.0973375    
   2210000  -36.619444      664.20111      627.58167      304.82313      1.8322089      0.0973375    
   2220000  -86.123516      665.97572      579.8522       305.63755     -2.1831661      0.0973375    
   2230000  -111.68754      707.45276      595.76523      324.6727       4.0575709      0.0973375    
   2240000  -98.970994      645.19225      546.22126      296.09936      2.3348526      0.0973375    
   2250000  -125.29072      649.65841      524.3677       298.14902      3.6675997      0.0973375    
   2260000  -116.59105      638.32874      521.73769      292.94947     -7.429303       0.0973375    
   2270000  -66.70634       628.57976      561.87342      288.47535      0.68423025     0.0973375    
   2280000  -88.505619      622.67734      534.17172      285.76654     -2.9373115      0.0973375    
   2290000  -70.470758      632.14952      561.67877      290.11363      1.1847356      0.0973375    
   2300000  -45.598769      635.97194      590.37317      291.86786     -2.6326716      0.0973375    
   2310000  -61.595521      651.27213      589.67661      298.88961      0.7350432      0.0973375    
   2320000  -107.26272      674.6431       567.38038      309.61529      2.6069785      0.0973375    
   2330000  -114.78724      643.05654      528.26929      295.11921      3.4081156      0.0973375    
   2340000  -94.357343      635.86653      541.50919      291.81949      1.3155469      0.0973375    
   2350000  -108.47024      653.01364      544.5434       299.68884     -4.1863669      0.0973375    
   2360000  -82.445839      641.59939      559.15356      294.45048     -1.9174087      0.0973375    
   2370000  -58.490949      684.21672      625.72577      314.00893      2.4638412      0.0973375    
   2380000  -90.417336      688.79527      598.37794      316.11018      5.3651991      0.0973375    
   2390000  -87.81216       649.96522      562.15306      298.28983     -0.11383146     0.0973375    
   2400000  -85.167025      645.06689      559.89987      296.04183      3.0167336      0.0973375    
   2410000  -22.460985      674.02071      651.55973      309.32966      1.992753       0.0973375    
   2420000  -58.659621      640.51558      581.85595      293.95308     -4.3210319      0.0973375    
   2430000  -73.168583      667.84647      594.67789      306.4961      -0.31818996     0.0973375    
   2440000  -51.176983      670.71826      619.54128      307.81406      0.26673708     0.0973375    
   2450000  -48.320967      652.14215      603.82119      299.28889     -1.7709014      0.0973375    
   2460000  -30.980627      696.73571      665.75508      319.7543       3.5905606      0.0973375    
   2470000  -58.565562      666.07218      607.50662      305.68182      10.210329      0.0973375    
   2480000  -15.530902      674.44357      658.91267      309.52372     -0.73900474     0.0973375    
   2490000  -60.614063      605.02295      544.40889      277.66438     -3.6883385      0.0973375    
   2500000  -51.949426      690.2743       638.32487      316.78895      0.55710585     0.0973375    
   2510000  -108.26822      655.76314      547.49492      300.95067     -4.9972987      0.0973375    
   2520000  -122.06144      642.07165      520.01021      294.66721     -0.72914281     0.0973375    
   2530000  -94.998862      646.21734      551.21848      296.5698      -4.1625735      0.0973375    
   2540000  -86.944841      637.1022       550.15736      292.38657     -4.6683607      0.0973375    
   2550000  -57.688018      674.47175      616.78373      309.53665      0.50084891     0.0973375    
   2560000  -77.024157      649.60058      572.57642      298.12248      1.189904       0.0973375    
   2570000  -108.79857      661.61791      552.81934      303.63761      3.0995447      0.0973375    
   2580000  -57.387779      636.59418      579.20641      292.15343     -7.0978696      0.0973375    
   2590000  -62.117118      675.14448      613.02736      309.84539      4.0986109      0.0973375    
   2600000  -82.189123      656.3286       574.13948      301.21019     -2.919339       0.0973375    
   2610000  -105.47089      664.52081      559.04992      304.96985     -0.021125681    0.0973375    
   2620000  -44.084057      655.77918      611.69512      300.95804      2.1548418      0.0973375    
   2630000  -87.471156      672.70068      585.22952      308.72385      4.4965823      0.0973375    
   2640000  -60.023148      644.27365      584.2505       295.67778      0.39405719     0.0973375    
   2650000  -19.626801      666.74175      647.11495      305.98911      8.555883       0.0973375    
   2660000  -42.365799      655.84631      613.48051      300.98884      8.0477359      0.0973375    
   2670000  -65.55389       653.07518      587.52129      299.71708     -0.64573762     0.0973375    
   2680000  -78.722672      656.78443      578.06176      301.41938      4.8217376      0.0973375    
   2690000  -45.37126       638.80471      593.43345      293.16791     -0.2595212      0.0973375    
   2700000  -85.564027      697.12753      611.5635       319.93412      3.3264213      0.0973375    
   2710000  -131.08118      652.73315      521.65198      299.56012      2.1552707      0.0973375    
   2720000  -98.445368      672.48037      574.035        308.62274     -0.44455927     0.0973375    
   2730000  -78.569341      644.52649      565.95715      295.79382      3.2031143      0.0973375    
   2740000  -113.79845      645.82048      532.02203      296.38767      2.7740898      0.0973375    
   2750000  -112.47741      679.69597      567.21856      311.93421     -1.3363976      0.0973375    
   2760000  -67.876778      656.70195      588.82517      301.38153      4.3206184      0.0973375    
   2770000  -126.37188      654.33838      527.9665       300.29681     -1.880648       0.0973375    
   2780000  -130.21263      649.23678      519.02415      297.95552      6.2063375      0.0973375    
   2790000  -94.970858      633.10592      538.13506      290.55255      0.4832077      0.0973375    
   2800000  -82.21778       655.23428      573.0165       300.70797      3.7179512      0.0973375    
   2810000  -163.92576      664.04967      500.12391      304.75363      6.423905       0.0973375    
   2820000  -110.32989      647.04181      536.71192      296.94818     -2.1526859      0.0973375    
   2830000  -87.889514      656.97447      569.08496      301.5066      -3.2262445      0.0973375    
   2840000  -122.87372      663.91964      541.04592      304.69395      4.9469534      0.0973375    
   2850000  -183.85062      617.60734      433.75671      283.43976     -4.4650587      0.0973375    
   2860000  -106.34779      651.70324      545.35544      299.08746      2.2734807      0.0973375    
   2870000  -89.720557      680.94851      591.22796      312.50905      0.56072866     0.0973375    
   2880000  -125.74351      645.30811      519.56461      296.15253      3.0143945      0.0973375    
   2890000  -95.310338      627.4387       532.12836      287.95169      1.5950494      0.0973375    
   2900000  -123.16565      644.31232      521.14666      295.69553      5.3111942      0.0973375    
   2910000  -99.723311      637.68124      537.95793      292.65231     -1.5248725      0.0973375    
   2920000  -114.65165      632.95544      518.30379      290.48349     -0.83421638     0.0973375    
   2930000  -92.598311      643.11267      550.51436      295.14497      0.50610394     0.0973375    
   2940000  -113.20781      629.10412      515.89631      288.716        7.1709042      0.0973375    
   2950000  -103.32466      643.44429      540.11963      295.29716     -5.9745518      0.0973375    
   2960000  -82.441341      647.17138      564.73004      297.00764      0.34314098     0.0973375    
   2970000  -129.20587      643.06115      513.85527      295.12132      2.0102098      0.0973375    
   2980000  -106.0395       647.87808      541.83857      297.33197      2.1922937      0.0973375    
   2990000  -90.815688      703.00976      612.19407      322.63366      8.0909251      0.0973375    
   3000000  -75.324765      631.50735      556.18259      289.81892     -2.3331024      0.0973375    
   3010000  -80.96206       669.7892       588.82714      307.38768      1.1069594      0.0973375    
   3020000  -94.575359      684.96972      590.39436      314.35451     -0.19945141     0.0973375    
   3030000  -55.476251      640.00901      584.53276      293.7206       4.4180383      0.0973375    
   3040000  -101.2871       624.84332      523.55622      286.76058     -2.7706771      0.0973375    
   3050000  -121.43105      666.09309      544.66204      305.69142      0.78568389     0.0973375    
   3060000  -107.52575      647.79901      540.27327      297.29568      5.4871678      0.0973375    
   3070000  -99.878522      631.12704      531.24851      289.64438     -0.50488474     0.0973375    
   3080000  -115.97051      647.18621      531.2157       297.01445     -3.1395061      0.0973375    
   3090000  -93.9289        681.52044      587.59154      312.77152      2.5886145      0.0973375    
   3100000  -116.95549      635.30371      518.34822      291.56119      0.19147336     0.0973375    
   3110000  -36.030638      681.92543      645.8948       312.95739      1.6222403      0.0973375    
   3120000  -101.29188      642.90982      541.61794      295.05188     -1.2013304      0.0973375    
   3130000  -70.348946      666.61599      596.26705      305.9314      -0.57413504     0.0973375    
   3140000  -117.27806      669.9859       552.70784      307.47796     -0.85856653     0.0973375    
   3150000  -75.805166      652.89183      577.08666      299.63294      0.33059081     0.0973375    
   3160000  -64.579226      665.52573      600.94651      305.43104      0.72304605     0.0973375    
   3170000  -38.660215      638.23296      599.57275      292.90552      2.5984233      0.0973375    
   3180000  -59.042307      681.66518      622.62288      312.83795     -1.4583195      0.0973375    
   3190000  -28.164627      681.15628      652.99165      312.6044      -2.4834856      0.0973375    
   3200000  -67.927303      618.5435       550.6162       283.86939     -0.10024848     0.0973375    
   3210000  -48.536541      653.2407       604.70416      299.79305      4.8786885      0.0973375    
   3220000  -80.405718      676.42209      596.01637      310.43173     -3.5038931      0.0973375    
   3230000  -110.68498      683.11937      572.43438      313.50532      2.1982596      0.0973375    
   3240000  -69.268139      653.85793      584.58979      300.07632     -0.5050572      0.0973375    
   3250000  -115.97322      648.4265       532.45328      297.58366     -1.2576563      0.0973375    
   3260000  -97.029468      664.00149      566.97203      304.73152     -1.6913781      0.0973375    
   3270000  -87.517581      612.95291      525.43533      281.30369     -2.0863377      0.0973375    
   3280000  -99.434703      664.43567      565.00097      304.93078     -2.246205       0.0973375    
   3290000  -76.100626      629.34896      553.24833      288.82836      1.6656218      0.0973375    
   3300000  -126.88319      633.12239      506.2392       290.56011      6.5673921      0.0973375    
   3310000  -38.623874      669.51578      630.89191      307.2622       0.42126782     0.0973375    
   3320000  -60.798144      637.82626      577.02812      292.71887     -0.11960193     0.0973375    
   3330000  -63.456561      657.17194      593.71538      301.59722     -0.94433987     0.0973375    
   3340000  -89.96319       667.77656      577.81337      306.46402     -2.6129752      0.0973375    
   3350000  -89.535134      696.96141      607.42627      319.85788     -1.7632453      0.0973375    
   3360000  -91.682589      652.16531      560.48272      299.29951     -3.2712655      0.0973375    
   3370000  -35.165771      664.01448      628.84871      304.73748      1.9089198      0.0973375    
   3380000  -87.797541      674.55142      586.75387      309.57322     -5.1593968      0.0973375    
   3390000  -123.16163      673.4652       550.30357      309.07472      7.1974276      0.0973375    
   3400000  -129.79462      642.62801      512.83339      294.92255     -7.8204997      0.0973375    
   3410000  -79.72105       631.17981      551.45876      289.6686       5.6668763      0.0973375    
   3420000  -59.243913      660.69997      601.45606      303.21635      7.9971066      0.0973375    
   3430000  -128.9748       673.23003      544.25524      308.96679     -2.8771284      0.0973375    
   3440000  -73.730175      679.14474      605.41457      311.68124      8.1709597      0.0973375    
   3450000  -79.699561      668.63995      588.94039      306.86026     -0.80063495     0.0973375    
   3460000  -80.308633      653.28727      572.97864      299.81442     -5.4910382      0.0973375    
   3470000  -105.30927      625.01832      519.70905      286.8409       3.1266399      0.0973375    
   3480000  -93.599853      635.62879      542.02894      291.71038      0.59860057     0.0973375    
   3490000  -117.05887      606.35977      489.3009       278.27789      0.73558926     0.0973375    
   3500000  -129.52053      641.38928      511.86874      294.35405      5.4265455      0.0973375    
   3510000  -93.400772      640.35144      546.95067      293.87775      0.20913935     0.0973375    
   3520000  -88.728468      638.36078      549.63231      292.96418     -4.1941646      0.0973375    
   3530000  -74.425134      610.61269      536.18756      280.22969      0.81934546     0.0973375    
   3540000  -109.91967      658.99347      549.0738       302.43318     -2.2103673      0.0973375    
   3550000  -116.44543      606.5954       490.14997      278.38603     -0.30059132     0.0973375    
   3560000  -129.75972      677.70149      547.94177      311.01888      5.2347371      0.0973375    
   3570000  -71.682325      646.96355      575.28123      296.91226     -4.90295        0.0973375    
   3580000  -121.36182      663.71605      542.35422      304.60052      0.39062939     0.0973375    
   3590000  -89.881166      626.94981      537.06864      287.72732      7.4696967      0.0973375    
   3600000  -93.933142      665.83636      571.90322      305.5736      -0.059664568    0.0973375    
   3610000  -119.58068      676.52024      556.93956      310.47677      2.3787298      0.0973375    
   3620000  -97.903243      645.77518      547.87194      296.36688      1.4950766      0.0973375    
   3630000  -95.357426      677.74262      582.3852       311.03776      2.5113903      0.0973375    
   3640000  -103.19063      682.99636      579.80573      313.44887      1.2665642      0.0973375    
   3650000  -72.988963      646.35244      573.36348      296.63181      1.642828       0.0973375    
   3660000  -148.11659      636.99384      488.87725      292.33684     -0.32025333     0.0973375    
   3670000  -93.862252      621.21462      527.35237      285.09525     -2.3025533      0.0973375    
   3680000  -122.69581      664.4878       541.792        304.9547       5.4608669      0.0973375    
   3690000  -95.793254      629.03463      533.24138      288.68411     -1.7736591      0.0973375    
   3700000  -54.25464       667.81324      613.5586       306.48085      2.2271434      0.0973375    
   3710000  -112.72862      625.03846      512.30984      286.85014      0.10239489     0.0973375    
   3720000  -94.834201      622.85386      528.01966      285.84756      5.5761825      0.0973375    
   3730000  -131.80869      629.29583      497.48713      288.80398      2.5213866      0.0973375    
   3740000  -107.72937      640.3859       532.65653      293.89357     -4.9926152      0.0973375    
   3750000  -75.713737      643.52032      567.80659      295.33206      2.1278849      0.0973375    
   3760000  -23.615368      664.81396      641.19859      305.10439     -1.1964301      0.0973375    
   3770000  -88.878008      647.11276      558.23475      296.98074     -7.8412524      0.0973375    
   3780000  -109.57076      643.6811       534.11034      295.40584      2.2521404      0.0973375    
   3790000  -86.261075      666.95394      580.69287      306.08649      3.281666       0.0973375    
   3800000  -58.553531      643.99187      585.43834      295.54846     -3.7046784      0.0973375    
   3810000  -146.7524       626.79537      480.04297      287.65644     -2.4293664      0.0973375    
   3820000  -92.707057      637.16834      544.46128      292.41693     -0.78183186     0.0973375    
   3830000  -116.68116      606.78101      490.09985      278.47121     -1.0096948      0.0973375    
   3840000  -158.5765       652.76309      494.18658      299.57385      0.83276458     0.0973375    
   3850000  -43.835868      682.23502      638.39916      313.09947     -3.7100076      0.0973375    
   3860000  -90.070152      624.58472      534.51457      286.6419      -1.190231       0.0973375    
   3870000  -101.86519      667.7207       565.85551      306.43838      8.642379       0.0973375    
   3880000  -112.83822      670.10085      557.26263      307.53071      2.1021615      0.0973375    
   3890000  -133.08574      645.02524      511.9395       296.02271      1.4135875      0.0973375    
   3900000  -120.45419      619.41145      498.95726      284.26772      0.73182824     0.0973375    
   3910000  -126.08413      613.99326      487.90913      281.78114      1.2194734      0.0973375    
   3920000  -100.82078      641.3173       540.49652      294.32102      3.3183674      0.0973375    
   3930000  -136.66497      668.81363      532.14866      306.93996      3.6472387      0.0973375    
   3940000  -178.01058      650.23622      472.22563      298.41419      12.771532      0.0973375    
   3950000  -111.66617      665.95074      554.28457      305.62609      0.88320692     0.0973375    
   3960000  -97.560585      643.87557      546.31499      295.49509      0.48634541     0.0973375    
   3970000  -86.268336      627.59941      541.33107      288.02544      0.79787997     0.0973375    
   3980000  -93.056042      669.56871      576.51266      307.28649      1.4714991      0.0973375    
   3990000  -79.984955      630.96817      550.98321      289.57147      2.3471883      0.0973375    
   4000000  -97.230668      648.92721      551.69654      297.81345     -0.89379598     0.0973375    
   4010000  -52.490782      665.91455      613.42377      305.60948      6.3385693      0.0973375    
   4020000  -61.244658      664.95873      603.71407      305.17082     -0.87771288     0.0973375    
   4030000  -103.82564      663.79277      559.96713      304.63573     -1.1564165      0.0973375    
   4040000  -51.078196      631.5769       580.49871      289.85084     -5.8258878      0.0973375    
   4050000  -2.3973798      635.11943      632.72205      291.47662     -3.5740219      0.0973375    
   4060000  -34.098939      667.55642      633.45748      306.36299      5.3949839      0.0973375    
   4070000  -47.522452      656.13078      608.60833      301.1194       2.7143117      0.0973375    
   4080000  -48.199516      673.14647      624.94695      308.92844     -0.40481459     0.0973375    
   4090000  -39.892748      665.5105       625.61776      305.42405      1.823979       0.0973375    
   4100000  -57.728963      639.70756      581.9786       293.58226      1.1072761      0.0973375    
   4110000  -52.438146      660.48195      608.0438       303.11629      3.8810434      0.0973375    
   4120000  -81.482068      663.52992      582.04785      304.5151       0.72189845     0.0973375    
   4130000  -58.208291      650.97479      592.7665       298.75315      0.75396844     0.0973375    
   4140000  -80.500051      657.31763      576.81758      301.66408      2.7095878      0.0973375    
   4150000  -44.840777      649.28461      604.44384      297.97747     -3.3322553      0.0973375    
   4160000  -74.364449      678.27927      603.91482      311.28405      1.8530624      0.0973375    
   4170000  -50.417168      679.29187      628.8747       311.74876      3.7568373      0.0973375    
   4180000  -59.99164       637.90111      577.90947      292.75322      1.096153       0.0973375    
   4190000  -45.813178      652.01063      606.19745      299.22853      5.5955891      0.0973375    
   4200000  -37.836692      673.63623      635.79954      309.15321      1.3410222      0.0973375    
   4210000  -48.435072      665.24501      616.80994      305.30221      2.6817088      0.0973375    
   4220000  -103.2246       648.06789      544.84329      297.41908     -3.0871606      0.0973375    
   4230000  -64.569963      672.77203      608.20206      308.7566      -2.3207934      0.0973375    
   4240000  -47.702108      684.64919      636.94708      314.20741      2.8296479      0.0973375    
   4250000  -36.954364      645.84897      608.89461      296.40075     -0.30038048     0.0973375    
   4260000  -49.22695       670.99965      621.7727       307.9432       3.9588196      0.0973375    
   4270000  -72.132165      667.68367      595.55151      306.42139      4.7622743      0.0973375    
   4280000  -13.628492      671.83083      658.20233      308.32465      1.3907796      0.0973375    
   4290000  -38.14105       631.05279      592.91174      289.61031     -6.0289672      0.0973375    
   4300000  -17.568921      663.56468      645.99576      304.53105      2.4742904      0.0973375    
   4310000  -47.346781      655.24343      607.89665      300.71216     -0.50452875     0.0973375    
   4320000  -72.152117      620.82329      548.67117      284.91566     -0.42834582     0.0973375    
   4330000  -92.647642      659.52894      566.8813       302.67892     -3.4025951      0.0973375    
   4340000  -95.112813      675.48998      580.37717      310.00395      3.3497503      0.0973375    
   4350000  -36.979607      660.70482      623.72522      303.21857      0.82920311     0.0973375    
   4360000  -104.78193      635.89507      531.11315      291.83258     -4.234282       0.0973375    
   4370000  -93.005399      658.49331      565.48791      302.20364      0.46406138     0.0973375    
   4380000  -97.447875      689.18361      591.73573      316.2884      -2.8897764      0.0973375    
   4390000  -92.758644      636.746        543.98735      292.2231       3.9738624      0.0973375    
   4400000  -43.176664      643.91582      600.73916      295.51356      1.0729006      0.0973375    
   4410000  -64.530566      665.50175      600.97118      305.42004      3.6585745      0.0973375    
   4420000  -43.331283      642.18274      598.85146      294.7182       3.7535874      0.0973375    
   4430000  -34.72031       643.19254      608.47223      295.18162      2.7854         0.0973375    
   4440000  -53.339673      704.49445      651.15478      323.31503     -1.1168475      0.0973375    
   4450000  -72.985547      663.98931      591.00376      304.72593     -7.6033491      0.0973375    
   4460000  -75.528787      671.72288      596.19409      308.27511     -0.62151874     0.0973375    
   4470000  -67.309264      663.4079       596.09863      304.4591      -2.5257891      0.0973375    
   4480000  -32.445877      701.51185      669.06597      321.94622      4.0700182      0.0973375    
   4490000  -60.743547      645.70153      584.95799      296.33308      0.84847927     0.0973375    
   4500000  -103.95428      655.28645      551.33217      300.73191      5.2715085      0.0973375    
   4510000  -80.457803      646.06107      565.60327      296.49809      2.345196       0.0973375    
   4520000  -58.475551      654.26471      595.78916      300.263        2.4002055      0.0973375    
   4530000  -66.074642      609.02399      542.94935      279.50059      0.4994244      0.0973375    
   4540000  -43.515411      666.97142      623.45601      306.09452      0.92346162     0.0973375    
   4550000  -89.406784      659.42561      570.01882      302.6315       2.0893115      0.0973375    
   4560000  -76.341113      670.35053      594.00942      307.6453      -1.2788311      0.0973375    
   4570000  -109.83386      652.28679      542.45293      299.35527     -0.36896476     0.0973375    
   4580000  -97.559205      655.52283      557.96362      300.84039     -0.44276795     0.0973375    
   4590000  -100.93516      685.52138      584.58622      314.60768     -6.0682421      0.0973375    
   4600000  -35.221105      655.17596      619.95486      300.6812       3.3667072      0.0973375    
   4610000  -71.509949      659.9288       588.41885      302.86243      1.8983433      0.0973375    
   4620000  -95.741577      691.33446      595.59288      317.27549     -0.72034753     0.0973375    
   4630000  -76.742262      648.59606      571.8538       297.66147     -0.53345023     0.0973375    
   4640000  -88.247864      627.63049      539.38263      288.0397       5.4004657      0.0973375    
   4650000  -86.039015      640.06614      554.02713      293.74682     -1.7141999      0.0973375    
   4660000  -119.63415      674.60678      554.97262      309.59862      1.9227135      0.0973375    
   4670000  -145.00386      658.16383      513.15997      302.05243     -1.5780051      0.0973375    
   4680000  -71.568436      683.75631      612.18788      313.79764      1.5279884      0.0973375    
   4690000  -70.727157      648.7863       578.05914      297.74878      0.50123376     0.0973375    
   4700000  -81.648743      608.40854      526.7598       279.21813      1.9980302      0.0973375    
   4710000  -83.327184      649.3855       566.05832      298.02377      1.7465121      0.0973375    
   4720000  -108.87946      654.2904       545.41094      300.27479      5.8452374      0.0973375    
   4730000  -109.30232      654.04         544.73768      300.15987      2.5957685      0.0973375    
   4740000  -133.34827      664.4951       531.14683      304.95805     -5.8908124      0.0973375    
   4750000  -96.141864      640.26215      544.12028      293.83678      2.8340521      0.0973375    
   4760000  -137.33314      629.91774      492.5846       289.08939      8.8194948      0.0973375    
   4770000  -81.788257      651.22979      569.44153      298.87018      3.927714       0.0973375    
   4780000  -67.987727      671.83554      603.84781      308.32681     -0.92358752     0.0973375    
   4790000  -77.425231      657.07046      579.64523      301.55065      1.3214216      0.0973375    
   4800000  -31.100012      671.11225      640.01223      307.99487     -3.6423092      0.0973375    
   4810000  -42.702867      702.70379      660.00092      322.49324     -1.9466416      0.0973375    
   4820000  -34.733474      672.55497      637.8215       308.65698      2.6280658      0.0973375    
   4830000  -47.540078      655.61321      608.07313      300.88187      5.2374066      0.0973375    
   4840000  -43.841805      649.31789      605.47608      297.99274     -1.798491       0.0973375    
   4850000  -96.907479      674.9517       578.04422      309.75692      3.9381112      0.0973375    
   4860000  -63.56033       646.91187      583.35154      296.88855     -1.8617028      0.0973375    
   4870000  -74.723963      671.41644      596.69247      308.13447      0.29475012     0.0973375    
   4880000  -125.90622      637.58543      511.6792       292.60834      6.1046854      0.0973375    
   4890000  -74.761374      636.65835      561.89697      292.18287     -0.35095936     0.0973375    
   4900000  -56.643284      647.81696      591.17367      297.30392     -3.2965499      0.0973375    
   4910000  -87.745442      645.27201      557.52657      296.13596     -2.0890664      0.0973375    
   4920000  -101.95005      643.74374      541.79369      295.43459      4.3543648      0.0973375    
   4930000  -118.97369      647.68721      528.71352      297.24437      2.0541959      0.0973375    
   4940000  -108.39339      659.59615      551.20275      302.70977     -2.1465885      0.0973375    
   4950000  -135.02781      628.65578      493.62797      288.51024      6.3059225      0.0973375    
   4960000  -82.148901      636.19516      554.04626      291.9703       1.2913516      0.0973375    
   4970000  -102.44166      646.4109       543.96925      296.65864     -0.22591237     0.0973375    
   4980000  -91.820795      635.07941      543.25861      291.45825      3.4127243      0.0973375    
   4990000  -121.59154      637.02806      515.43652      292.35255      1.276161       0.0973375    
   5000000  -116.78995      662.22316      545.43321      303.91538     -3.7644199      0.0973375    
Loop time of 980.079 on 4 procs for 5000000 steps with 732 atoms

Performance: 4407.807 ns/day, 0.005 hours/ns, 5101.628 timesteps/s, 3.734 Matom-step/s
99.7% CPU use with 4 MPI tasks x 1 OpenMP threads

MPI task timing breakdown:
Section |  min time  |  avg time  |  max time  |%varavg| %total
---------------------------------------------------------------
Pair    | 529.43     | 630.28     | 727.76     | 281.3 | 64.31
Bond    | 45.102     | 49.275     | 55.449     |  60.0 |  5.03
Neigh   | 2.8455     | 2.8472     | 2.8494     |   0.1 |  0.29
Comm    | 165.25     | 270.3      | 377.24     | 460.0 | 27.58
Output  | 0.067057   | 0.08808    | 0.14578    |  11.2 |  0.01
Modify  | 21.85      | 24.084     | 25.796     |  28.9 |  2.46
Other   |            | 3.206      |            |       |  0.33

Nlocal:            183 ave         242 max         152 min
Histogram: 1 1 1 0 0 0 0 0 0 1
Nghost:            701 ave         728 max         665 min
Histogram: 1 0 0 0 1 0 0 0 1 1
Neighs:         1484.5 ave        2195 max         988 min
Histogram: 1 0 1 0 1 0 0 0 0 1

Total # of neighbors = 5938
Ave neighs/atom = 8.1120219
Ave special neighs/atom = 4.3442623
Neighbor list builds = 10185
Dangerous builds = 0

# ===============================
# 4. PRODUCTION
# ===============================
# Reset averages for production
unfix favg
fix favg all ave/time 10000 10 100000 v_vpe v_vke v_vT v_vE v_vRg     file outputs/thermo_${tag}_production.dat
fix favg all ave/time 10000 10 100000 v_vpe v_vke v_vT v_vE v_vRg     file outputs/thermo_100ASO_truncated_unmodified_production.dat

restart 10000000 outputs/backup_${tag}.*.restart
restart 10000000 outputs/backup_100ASO_truncated_unmodified.*.restart
run 100000000
Generated 0 of 6 mixed pair_coeff terms from geometric mixing rule
Per MPI rank memory allocation (min/avg/max) = 8.59 | 8.657 | 8.857 Mbytes
   Step         PotEng         KinEng         TotEng          Temp          Press         Density    
   5000000  -116.78995      662.22316      545.43321      303.91538     -3.7644199      0.0973375    
   5010000  -111.455        659.13461      547.67961      302.49795      9.0821405      0.0973375    
   5020000  -94.486311      656.86632      562.38001      301.45696      5.6009053      0.0973375    
   5030000  -99.941378      651.95365      552.01227      299.20238      1.2117577      0.0973375    
   5040000  -132.80156      672.53753      539.73597      308.64898      2.0093524      0.0973375    
   5050000  -122.38362      659.84431      537.46069      302.82366      4.5471568      0.0973375    
   5060000  -103.94709      646.54743      542.60034      296.72129      2.5683638      0.0973375    
   5070000  -130.06147      669.01496      538.95349      307.03236      4.0149909      0.0973375    
   5080000  -88.44988       650.07728      561.6274       298.34125      2.4175403      0.0973375    
   5090000  -85.105734      657.78391      572.67817      301.87807      1.4803531      0.0973375    
   5100000  -74.305919      645.33706      571.03114      296.16582     -8.3807204      0.0973375    
   5110000  -93.215966      641.30011      548.08415      294.31313      4.952545       0.0973375    
   5120000  -81.312241      629.72802      548.41578      289.00233      0.17079441     0.0973375    
   5130000  -141.19577      673.7194       532.52363      309.19138     -2.8864217      0.0973375    
   5140000  -89.692605      663.03023      573.33763      304.28578      2.9538907      0.0973375    
   5150000  -88.794987      663.13118      574.33619      304.33211      3.033908       0.0973375    
   5160000  -71.323494      650.40838      579.08489      298.4932       0.28758693     0.0973375    
   5170000  -59.995581      650.53564      590.54005      298.55161     -3.2194928      0.0973375    
   5180000  -88.975218      668.0563       579.08108      306.5924       1.7007642      0.0973375    
   5190000  -107.40336      676.53583      569.13248      310.48393      3.3991587      0.0973375    
   5200000  -110.7871       645.15085      534.36375      296.08036      3.3741928      0.0973375    
   5210000  -68.385575      677.49597      609.11039      310.92457      6.3698162      0.0973375    
   5220000  -49.379129      689.14278      639.76365      316.26966      3.2152115      0.0973375    
   5230000  -108.00397      663.98798      555.98401      304.72532     -3.5475368      0.0973375    
   5240000  -77.683851      692.77053      615.08668      317.93455      1.9795469      0.0973375    
   5250000  -74.959835      667.32034      592.36051      306.25465      0.4341994      0.0973375    
   5260000  -80.292023      617.16545      536.87343      283.23696      5.7639034      0.0973375    
   5270000  -141.66505      648.69883      507.03379      297.70864      1.4473839      0.0973375    
   5280000  -70.861702      635.8399       564.9782       291.80726      4.4985042      0.0973375    
   5290000  -107.03894      662.86056      555.82162      304.20791      7.8533285      0.0973375    
   5300000  -110.92896      673.66302      562.73406      309.1655       6.7691606      0.0973375    
   5310000  -78.64557       624.05785      545.41228      286.40011      5.0177121      0.0973375    
   5320000  -80.216423      669.15849      588.94206      307.09823     -2.5242725      0.0973375    
   5330000  -11.866036      624.97499      613.10896      286.82101      1.6502324      0.0973375    
   5340000  -49.041504      627.09859      578.05708      287.7956       1.668962       0.0973375    
   5350000  -48.806048      664.67171      615.86567      305.0391      -3.3323882      0.0973375    
   5360000  -51.286353      679.33084      628.04448      311.76665      2.783174       0.0973375    
   5370000  -24.111713      627.28781      603.17609      287.88243     -1.6446026      0.0973375    
   5380000  -64.574784      619.67201      555.09722      284.3873      -1.9685581      0.0973375    
   5390000  -47.45167       641.67681      594.22514      294.48601      9.6190107      0.0973375    
   5400000  -35.121372      645.77859      610.65722      296.36845     -0.70116804     0.0973375    
   5410000  -34.041587      652.21545      618.17387      299.32253      1.7475342      0.0973375    
   5420000  -49.503655      650.74616      601.24251      298.64822      3.9927339      0.0973375    
   5430000  -66.520958      643.29073      576.76977      295.22669      0.58812499     0.0973375    
   5440000  -60.44839       640.50561      580.05722      293.94851      0.68968391     0.0973375    
   5450000  -46.964724      647.60672      600.642        297.20744      4.6007689      0.0973375    
   5460000  -63.243441      638.91417      575.67072      293.21814      0.40168181     0.0973375    
   5470000  -38.47344       675.83344      637.36         310.16158      4.2405736      0.0973375    
   5480000  -69.842176      668.17207      598.32989      306.64553      0.47130649     0.0973375    
   5490000  -44.689084      655.10094      610.41186      300.64677      4.170674       0.0973375    
   5500000  -91.175672      672.17955      581.00387      308.48469      1.2812083      0.0973375    
   5510000  -79.110391      635.00418      555.89379      291.42373     -3.4849709      0.0973375    
   5520000  -120.68198      641.77532      521.09334      294.53122      2.1878985      0.0973375    
   5530000  -92.710871      649.53239      556.82152      298.09119     -1.4424698      0.0973375    
   5540000  -99.998978      641.10114      541.10216      294.22181      6.7867385      0.0973375    
   5550000  -92.714792      665.8157       573.10091      305.56412     -2.7159981      0.0973375    
   5560000  -59.607345      664.81829      605.21095      305.10637     -0.84225295     0.0973375    
   5570000  -91.019625      633.44111      542.42149      290.70638     -0.11499754     0.0973375    
   5580000  -97.826421      659.14518      561.31876      302.5028       4.0755773      0.0973375    
   5590000  -116.31237      653.29386      536.98149      299.81745      1.6974386      0.0973375    
   5600000  -145.1254       639.28957      494.16416      293.39043      0.13174123     0.0973375    
   5610000  -166.89446      634.62819      467.73373      291.25117     -3.3382097      0.0973375    
   5620000  -155.68136      666.9041       511.22274      306.06362      4.5862133      0.0973375    
   5630000  -161.09894      706.01297      544.91403      324.01193      4.7434213      0.0973375    
   5640000  -151.90176      650.7484       498.84664      298.64925     -2.6179146      0.0973375    
   5650000  -116.34078      666.03608      549.6953       305.66525      4.174016       0.0973375    
   5660000  -80.022501      663.69674      583.67424      304.59166      3.843981       0.0973375    
   5670000  -155.63977      656.20077      500.56099      301.15152     -2.5542698      0.0973375    
   5680000  -85.460275      641.42076      555.96048      294.3685       0.27644348     0.0973375    
   5690000  -100.38424      667.04568      566.66144      306.1286      -0.84833459     0.0973375    
   5700000  -81.778383      654.27782      572.49943      300.26901     -3.8174419      0.0973375    
   5710000  -95.766899      667.58062      571.81372      306.37409     -4.3137211      0.0973375    
   5720000  -129.2155       649.71142      520.49592      298.17335     -0.38139071     0.0973375    
   5730000  -140.78431      621.01732      480.23301      285.00471     -2.5019676      0.0973375    
   5740000  -109.51528      676.37122      566.85594      310.40838     -1.0576787      0.0973375    
   5750000  -92.351298      643.73603      551.38473      295.43105      7.7533335      0.0973375    
   5760000  -95.534042      684.30638      588.77234      314.05008      11.454575      0.0973375    
   5770000  -84.868922      634.0486       549.17968      290.98518      3.3969001      0.0973375    
   5780000  -89.703575      602.88978      513.1862       276.6854      -9.2177484      0.0973375    
   5790000  -116.52714      680.25424      563.7271       312.19042     -0.78914688     0.0973375    
   5800000  -121.17802      638.75251      517.57449      293.14395     -5.6420183      0.0973375    
   5810000  -100.68016      649.12033      548.44017      297.90208      3.2183455      0.0973375    
   5820000  -103.57956      614.63072      511.05116      282.07369     -6.4992638      0.0973375    
   5830000  -57.882391      634.8435       576.96111      291.34998     -2.2645759      0.0973375    
   5840000  -97.159439      642.33908      545.17964      294.78994      1.4225405      0.0973375    
   5850000  -81.948094      664.81333      582.86524      305.1041       5.3304378      0.0973375    
   5860000  -114.0656       611.2966       497.231        280.54356      3.396619       0.0973375    
   5870000  -88.56166       656.43198      567.87032      301.25763      3.0098026      0.0973375    
   5880000  -44.274014      647.74626      603.47224      297.27147     -3.5887485      0.0973375    
   5890000  -76.363657      640.23775      563.87409      293.82558     -0.3995082      0.0973375    
   5900000  -71.564047      644.79182      573.22778      295.91559      0.74911627     0.0973375    
   5910000  -109.6375       656.16491      546.52742      301.13506     -2.0589642      0.0973375    
   5920000  -75.656009      675.91381      600.2578       310.19846      3.7301178      0.0973375    
   5930000  -119.90476      682.82531      562.92055      313.37037     -1.3308015      0.0973375    
   5940000  -123.38397      640.82974      517.44578      294.09726     -1.0675327      0.0973375    
   5950000  -82.95704       656.78593      573.82889      301.42007      2.4041819      0.0973375    
   5960000  -81.617077      622.26231      540.64523      285.57607     -0.71374385     0.0973375    
   5970000  -54.968964      654.97312      600.00416      300.58811     -3.9546559      0.0973375    
   5980000  -56.656172      627.54882      570.89265      288.00222     -0.8842548      0.0973375    
   5990000  -91.368455      643.87108      552.50262      295.49303      1.9642808      0.0973375    
   6000000  -99.766043      673.63552      573.86948      309.15288     -6.2251165      0.0973375    
   6010000  -51.631714      667.04648      615.41477      306.12896     -2.6094438      0.0973375    
   6020000  -112.7924       626.9497       514.1573       287.72727     -3.0881135      0.0973375    
   6030000  -109.20174      681.8698       572.66805      312.93186      4.1370423      0.0973375    
   6040000  -127.123        677.8253       550.7023       311.07571     -1.2287013      0.0973375    
   6050000  -137.75107      656.2073       518.45623      301.15452      1.3603251      0.0973375    
   6060000  -83.787688      654.39924      570.61156      300.32474      3.0978105      0.0973375    
   6070000  -108.43985      671.99046      563.55061      308.39791     -2.6359586      0.0973375    
   6080000  -105.0523       646.62021      541.56791      296.75469     -7.4384759      0.0973375    
   6090000  -87.072798      697.38388      610.31109      320.05177      3.593671       0.0973375    
   6100000  -89.999097      645.06719      555.06809      296.04196      5.9931794      0.0973375    
   6110000  -79.755657      642.13913      562.38347      294.69818     -0.8426269      0.0973375    
   6120000  -94.153675      635.57065      541.41698      291.6837       1.7287543      0.0973375    
   6130000  -46.037822      675.01666      628.97884      309.78673     -5.6244482      0.0973375    
   6140000  -93.413045      653.57665      560.1636       299.94723     -1.8835506      0.0973375    
   6150000  -73.415819      682.1387       608.72288      313.05526     -1.0989413      0.0973375    
   6160000  -98.015625      652.58523      554.5696       299.49223     -2.8601635      0.0973375    
   6170000  -90.144217      671.10038      580.95617      307.98943     -0.80441075     0.0973375    
   6180000  -63.954969      635.58373      571.62876      291.6897      -1.8792598      0.0973375    
   6190000  -79.432516      672.05813      592.62561      308.42897      2.5595208      0.0973375    
   6200000  -60.094672      684.16225      624.06758      313.98394      1.8839856      0.0973375    
   6210000  -100.03062      638.18061      538.14999      292.88149      5.0727971      0.0973375    
   6220000  -153.50517      681.46992      527.96475      312.74834      0.060202984    0.0973375    
   6230000  -173.59059      622.97103      449.38044      285.90133      3.8939568      0.0973375    
   6240000  -133.18731      612.49414      479.30683      281.09315      5.5783233      0.0973375    
   6250000  -101.87452      641.16507      539.29055      294.25116      1.3242469      0.0973375    
   6260000  -108.78061      646.52966      537.74906      296.71314     -0.34377652     0.0973375    
   6270000  -91.273197      637.02196      545.74877      292.34975      7.5507543      0.0973375    
   6280000  -98.980342      614.86468      515.88433      282.18106      4.5234767      0.0973375    
   6290000  -80.237996      657.68038      577.44238      301.83056     -0.7704217      0.0973375    
   6300000  -142.26812      654.83843      512.57031      300.5263       4.0802279      0.0973375    
   6310000  -104.08371      660.3299       556.24619      303.04651      0.05459505     0.0973375    
   6320000  -126.82726      664.42655      537.5993       304.92659      4.0788378      0.0973375    
   6330000  -131.87576      678.55307      546.67731      311.4097       3.7075046      0.0973375    
   6340000  -116.90605      648.92653      532.02048      297.81314      7.5562354      0.0973375    
   6350000  -103.265        658.28603      555.02103      302.10851     -5.3267204      0.0973375    
   6360000  -95.736355      686.41279      590.67644      315.01678      7.7959785      0.0973375    
   6370000  -78.286028      652.51954      574.23351      299.46208     -4.7297777      0.0973375    
   6380000  -122.52887      688.09538      565.5665       315.78897     -5.8800465      0.0973375    
   6390000  -114.59846      684.36874      569.77028      314.0787       2.6507962      0.0973375    
   6400000  -120.07954      657.09954      537.02         301.56399      1.0135365      0.0973375    
   6410000  -140.31495      658.52998      518.21503      302.22046     -1.3119923      0.0973375    
   6420000  -200.22805      630.25851      430.03046      289.24579     -2.5435129      0.0973375    
   6430000  -108.88804      658.41444      549.5264       302.16744     -1.0039528      0.0973375    
   6440000  -65.58276       668.18711      602.60435      306.65243     -2.3119208      0.0973375    
   6450000  -124.86383      672.71529      547.85146      308.73056      4.3150038      0.0973375    
   6460000  -130.81627      686.0445       555.22823      314.84776     -2.4707411      0.0973375    
   6470000  -98.235156      649.51666      551.28151      298.08397      3.8582395      0.0973375    
   6480000  -119.54468      676.34356      556.79888      310.39569      5.6704776      0.0973375    
   6490000  -147.77979      632.22193      484.44214      290.14686     -4.5000182      0.0973375    
   6500000  -121.69642      668.52133      546.82491      306.80582     -1.507989       0.0973375    
   6510000  -116.37795      676.78684      560.40889      310.59912      0.89984753     0.0973375    
   6520000  -118.7615       664.38093      545.61943      304.90566     -3.7732232      0.0973375    
   6530000  -99.061429      637.94105      538.87962      292.77155     -3.0112963      0.0973375    
   6540000  -113.26114      633.36949      520.10835      290.67351      4.7687563      0.0973375    
   6550000  -124.57421      650.04527      525.47106      298.32656     -2.1295513      0.0973375    
   6560000  -101.88794      654.05059      552.16265      300.16473     -0.58326618     0.0973375    
   6570000  -82.990936      666.0575       583.06657      305.67509     -6.605272       0.0973375    
   6580000  -43.292056      656.76039      613.46833      301.40835     -1.3451711      0.0973375    
   6590000  -117.19404      648.30394      531.1099       297.52741      5.7779033      0.0973375    
   6600000  -62.255174      677.57877      615.32359      310.96257     -1.957627       0.0973375    
   6610000  -113.81219      672.67104      558.85885      308.71025      0.79198045     0.0973375    
   6620000  -89.366369      666.191        576.82464      305.73636     -3.0930353      0.0973375    
   6630000  -138.16277      642.64736      504.48459      294.93142      0.60039142     0.0973375    
   6640000  -154.339        627.35923      473.02022      287.91521     -5.5220616      0.0973375    
   6650000  -111.43334      690.51609      579.08276      316.89992      1.1833724      0.0973375    
   6660000  -51.522347      649.76372      598.24137      298.19735     -8.3023291      0.0973375    
   6670000  -90.306527      670.92298      580.61646      307.90801      5.886286       0.0973375    
   6680000  -140.01754      650.91827      510.90072      298.72721     -1.5560742      0.0973375    
   6690000  -93.273406      639.49705      546.22365      293.48565      1.025401       0.0973375    
   6700000  -121.99539      661.53614      539.54075      303.60009     -6.4180549      0.0973375    
   6710000  -108.45         673.69675      565.24675      309.18098     -1.8384155      0.0973375    
   6720000  -89.383039      622.10796      532.72492      285.50524      0.012988603    0.0973375    
   6730000  -90.529346      651.73595      561.2066       299.10247      2.4489012      0.0973375    
   6740000  -72.084526      677.95202      605.8675       311.13386     -2.3198184      0.0973375    
   6750000  -91.85708       653.11531      561.25823      299.7355       5.3923449      0.0973375    
   6760000  -97.569785      636.47392      538.90414      292.09824     -0.65468954     0.0973375    
   6770000  -66.959965      642.58372      575.62375      294.90222     -1.2553309      0.0973375    
   6780000  -105.7768       690.98882      585.21202      317.11686     -2.7903581      0.0973375    
   6790000  -85.622166      669.30933      583.68716      307.16745     -0.51136002     0.0973375    
   6800000  -45.483879      664.85303      619.36915      305.12232      1.9747968      0.0973375    
   6810000  -79.907687      654.42453      574.51684      300.33634      0.14940837     0.0973375    
   6820000  -62.777897      653.51766      590.73976      299.92015      9.6547121      0.0973375    
   6830000  -75.226654      653.1472       577.92054      299.75014      1.1666798      0.0973375    
   6840000  -113.18527      650.26266      537.07739      298.42633     -1.0216703      0.0973375    
   6850000  -81.090592      647.55821      566.46761      297.18517      1.6531365      0.0973375    
   6860000  -76.082114      648.79783      572.71572      297.75407      8.0880595      0.0973375    
   6870000  -70.872304      647.60231      576.73         297.20541     -1.269079       0.0973375    
   6880000  -50.848457      677.31804      626.46958      310.84291      3.1625974      0.0973375    
   6890000  -89.460879      688.98066      599.51978      316.19526      0.85500661     0.0973375    
   6900000  -53.52746       653.1354       599.60794      299.74472      4.7712485      0.0973375    
   6910000  -75.424991      660.51         585.08501      303.12916      2.7563395      0.0973375    
   6920000  -60.521646      629.41024      568.8886       288.85649     -1.5527961      0.0973375    
   6930000  -73.058442      653.43454      580.3761       299.88201      2.3257013      0.0973375    
   6940000  -58.794101      665.32342      606.52932      305.33819      1.1338766      0.0973375    
   6950000  -48.561178      659.59169      611.03051      302.70772      5.4966721      0.0973375    
   6960000  -70.583574      613.87422      543.29064      281.72651     -0.6760302      0.0973375    
   6970000  -56.967877      602.96474      545.99687      276.7198       0.0305103      0.0973375    
   6980000  -79.276486      648.79236      569.51587      297.75156     -3.5353309      0.0973375    
   6990000  -66.420358      681.82457      615.40421      312.9111       4.9892906      0.0973375    
   7000000  -77.891585      608.20803      530.31645      279.12612      1.8452757      0.0973375    
[...]
 103200000  -86.555831      672.61637      586.06054      308.68516      0.36657962     0.0973375    
 103210000  -107.23983      619.99377      512.75394      284.53497      6.2853689      0.0973375    
 103220000  -102.3434       687.30767      584.96427      315.42747     -2.0150356      0.0973375    
 103230000  -100.49057      648.746        548.25543      297.73028      4.7898036      0.0973375    
 103240000  -158.79634      645.81674      487.0204       296.38595     -1.4357189      0.0973375    
 103250000  -129.133        643.33916      514.20616      295.24892      4.2405146      0.0973375    
 103260000  -124.775        624.75777      499.98277      286.72132      1.3583503      0.0973375    
 103270000  -125.39627      665.33209      539.93582      305.34217      0.24640829     0.0973375    
 103280000  -62.70031       677.42609      614.72578      310.8925       7.4698183      0.0973375    
 103290000  -73.943529      642.07768      568.13415      294.66998     -5.9493674      0.0973375    
 103300000  -116.71787      633.21435      516.49648      290.60232     -2.7959486      0.0973375    
 103310000  -127.56634      661.58287      534.01652      303.62153      2.0713664      0.0973375    
 103320000  -112.8778       660.01509      547.13729      302.90203      6.5683326      0.0973375    
 103330000  -94.954132      633.14807      538.19394      290.5719      -4.5244455      0.0973375    
 103340000  -67.079989      666.18376      599.10377      305.73303      5.3984847      0.0973375    
 103350000  -111.90892      672.9442       561.03528      308.83561      3.8258329      0.0973375    
 103360000  -114.13891      667.29414      553.15523      306.24262     -2.4839282      0.0973375    
 103370000  -93.984656      676.60151      582.61685      310.51407     -8.5257059      0.0973375    
 103380000  -112.50791      651.20628      538.69837      298.85939      2.7137336      0.0973375    
 103390000  -85.560384      641.28102      555.72063      294.30437     -1.7681709      0.0973375    
 103400000  -79.584757      647.44368      567.85892      297.13261      4.257133       0.0973375    
 103410000  -57.456368      661.2111       603.75473      303.45092     -2.7483776      0.0973375    
 103420000  -92.720295      608.08713      515.36683      279.07063      8.6362969      0.0973375    
 103430000  -81.171558      662.70372      581.53216      304.13593      1.7387783      0.0973375    
 103440000  -89.199571      673.81364      584.61407      309.23463      0.54231172     0.0973375    
 103450000  -95.087431      680.8844       585.79697      312.47962     -2.0621139      0.0973375    
 103460000  -81.052507      644.27972      563.22721      295.68057     -1.1810399      0.0973375    
 103470000  -78.910258      667.59009      588.67983      306.37844      4.0008671      0.0973375    
 103480000  -94.698672      634.08105      539.38238      291.00007      1.0005898      0.0973375    
 103490000  -25.393375      682.09711      656.70374      313.03618      1.0721434      0.0973375    
 103500000  -57.185674      635.08746      577.90178      291.46194      3.1623622      0.0973375    
 103510000  -34.788748      636.35604      601.5673       292.04414     -2.4656085      0.0973375    
 103520000   6.486914       672.94107      679.42798      308.83418      2.8317691      0.0973375    
 103530000  -29.033015      627.35963      598.32661      287.91539     -0.89816954     0.0973375    
 103540000  -48.924625      678.77904      629.85442      311.51341     -1.922892       0.0973375    
 103550000  -31.283048      624.81718      593.53414      286.74859      0.28544899     0.0973375    
 103560000  -49.676258      680.9399       631.26364      312.5051       3.877094       0.0973375    
 103570000  -16.582491      638.32457      621.74208      292.94756     -5.3397008      0.0973375    
 103580000  -15.490651      659.69896      644.20831      302.75695     -0.52525931     0.0973375    
 103590000  -34.472973      612.49392      578.02095      281.09305     -5.6262256      0.0973375    
 103600000  -72.527212      671.27438      598.74716      308.06928      3.6524973      0.0973375    
 103610000  -47.293611      656.26499      608.97137      301.18099      6.9756417      0.0973375    
 103620000  -91.211809      663.16237      571.95056      304.34642      3.0686618      0.0973375    
 103630000  -63.763732      636.6817       572.91796      292.19359      0.65576974     0.0973375    
 103640000  -59.907876      657.79351      597.88564      301.88248     -0.0675747      0.0973375    
 103650000  -58.652805      646.7512       588.0984       296.81481     -2.4512311      0.0973375    
 103660000  -68.707585      640.10938      571.40179      293.76666      0.92059814     0.0973375    
 103670000  -133.4659       648.57848      515.11259      297.65341      3.8462896      0.0973375    
 103680000  -67.683578      636.66475      568.98117      292.18581      3.0858403      0.0973375    
 103690000  -70.291309      653.27979      582.98848      299.81099     -6.3806011      0.0973375    
 103700000  -93.217553      640.22652      547.00897      293.82043      3.6640494      0.0973375    
 103710000  -96.494934      656.02634      559.53141      301.07147      3.8706718      0.0973375    
 103720000  -92.37873       661.42873      569.05         303.5508       2.3933864      0.0973375    
 103730000  -135.01614      653.03301      518.01686      299.69773      2.5282088      0.0973375    
 103740000  -85.925795      671.03676      585.11097      307.96023      3.9128271      0.0973375    
 103750000  -73.514113      656.07779      582.56368      301.09508      3.7915632      0.0973375    
 103760000  -92.849188      638.51653      545.66734      293.03566      4.4755682      0.0973375    
 103770000  -100.5545       645.14737      544.59287      296.07876     -0.5898564      0.0973375    
 103780000  -55.34998       664.0392       608.68922      304.74883      6.60252        0.0973375    
 103790000  -76.162968      647.92821      571.76525      297.35498      1.7711362      0.0973375    
 103800000  -82.200657      686.96379      604.76313      315.26965     -1.144473       0.0973375    
 103810000  -99.008129      697.97416      598.96603      320.32266      7.9258416      0.0973375    
 103820000  -104.58886      679.25281      574.66395      311.73084      1.4423716      0.0973375    
 103830000  -86.781066      662.97054      576.18948      304.25838     -0.81876937     0.0973375    
 103840000  -43.034301      637.36172      594.32742      292.50568     -4.9946285      0.0973375    
 103850000  -109.14457      661.12099      551.97641      303.40956      8.0120145      0.0973375    
 103860000  -102.229        638.86655      536.63756      293.19629     -3.9721659      0.0973375    
 103870000  -91.155727      663.5267       572.37097      304.51362      0.019294219    0.0973375    
 103880000  -168.18524      650.85559      482.67035      298.69844      5.0788625      0.0973375    
 103890000  -136.44191      662.75066      526.30875      304.15747     -1.6373347      0.0973375    
 103900000  -144.01773      624.5435       480.52578      286.62299     -2.8323234      0.0973375    
 103910000  -175.90662      687.12027      511.21366      315.34147     -3.3624665      0.0973375    
 103920000  -212.97552      651.14429      438.16876      298.83094      0.044468316    0.0973375    
 103930000  -177.9903       658.06288      480.07257      302.0061      -0.22057934     0.0973375    
 103940000  -242.22511      630.76287      388.53776      289.47725      0.72119548     0.0973375    
 103950000  -209.55763      656.31546      446.75783      301.20415      7.5344201      0.0973375    
 103960000  -143.78533      608.93013      465.1448       279.45751     -3.1942958      0.0973375    
 103970000  -145.68807      630.10178      484.41371      289.17386     -3.9578563      0.0973375    
 103980000  -129.42492      693.57021      564.14529      318.30155      3.4291849      0.0973375    
 103990000  -178.69638      640.49843      461.80205      293.94521     -4.7677597      0.0973375    
 104000000  -182.54001      644.51395      461.97394      295.78806      4.3092215      0.0973375    
 104010000  -181.02028      664.27031      483.25004      304.85489      0.54156032     0.0973375    
 104020000  -151.3529       651.50949      500.15659      298.99854      1.5190841      0.0973375    
 104030000  -137.24484      668.18938      530.94454      306.65348      4.0552078      0.0973375    
 104040000  -127.39963      663.50541      536.10578      304.50385      0.94817918     0.0973375    
 104050000  -85.739689      658.79026      573.05057      302.33992      3.1859141      0.0973375    
 104060000  -136.73714      662.35429      525.61715      303.97557      8.0588844      0.0973375    
 104070000  -75.117428      680.19324      605.07582      312.16243      2.9748171      0.0973375    
 104080000  -122.90441      642.48565      519.58124      294.85721      7.3864895      0.0973375    
 104090000  -88.606778      662.80889      574.20211      304.18419      7.8914109      0.0973375    
 104100000  -53.535754      589.12257      535.58681      270.36718      0.31466121     0.0973375    
 104110000  -112.25041      647.01954      534.76913      296.93796      4.6592625      0.0973375    
 104120000  -131.17429      629.51587      498.34158      288.90497      5.1320807      0.0973375    
 104130000  -92.85581       652.36841      559.5126       299.39272      0.043032869    0.0973375    
 104140000  -107.90582      650.17652      542.27069      298.3868      -0.51432915     0.0973375    
 104150000  -69.738166      644.07524      574.33708      295.58673      2.5925057      0.0973375    
 104160000  -71.503662      669.61287      598.10921      307.30676     -0.79774634     0.0973375    
 104170000  -27.372843      657.01943      629.64658      301.52723      6.3860908      0.0973375    
 104180000  -60.073613      664.65876      604.58515      305.03316      2.4979057      0.0973375    
 104190000  -113.32908      650.19448      536.8654       298.39504      0.63840642     0.0973375    
 104200000  -98.790332      654.6271       555.83676      300.42931      2.3904533      0.0973375    
 104210000  -80.240622      635.3366       555.09597      291.57628      0.66447826     0.0973375    
 104220000  -71.39745       669.64599      598.24854      307.32196      2.9494177      0.0973375    
 104230000  -84.803196      662.82663      578.02343      304.19234     -3.6634265      0.0973375    
 104240000  -50.694181      653.56478      602.8706       299.94178      5.2847779      0.0973375    
 104250000  -107.37664      669.40905      562.03242      307.21322      4.8333507      0.0973375    
 104260000  -84.367239      665.23905      580.87181      305.29947     -7.4389847      0.0973375    
 104270000  -88.256133      649.72475      561.46862      298.17947     -3.4128878      0.0973375    
 104280000  -87.673616      644.56485      556.89124      295.81142     -4.8031587      0.0973375    
 104290000  -93.17375       640.38925      547.2155       293.89511      3.9362161      0.0973375    
 104300000  -69.571517      653.90089      584.32937      300.09603      1.2245078      0.0973375    
 104310000  -106.31698      633.29394      526.97696      290.63884     -4.7160061      0.0973375    
 104320000  -47.727501      639.7737       592.0462       293.61261     -2.4216407      0.0973375    
 104330000  -62.558829      692.44705      629.88822      317.78609      1.1092307      0.0973375    
 104340000  -61.480981      665.4003       603.91932      305.37348      1.0910582      0.0973375    
 104350000  -85.666679      631.58134      545.91466      289.85288      0.3954469      0.0973375    
 104360000  -119.69237      649.05543      529.36306      297.87229      6.8070872      0.0973375    
 104370000  -90.371845      699.32318      608.95134      320.94177     -1.0971775      0.0973375    
 104380000  -66.854663      652.12758      585.27292      299.2822       2.7058559      0.0973375    
 104390000  -66.20216       666.57627      600.37411      305.91317      3.1860553      0.0973375    
 104400000  -122.81772      677.18959      554.37187      310.78396      6.2025408      0.0973375    
 104410000  -114.99305      604.76505      489.77201      277.54602     -0.50958965     0.0973375    
 104420000  -146.30222      627.04697      480.74475      287.77191     -0.64955131     0.0973375    
 104430000  -162.90877      677.72597      514.81721      311.03012      4.627994       0.0973375    
 104440000  -159.0591       636.13821      477.07911      291.94417      6.3131171      0.0973375    
 104450000  -139.94141      672.29069      532.34928      308.5357      -1.8843286      0.0973375    
 104460000  -128.54742      701.91942      573.372        322.13327      3.3661342      0.0973375    
 104470000  -145.95032      695.28876      549.33845      319.09025     -3.7502951      0.0973375    
 104480000  -126.63365      626.01839      499.38474      287.29986      0.3768707      0.0973375    
 104490000  -169.38179      704.89847      535.51668      323.50045      3.4985396      0.0973375    
 104500000  -168.40279      678.39307      509.99028      311.33627      2.9859918      0.0973375    
 104510000  -108.5668       652.61038      544.04358      299.50378     -0.097474557    0.0973375    
 104520000  -152.00179      634.38394      482.38215      291.13908     -8.7204721      0.0973375    
 104530000  -149.95563      666.35255      516.39692      305.81049      0.91276312     0.0973375    
 104540000  -108.42858      632.72943      524.30085      290.37977      1.5289146      0.0973375    
 104550000  -151.20194      639.66383      488.46189      293.56219     -6.3206666      0.0973375    
 104560000  -133.54911      671.90665      538.35754      308.35945      3.7047582      0.0973375    
 104570000  -147.23669      666.76588      519.52919      306.00019      0.28196737     0.0973375    
 104580000  -129.61456      652.90637      523.29182      299.63961     -1.8761867      0.0973375    
 104590000  -120.50864      629.55878      509.05013      288.92465     -1.0126875      0.0973375    
 104600000  -100.66291      668.90102      568.23812      306.98007      6.9632208      0.0973375    
 104610000  -94.126026      665.29239      571.16636      305.32395      3.0234935      0.0973375    
 104620000  -63.420025      616.97175      553.55172      283.14806     -4.253809       0.0973375    
 104630000  -71.761311      615.57814      543.81683      282.50849      4.4292296      0.0973375    
 104640000  -83.664323      655.07376      571.40944      300.6343       6.4776022      0.0973375    
 104650000  -87.959623      629.88164      541.92202      289.07283      1.329396       0.0973375    
 104660000  -90.363682      666.16019      575.79651      305.72221      5.6755433      0.0973375    
 104670000  -123.55695      662.9451       539.38815      304.24671      1.5466229      0.0973375    
 104680000  -95.660658      675.72137      580.06071      310.11015      4.7365589      0.0973375    
 104690000  -88.266125      660.46157      572.19545      303.10694     -3.4594567      0.0973375    
 104700000  -123.20017      642.69058      519.49041      294.95126      0.28274249     0.0973375    
 104710000  -109.3279       632.31767      522.98977      290.1908      -1.9393351      0.0973375    
 104720000  -101.61349      645.56341      543.94992      296.26969      0.042661976    0.0973375    
 104730000  -59.219882      669.3179       610.09802      307.17139     -0.7320984      0.0973375    
 104740000  -100.21772      679.08437      578.86665      311.65353      1.2522537      0.0973375    
 104750000  -83.130017      616.58253      533.45251      282.96944     -6.1610236      0.0973375    
 104760000  -107.25816      614.68794      507.42978      282.09995      4.0864853      0.0973375    
 104770000  -87.190372      640.67464      553.48427      294.02608      0.3398069      0.0973375    
 104780000  -82.076961      641.30935      559.23238      294.31737      0.81871205     0.0973375    
 104790000  -85.641839      669.04757      583.40574      307.04733      0.91821566     0.0973375    
 104800000  -79.807596      659.47202      579.66442      302.6528       1.1952815      0.0973375    
 104810000  -116.25975      692.20755      575.9478       317.67618      1.6500143      0.0973375    
 104820000  -108.73384      659.58747      550.85363      302.70578      0.42008692     0.0973375    
 104830000  -128.98197      671.86617      542.88421      308.34087      6.8498937      0.0973375    
 104840000  -51.627942      636.88945      585.26151      292.28894      2.0425332      0.0973375    
 104850000  -52.50401       666.2831       613.77909      305.77862      0.35570226     0.0973375    
 104860000  -56.697084      647.50365      590.80656      297.16013     -0.92257552     0.0973375    
 104870000  -50.170767      644.26678      594.09602      295.67463      4.2635928      0.0973375    
 104880000  -22.827178      640.46258      617.6354       293.92876     -0.2201283      0.0973375    
 104890000  -13.537706      668.98482      655.44711      307.01853      9.0027701      0.0973375    
 104900000  -20.126883      627.64499      607.5181       288.04636      2.2542749      0.0973375    
 104910000  -68.303594      641.45373      573.15014      294.38363     -0.90194106     0.0973375    
 104920000  -21.547666      683.01299      661.46533      313.45651     -1.9856278      0.0973375    
 104930000  -22.904527      665.78125      642.87673      305.54831     -2.9720841      0.0973375    
 104940000  -48.466373      645.38204      596.91566      296.18646      3.8698414      0.0973375    
 104950000  -19.132614      656.57525      637.44264      301.32338     -0.90890278     0.0973375    
 104960000  -10.672652      678.98563      668.31298      311.60822     -2.1612945      0.0973375    
 104970000  -9.7619892      651.55833      641.79634      299.02095     -2.2673657      0.0973375    
 104980000   34.414756      656.74491      691.15967      301.40124      2.6439421      0.0973375    
 104990000  -29.916472      609.43297      579.5165       279.68828      4.3521031      0.0973375    
 105000000  -21.476942      647.3178       625.84085      297.07484     -0.81963372     0.0973375    
Loop time of 19382.4 on 4 procs for 100000000 steps with 732 atoms

Performance: 4457.659 ns/day, 0.005 hours/ns, 5159.327 timesteps/s, 3.777 Matom-step/s
99.7% CPU use with 4 MPI tasks x 1 OpenMP threads

MPI task timing breakdown:
Section |  min time  |  avg time  |  max time  |%varavg| %total
---------------------------------------------------------------
Pair    | 11398      | 12093      | 12372      | 367.0 | 62.39
Bond    | 1210.8     | 1246.7     | 1269.9     |  66.8 |  6.43
Neigh   | 54.062     | 54.085     | 54.108     |   0.3 |  0.28
Comm    | 5161.1     | 5473.9     | 6220.3     | 587.1 | 28.24
Output  | 1.4261     | 1.8341     | 2.947      |  47.5 |  0.01
Modify  | 430.98     | 449.05     | 460.46     |  54.7 |  2.32
Other   |            | 63.61      |            |       |  0.33

Nlocal:            183 ave         255 max         143 min
Histogram: 2 0 0 1 0 0 0 0 0 1
Nghost:         636.75 ave         674 max         588 min
Histogram: 1 0 0 0 1 0 0 1 0 1
Neighs:           1350 ave        2243 max         639 min
Histogram: 1 0 1 0 1 0 0 0 0 1

Total # of neighbors = 5400
Ave neighs/atom = 7.3770492
Ave special neighs/atom = 4.3442623
Neighbor list builds = 203345
Dangerous builds = 0

write_data outputs/${tag}_final.data
write_data outputs/100ASO_truncated_unmodified_final.data
System init for write_data ...
Generated 0 of 6 mixed pair_coeff terms from geometric mixing rule
Total wall time: 5:39:22
