
# ===============================
# FORCE FIELD (must re-specify after restart)
# ===============================
bond_style harmonic
bond_coeff 1 7.5 5.9

angle_style harmonic
angle_coeff 1 5.0 150.0

pair_style hybrid/overlay lj/cut 10.0 base/rna 18.0
pair_modify shift yes
pair_coeff * * lj/cut 2.0 8.9089871814

pair_coeff 1 1 base/rna 0.00000 3.0 13.8 1.5 0.5 1.8326 0.9425 1.8326 1.1345
pair_coeff 1 2 base/rna 0.00000 3.0 13.8 1.5 0.5 1.8326 0.9425 1.8326 1.1345
pair_coeff 1 3 base/rna 0.00000 3.0 13.8 1.5 0.5 1.8326 0.9425 1.8326 1.1345
pair_coeff 1 4 base/rna 3.33333 3.0 13.8 1.5 0.5 1.8326 0.9425 1.8326 1.1345
pair_coeff 2 2 base/rna 0.00000 3.0 13.8 1.5 0.5 1.8326 0.9425 1.8326 1.1345
pair_coeff 2 3 base/rna 5.00000 3.0 13.8 1.5 0.5 1.8326 0.9425 1.8326 1.1345
pair_coeff 2 4 base/rna 0.00000 3.0 13.8 1.5 0.5 1.8326 0.9425 1.8326 1.1345
pair_coeff 3 3 base/rna 0.00000 3.0 13.8 1.5 0.5 1.8326 0.9425 1.8326 1.1345
pair_coeff 3 4 base/rna 3.33333 3.0 13.8 1.5 0.5 1.8326 0.9425 1.8326 1.1345
pair_coeff 4 4 base/rna 0.00000 3.0 13.8 1.5 0.5 1.8326 0.9425 1.8326 1.1345

special_bonds lj 0.0 0.0 1.0
neighbor 15.0 bin
neigh_modify every 10 delay 0
comm_style tiled
timestep 10

# ===============================
# OUTPUTS
# Separate trajectory file for restart portion
# ===============================
dump d1 all custom 50000 outputs/${tag}_restart.lammpstrj id mol type q xu yu zu
dump d1 all custom 50000 outputs/100ASO_mismatch_U5C_unmodified_restart.lammpstrj id mol type q xu yu zu
dump_modify d1 sort id

thermo_style custom step pe ke etotal temp press density
thermo 10000
thermo_modify flush yes

variable vpe equal pe
variable vke equal ke
variable vT  equal temp
variable vE  equal etotal
variable vRg equal gyration(all)

fix favg all ave/time 10000 10 100000 v_vpe v_vke v_vT v_vE v_vRg     file outputs/thermo_${tag}_production_restart.dat
fix favg all ave/time 10000 10 100000 v_vpe v_vke v_vT v_vE v_vRg     file outputs/thermo_100ASO_mismatch_U5C_unmodified_production_restart.dat

# ===============================
# PRODUCTION (continued)
# ===============================
fix fxlang all langevin ${T_target} ${T_target} 1000.0 43425
fix fxlang all langevin 300 ${T_target} 1000.0 43425
fix fxlang all langevin 300 300 1000.0 43425
fix fxnve  all nve
fix recenter all momentum 1000 linear 1 1 1

restart 10000000 outputs/backup_${tag}_restart.*.restart
restart 10000000 outputs/backup_100ASO_mismatch_U5C_unmodified_restart.*.restart

# UPDATE THIS: 100000000 - actual step in restart filename
run 10000000
Generated 0 of 6 mixed pair_coeff terms from geometric mixing rule
Neighbor list info ...
  update: every = 10 steps, delay = 0 steps, check = yes
  max neighbors/atom: 2000, page size: 100000
  master list distance cutoff = 33
  ghost atom cutoff = 33
  binsize = 16.5, bins = 10 10 10
  2 neighbor lists, perpetual/occasional/extra = 2 0 0
  (1) pair lj/cut, perpetual, trim from (2)
      attributes: half, newton on, cut 25
      pair build: trim
      stencil: none
      bin: none
  (2) pair base/rna, perpetual
      attributes: half, newton on
      pair build: half/bin/newton
      stencil: half/bin/3d
      bin: standard
Per MPI rank memory allocation (min/avg/max) = 7.315 | 7.316 | 7.32 Mbytes
   Step         PotEng         KinEng         TotEng          Temp          Press         Density    
  90000000  -266.24787      917.25179      651.00392      298.4665       6.387607       0.13453746   
  90010000  -337.6503       895.04365      557.39335      291.24015     -0.20257028     0.13453746   
  90020000  -294.9681       897.57142      602.60332      292.06267      0.31836338     0.13453746   
  90030000  -322.2714       959.85962      637.58822      312.33076      1.7623207      0.13453746   
  90040000  -364.97349      923.13953      558.16603      300.38233     -4.7699083      0.13453746   
  90050000  -334.53747      887.48173      552.94425      288.77956      4.3154482      0.13453746   
  90060000  -318.4681       908.95833      590.49023      295.76788     -3.8369692      0.13453746   
  90070000  -286.64021      959.7138       673.07359      312.28331      6.2690083      0.13453746   
  90080000  -314.21267      902.70385      588.49118      293.73272     -0.319331       0.13453746   
  90090000  -252.66789      928.18749      675.5196       302.02489     -5.7885127      0.13453746   
  90100000  -298.96108      922.9334       623.97232      300.31526      6.5164518      0.13453746   
  90110000  -335.7392       918.62626      582.88706      298.91375     -0.16341523     0.13453746   
  90120000  -360.70669      893.56506      532.85837      290.75903     -9.729525       0.13453746   
  90130000  -323.23963      961.85033      638.61071      312.97852      8.7269202      0.13453746   
  90140000  -339.75146      951.86961      612.11815      309.73087     -4.232268       0.13453746   
  90150000  -365.00137      892.81906      527.81768      290.51629     -0.33183925     0.13453746   
  90160000  -369.48016      920.64876      551.1686       299.57185      7.5423067      0.13453746   
  90170000  -371.19905      936.89494      565.69589      304.85823     -1.0683027      0.13453746   
  90180000  -335.01716      912.74169      577.72453      296.99895     -1.3084177      0.13453746   
  90190000  -352.05806      935.02975      582.97169      304.25132     -5.1675122      0.13453746   
  90200000  -340.92657      912.07292      571.14635      296.78134      0.11908647     0.13453746   
  90210000  -375.01315      891.30836      516.29521      290.02472      0.25520212     0.13453746   
  90220000  -336.22021      926.25903      590.03882      301.39739      3.9327743      0.13453746   
  90230000  -363.00047      860.82442      497.82395      280.10548      2.1528183      0.13453746   
  90240000  -306.61738      928.29196      621.67458      302.05889      0.26413733     0.13453746   
  90250000  -368.55436      927.4851       558.93074      301.79635     -1.3684772      0.13453746   
  90260000  -361.86187      922.61398      560.75211      300.21132      2.2650569      0.13453746   
  90270000  -323.80739      934.75059      610.9432       304.16048      2.2510639      0.13453746   
  90280000  -324.34465      942.01861      617.67397      306.52544      6.6990754      0.13453746   
  90290000  -379.65225      888.43143      508.77918      289.08859      4.2010945      0.13453746   
  90300000  -310.00542      924.48512      614.4797       300.82017      6.1484438      0.13453746   
  90310000  -337.95129      927.13383      589.18255      301.68204      1.623595       0.13453746   
  90320000  -360.25512      913.65096      553.39584      297.29482     -1.7658402      0.13453746   
  90330000  -284.30355      900.86278      616.55923      293.13365     -2.6171944      0.13453746   
  90340000  -313.27984      922.38797      609.10812      300.13778     -0.08406426     0.13453746   
  90350000  -300.38207      926.29794      625.91586      301.41005      4.6138034      0.13453746   
  90360000  -307.08127      925.77087      618.6896       301.23855     -0.49418268     0.13453746   
  90370000  -295.74486      910.98047      615.23561      296.42587      0.48729357     0.13453746   
  90380000  -341.69259      964.7215       623.02891      313.91277      6.6287935      0.13453746   
  90390000  -331.13629      956.44293      625.30664      311.21899      3.5359441      0.13453746   
  90400000  -331.32719      938.80295      607.47576      305.47908     -0.10160354     0.13453746   
  90410000  -379.96477      915.70886      535.74409      297.96445     -5.5429317      0.13453746   
  90420000  -405.92318      911.26287      505.3397       296.51776     -1.2910859      0.13453746   
  90430000  -405.69176      966.90213      561.21037      314.62234     -1.0289096      0.13453746   
  90440000  -429.56058      896.97265      467.41207      291.86783      2.6119944      0.13453746   
  90450000  -389.76881      945.92783      556.15901      307.79746     -0.29245105     0.13453746   
  90460000  -322.92505      924.94431      602.01926      300.96959      0.4692198      0.13453746   
  90470000  -385.30515      909.3608       524.05565      295.89884     -3.9291915      0.13453746   
  90480000  -372.21655      948.32294      576.10639      308.57681     -6.7706733      0.13453746   
  90490000  -401.08981      943.38733      542.29752      306.9708       3.3724537      0.13453746   
  90500000  -357.87724      941.8622       583.98496      306.47454      0.0080276318   0.13453746   
  90510000  -329.66527      916.82254      587.15727      298.32683      8.6033412      0.13453746   
  90520000  -359.09295      908.01152      548.91857      295.45979      2.2171919      0.13453746   
  90530000  -297.55528      931.65892      634.10363      303.15447      2.2244333      0.13453746   
  90540000  -350.1755       944.48054      594.30505      307.32653     -4.0937098      0.13453746   
  90550000  -332.48178      985.01596      652.53417      320.51643      0.23100454     0.13453746   
  90560000  -316.56897      867.68222      551.11325      282.33696      4.5205984      0.13453746   
  90570000  -368.93874      940.47684      571.5381       306.02375      0.22169703     0.13453746   
  90580000  -350.17783      916.80423      566.6264       298.32087      3.7627992      0.13453746   
  90590000  -372.30737      957.95454      585.64718      311.71086      7.1594839      0.13453746   
  90600000  -348.25278      899.73014      551.47736      292.7651       3.3345718      0.13453746   
  90610000  -309.14235      941.03951      631.89716      306.20684     -0.7113978      0.13453746   
  90620000  -357.67577      943.76447      586.0887       307.09352      2.5046944      0.13453746   
  90630000  -365.41784      937.57694      572.1591       305.08015      6.5064299      0.13453746   
  90640000  -355.02906      884.41454      529.38548      287.78152      3.4244577      0.13453746   
  90650000  -362.15176      961.12737      598.97561      312.74327     -2.1046804      0.13453746   
  90660000  -313.88729      887.50422      573.61693      288.78688     -4.6007342      0.13453746   
  90670000  -352.38442      875.75355      523.36913      284.96331      4.8839485      0.13453746   
  90680000  -401.30776      947.58529      546.27754      308.33679      6.9723018      0.13453746   
  90690000  -344.27465      933.84612      589.57147      303.86617      7.1795645      0.13453746   
  90700000  -411.54152      906.97385      495.43234      295.12215     -4.7754499      0.13453746   
  90710000  -379.82896      908.20733      528.37837      295.52351     -4.1142735      0.13453746   
  90720000  -427.91508      876.08528      448.17021      285.07125      5.5930542      0.13453746   
  90730000  -366.97867      898.80296      531.82429      292.4634      -0.48837136     0.13453746   
  90740000  -331.83459      914.10803      582.27345      297.44355     -1.0009714      0.13453746   
  90750000  -393.47803      939.30273      545.8247       305.64171     -5.2095645      0.13453746   
  90760000  -368.84496      883.59302      514.74806      287.51421      1.4460635      0.13453746   
  90770000  -364.63564      951.11535      586.47972      309.48544      3.0541199      0.13453746   
  90780000  -328.89435      904.04687      575.15252      294.16973      5.4493669      0.13453746   
  90790000  -395.94886      966.42168      570.47282      314.466        10.330677      0.13453746   
  90800000  -327.88005      900.3963       572.51625      292.98186     -4.7191367      0.13453746   
  90810000  -389.55621      927.36055      537.80433      301.75582      5.5215192      0.13453746   
  90820000  -409.43378      899.35103      489.91725      292.64174      3.3114894      0.13453746   
  90830000  -412.73048      919.36592      506.63545      299.15443     -0.44117282     0.13453746   
  90840000  -381.77329      894.6659       512.89261      291.11724      0.13412585     0.13453746   
  90850000  -414.54167      928.19931      513.65764      302.02874     -8.7671656      0.13453746   
  90860000  -400.0631       924.67196      524.60886      300.88097      1.4369702      0.13453746   
  90870000  -398.88959      918.8034       519.91381      298.97139      8.91174        0.13453746   
  90880000  -347.95435      912.21575      564.2614       296.82782     -4.0397718      0.13453746   
  90890000  -311.74756      942.77382      631.02626      306.77117      2.0516422      0.13453746   
  90900000  -307.80571      903.23874      595.43304      293.90677      0.82674481     0.13453746   
  90910000  -385.8616       922.84373      536.98213      300.28608      7.370037       0.13453746   
  90920000  -368.44854      844.12337      475.67483      274.67109      0.53808916     0.13453746   
  90930000  -355.13344      935.83218      580.69874      304.51242     -3.3975324      0.13453746   
  90940000  -345.29813      887.21761      541.91948      288.69362      3.5013849      0.13453746   
  90950000  -369.39187      901.36435      531.97249      293.29686      4.9781398      0.13453746   
  90960000  -343.64407      893.22471      549.58064      290.64828      0.26053011     0.13453746   
  90970000  -366.40815      946.40793      579.99979      307.95369     -1.5365083      0.13453746   
  90980000  -360.93528      887.81719      526.88191      288.88872      1.2751439      0.13453746   
  90990000  -328.25458      931.83178      603.5772       303.21072      1.2320314      0.13453746   
  91000000  -335.08686      931.67141      596.58454      303.15853     -2.4281115      0.13453746   
  91010000  -376.20361      935.93512      559.73151      304.54591      5.7665877      0.13453746   
  91020000  -401.99677      916.76356      514.76679      298.30764     -1.9459439      0.13453746   
  91030000  -343.207        901.35182      558.14482      293.29278      1.9037019      0.13453746   
  91040000  -373.4604       912.6808       539.2204       296.97914     -2.3811265      0.13453746   
  91050000  -394.54595      925.01591      530.46996      300.99289     -1.5875306      0.13453746   
  91060000  -379.43084      986.52096      607.09012      321.00615     -3.6264986      0.13453746   
  91070000  -419.35191      921.99309      502.64118      300.00929     -1.0057211      0.13453746   
  91080000  -321.39875      947.12614      625.72739      308.18738      3.8407208      0.13453746   
  91090000  -369.92084      921.22917      551.30833      299.76071     -0.34030768     0.13453746   
  91100000  -334.56315      958.13339      623.57024      311.76906     -4.3735013      0.13453746   
  91110000  -467.62012      900.32872      432.70859      292.95987      2.8942159      0.13453746   
  91120000  -335.56368      916.24466      580.68098      298.13879      7.2641231      0.13453746   
  91130000  -331.08567      929.42899      598.34332      302.42887     -1.5318261      0.13453746   
  91140000  -417.98357      916.78312      498.79955      298.314        4.2412356      0.13453746   
  91150000  -370.3571       886.02696      515.66986      288.30619     -8.0257678      0.13453746   
  91160000  -398.64404      924.89259      526.24855      300.95276      0.95987692     0.13453746   
  91170000  -397.1055       939.4919       542.3864       305.70326      1.172964       0.13453746   
  91180000  -393.71668      925.84668      532.13001      301.26322      2.414347       0.13453746   
  91190000  -357.00577      921.13999      564.13422      299.7317       2.9453848      0.13453746   
  91200000  -355.45556      952.62206      597.16651      309.97571     -7.2775104      0.13453746   
  91210000  -404.24158      921.80418      517.5626       299.94782      2.4275582      0.13453746   
  91220000  -380.76864      859.82876      479.06012      279.7815       14.136117      0.13453746   
  91230000  -349.50748      941.79772      592.29024      306.45356     -4.3763369      0.13453746   
  91240000  -365.3882       926.35116      560.96296      301.42737     -0.70545347     0.13453746   
  91250000  -436.70383      919.52159      482.81776      299.20508      2.4457133      0.13453746   
  91260000  -407.67452      896.05064      488.37612      291.56782      3.3806588      0.13453746   
  91270000  -405.17616      880.19193      475.01577      286.40752     -9.8587461      0.13453746   
  91280000  -387.20075      944.095        556.89424      307.20107      5.3265692      0.13453746   
  91290000  -348.82085      953.1357       604.31485      310.14285      2.7955261      0.13453746   
  91300000  -373.13469      874.99931      501.86462      284.71788      12.022782      0.13453746   
  91310000  -414.83828      937.91044      523.07216      305.18867      8.7045947      0.13453746   
  91320000  -427.17673      945.56394      518.3872       307.67906      0.12441569     0.13453746   
  91330000  -379.60931      920.70408      541.09478      299.58985     -0.73018471     0.13453746   
  91340000  -352.02669      937.62866      585.60197      305.09698     -1.0712078      0.13453746   
  91350000  -443.66244      939.48872      495.82628      305.70223     -2.262724       0.13453746   
  91360000  -339.10648      929.31072      590.20424      302.39039      1.1239317      0.13453746   
  91370000  -364.87198      917.67447      552.80249      298.60404      4.6338697      0.13453746   
  91380000  -378.30988      907.32315      529.01327      295.2358      -0.48947984     0.13453746   
  91390000  -344.16638      925.95564      581.78926      301.29867      1.0046271      0.13453746   
  91400000  -306.14571      911.20998      605.06427      296.50055      0.99790179     0.13453746   
  91410000  -397.1056       917.63754      520.53194      298.59203      6.1567934      0.13453746   
  91420000  -431.15115      921.29334      490.14219      299.7816       7.741264       0.13453746   
  91430000  -386.50978      951.43924      564.92945      309.59083     -6.8494187      0.13453746   
  91440000  -374.00596      901.20674      527.20079      293.24557     -6.8437598      0.13453746   
  91450000  -365.21802      956.135        590.91698      311.1188       2.0388261      0.13453746   
  91460000  -392.79579      905.85374      513.05796      294.75767      6.9192409      0.13453746   
  91470000  -372.64984      910.26392      537.61408      296.19271      3.551854       0.13453746   
  91480000  -412.96117      931.56393      518.60276      303.12356     -1.232371       0.13453746   
  91490000  -381.21843      934.01337      552.79494      303.92059     -1.2644895      0.13453746   
  91500000  -328.08549      917.06316      588.97766      298.40513     -8.7989536      0.13453746   
  91510000  -410.70907      909.72673      499.01765      296.01791      1.3064831      0.13453746   
  91520000  -404.70287      914.54363      509.84075      297.58529     -4.2715937      0.13453746   
  91530000  -400.16322      887.73339      487.57018      288.86145      6.489086       0.13453746   
  91540000  -427.60573      922.43806      494.83234      300.15408     -2.475485       0.13453746   
  91550000  -404.33812      911.44496      507.10684      296.57701      2.5643173      0.13453746   
  91560000  -462.52797      884.45605      421.92808      287.79503      1.7741801      0.13453746   
  91570000  -369.66561      918.85763      549.19202      298.98903     -6.7118828      0.13453746   
  91580000  -403.30033      934.34558      531.04526      304.02869     -7.6232613      0.13453746   
  91590000  -414.87952      908.42777      493.54825      295.59524     -0.43109456     0.13453746   
  91600000  -396.6624       891.39526      494.73286      290.05299      2.2109248      0.13453746   
  91610000  -379.67336      906.30484      526.63147      294.90445      3.7202081      0.13453746   
  91620000  -403.14197      917.00334      513.86138      298.38566     -2.2239679      0.13453746   
  91630000  -396.56597      914.64812      518.08215      297.61929     -3.8106547      0.13453746   
  91640000  -397.64185      913.26501      515.62316      297.16924      2.5429144      0.13453746   
  91650000  -413.86801      920.31272      506.44471      299.46251      1.7487655      0.13453746   
  91660000  -400.54288      907.08509      506.54221      295.15834     -0.52873559     0.13453746   
  91670000  -411.61531      960.10721      548.4919       312.41132      2.619564       0.13453746   
  91680000  -400.31438      893.98995      493.67557      290.89729      1.2136717      0.13453746   
  91690000  -499.59341      910.20282      410.60941      296.17283     -10.086984      0.13453746   
  91700000  -441.1569       911.66296      470.50605      296.64794      7.1364511      0.13453746   
  91710000  -393.94625      939.03008      545.08383      305.55299      4.1409005      0.13453746   
  91720000  -357.93536      972.53186      614.5965       316.45421      8.7692974      0.13453746   
  91730000  -380.76171      928.89208      548.13037      302.25416      3.6023896      0.13453746   
  91740000  -449.08933      881.6449       432.55557      286.8803       3.4873374      0.13453746   
  91750000  -442.42648      900.93275      458.50627      293.15642     -1.6904767      0.13453746   
  91760000  -427.64243      913.49882      485.85639      297.24532     -4.8822225      0.13453746   
  91770000  -416.32913      942.32361      525.99448      306.62468     -2.0128807      0.13453746   
  91780000  -402.72311      896.43953      493.71643      291.69436     -7.7285672      0.13453746   
  91790000  -466.54753      933.55866      467.01113      303.77263     -1.4438997      0.13453746   
  91800000  -440.73038      878.33568      437.6053       285.80351     -2.6930384      0.13453746   
  91810000  -443.07755      934.03184      490.95429      303.9266       0.37814196     0.13453746   
  91820000  -412.93282      885.48855      472.55573      288.131        2.7842731      0.13453746   
  91830000  -455.16918      898.61582      443.44665      292.40251      11.735611      0.13453746   
  91840000  -447.63779      888.82763      441.18984      289.21751     -3.9201958      0.13453746   
  91850000  -439.39713      909.16021      469.76308      295.83357     -6.7544475      0.13453746   
  91860000  -402.70342      915.32527      512.62185      297.83963     -4.1459277      0.13453746   
  91870000  -423.24962      924.3151       501.06548      300.76485     -0.27804868     0.13453746   
  91880000  -406.07113      924.13966      518.06853      300.70776      1.5385551      0.13453746   
  91890000  -432.91141      941.71897      508.80756      306.42793      3.4994259      0.13453746   
  91900000  -461.00861      937.74884      476.74023      305.13608      6.0050256      0.13453746   
  91910000  -384.02099      918.7036       534.68261      298.93891      1.0539721      0.13453746   
  91920000  -367.49107      931.83198      564.34092      303.21079     -1.8179225      0.13453746   
  91930000  -396.9175       906.83437      509.91687      295.07676      5.2378         0.13453746   
  91940000  -413.47766      918.46463      504.98696      298.86115      6.8829786      0.13453746   
  91950000  -369.61602      874.58399      504.96798      284.58274     -0.55834543     0.13453746   
  91960000  -415.14696      893.55637      478.40941      290.7562      -3.2891318      0.13453746   
  91970000  -379.2298       931.87766      552.64786      303.22565      5.1737813      0.13453746   
  91980000  -399.49068      885.8786       486.38792      288.25792     -2.4548445      0.13453746   
  91990000  -338.79238      915.06416      576.27178      297.75467      4.0635798      0.13453746   
  92000000  -368.7324       901.60054      532.86814      293.37371      3.3067672      0.13453746   
  92010000  -351.59104      895.27949      543.68845      291.31689      8.8759875      0.13453746   
  92020000  -341.41035      953.92899      612.51864      310.40098      1.0952888      0.13453746   
  92030000  -339.07652      901.68269      562.60617      293.40044     -4.0732953      0.13453746   
  92040000  -383.85343      910.98284      527.12941      296.42664      5.2148702      0.13453746   
  92050000  -359.31322      924.58917      565.27594      300.85403      5.8453537      0.13453746   
  92060000  -340.44485      896.40782      555.96297      291.68404     -3.8739064      0.13453746   
  92070000  -404.24597      911.11602      506.87005      296.46997     -4.1199701      0.13453746   
  92080000  -384.79306      946.70144      561.90838      308.04919     -10.280547      0.13453746   
  92090000  -353.59881      971.53836      617.93955      316.13093      1.9130213      0.13453746   
  92100000  -387.10176      936.19426      549.09251      304.63024      1.9543531      0.13453746   
  92110000  -371.91541      889.43251      517.51711      289.41433      2.2373934      0.13453746   
  92120000  -372.75017      940.37854      567.62836      305.99177     -0.61236827     0.13453746   
  92130000  -329.46671      877.01276      547.54605      285.37304     -9.4036295      0.13453746   
  92140000  -322.43341      907.53676      585.10334      295.30531      0.53277291     0.13453746   
  92150000  -358.23708      944.60729      586.37021      307.36777     -0.9167506      0.13453746   
  92160000  -368.25767      899.75426      531.49658      292.77295     -0.81548792     0.13453746   
  92170000  -398.68935      926.41606      527.72671      301.44849     -1.696739       0.13453746   
  92180000  -358.24651      944.97305      586.72654      307.48679      2.4524762      0.13453746   
  92190000  -385.23917      929.1767       543.93753      302.34678      0.55052402     0.13453746   
  92200000  -362.791        924.13402      561.34302      300.70593     -0.19976813     0.13453746   
  92210000  -358.75798      978.33018      619.5722       318.34093      3.4108718      0.13453746   
  92220000  -400.28687      945.53335      545.24648      307.6691       0.19701794     0.13453746   
  92230000  -295.97011      911.10979      615.13968      296.46795      0.93922974     0.13453746   
  92240000  -334.27916      974.41898      640.13982      317.06826      4.8877786      0.13453746   
  92250000  -330.29778      941.25255      610.95477      306.27616     -1.8935082      0.13453746   
  92260000  -354.22555      895.32675      541.10119      291.33227      1.6302159      0.13453746   
  92270000  -323.2657       946.34174      623.07604      307.93215      8.5882652      0.13453746   
  92280000  -332.93097      943.67923      610.74826      307.06579      1.9908586      0.13453746   
  92290000  -282.73024      924.20823      641.47799      300.73008     -2.6235362      0.13453746   
  92300000  -301.11806      956.48727      655.36922      311.23342     -2.0767071      0.13453746   
  92310000  -290.44376      878.89029      588.44653      285.98398     -2.4474655      0.13453746   
  92320000  -307.41216      906.88673      599.47457      295.0938       2.982455       0.13453746   
  92330000  -288.35962      950.64557      662.28595      309.33258     -0.075679199    0.13453746   
  92340000  -311.30536      892.01553      580.71017      290.25483      2.1161089      0.13453746   
  92350000  -313.08719      912.0755       598.98831      296.78218      0.78915603     0.13453746   
  92360000  -311.93291      899.77254      587.83963      292.7789      -3.1452426      0.13453746   
  92370000  -307.09055      892.28992      585.19937      290.34411     -3.9476016      0.13453746   
  92380000  -314.05203      905.33227      591.28024      294.58799     -0.41413376     0.13453746   
  92390000  -318.81217      863.56467      544.7525       280.99714      11.138566      0.13453746   
  92400000  -318.47499      964.46605      645.99106      313.82965     -1.499815       0.13453746   
  92410000  -267.14054      933.06537      665.92483      303.61212      4.4598488      0.13453746   
  92420000  -329.95459      942.58885      612.63426      306.71099      5.8329953      0.13453746   
  92430000  -346.26111      908.41936      562.15824      295.5925      -6.7765485      0.13453746   
  92440000  -259.22378      914.16013      654.93635      297.46051     -8.8397342      0.13453746   
  92450000  -296.94924      930.90665      633.95741      302.90969      7.9242239      0.13453746   
  92460000  -256.45872      922.88149      666.42277      300.29837      7.3338265      0.13453746   
  92470000  -302.18421      920.58979      618.40557      299.55266     -0.89310638     0.13453746   
  92480000  -283.22196      898.01267      614.79072      292.20625      4.8832879      0.13453746   
  92490000  -260.83983      979.89799      719.05816      318.85109      1.9792819      0.13453746   
  92500000  -302.11709      895.82647      593.70939      291.49488      5.1394803      0.13453746   
  92510000  -314.75267      878.80667      564.054        285.95677      3.3989346      0.13453746   
  92520000  -357.2104       944.08509      586.87469      307.19785      5.0702664      0.13453746   
  92530000  -341.81509      910.66858      568.85349      296.32438     -2.9923746      0.13453746   
  92540000  -332.72084      952.82976      620.10892      310.0433      -0.69209617     0.13453746   
  92550000  -375.91426      929.70682      553.79256      302.51927     -5.7383915      0.13453746   
  92560000  -365.16245      893.68156      528.5191       290.79694      5.2101368      0.13453746   
  92570000  -342.07358      936.79257      594.71899      304.82492      0.76894888     0.13453746   
  92580000  -333.65747      949.05518      615.39771      308.81508      5.7468609      0.13453746   
  92590000  -326.75145      914.46004      587.7086       297.55809      0.29770562     0.13453746   
  92600000  -310.71656      919.70711      608.99055      299.26545     -1.8310566      0.13453746   
  92610000  -371.6043       898.92108      527.31678      292.50184      4.0371048      0.13453746   
  92620000  -317.32654      935.34078      618.01424      304.35252     -1.7890123      0.13453746   
  92630000  -246.01301      879.77777      633.76477      286.27276     -2.518773       0.13453746   
  92640000  -285.31767      896.91393      611.59626      291.84873      1.6777103      0.13453746   
  92650000  -308.65497      954.58517      645.93021      310.61449      2.9012554      0.13453746   
  92660000  -249.29464      920.57432      671.27968      299.54763     -4.3613368      0.13453746   
  92670000  -302.96933      920.53571      617.56637      299.53507     -8.0125379      0.13453746   
  92680000  -268.34263      884.15648      615.81385      287.69755      8.8569878      0.13453746   
  92690000  -248.41049      909.91875      661.50826      296.08039      1.9439848      0.13453746   
  92700000  -274.33976      917.14918      642.80942      298.43312      10.764513      0.13453746   
  92710000  -323.36262      948.33145      624.96882      308.57958     -2.5802581      0.13453746   
  92720000  -298.44707      920.37423      621.92716      299.48252     -2.7365811      0.13453746   
  92730000  -309.73087      943.86898      634.13811      307.12753      6.9164548      0.13453746   
  92740000  -350.25212      936.40062      586.14851      304.69739     -3.8297487      0.13453746   
  92750000  -298.41783      930.91721      632.49939      302.91313      11.42589       0.13453746   
  92760000  -309.61078      922.4159       612.80512      300.14687     -0.39732154     0.13453746   
  92770000  -372.77389      922.30622      549.53233      300.11118     -4.8410698      0.13453746   
  92780000  -301.01533      913.39316      612.37783      297.21094      9.9838102      0.13453746   
  92790000  -337.98562      942.76482      604.7792       306.76825      0.38006584     0.13453746   
  92800000  -330.49066      947.77551      617.28485      308.39868      4.6622628      0.13453746   
  92810000  -296.04592      920.17798      624.13206      299.41866      4.1280585      0.13453746   
  92820000  -313.00388      950.05442      637.05055      309.14022     -0.2630356      0.13453746   
  92830000  -372.38845      924.50825      552.11981      300.8277      -1.2020327      0.13453746   
  92840000  -270.67822      924.34154      653.66332      300.77346      10.96308       0.13453746   
  92850000  -290.75278      947.93138      657.1786       308.4494       1.4954092      0.13453746   
  92860000  -314.13515      926.01021      611.87506      301.31643      6.4091324      0.13453746   
  92870000  -323.84894      931.2618       607.41286      303.02525      2.4930358      0.13453746   
  92880000  -299.82933      943.58577      643.75645      307.03538      0.9995196      0.13453746   
  92890000  -326.7737       892.45029      565.67659      290.39629     -3.3550445      0.13453746   
  92900000  -333.97302      925.33835      591.36532      301.09781      2.2903115      0.13453746   
  92910000  -299.10785      924.10134      624.99349      300.6953       1.7445424      0.13453746   
  92920000  -288.70448      925.59748      636.893        301.18213      3.213488       0.13453746   
  92930000  -324.55328      876.898        552.34472      285.3357       3.0366714      0.13453746   
  92940000  -263.95893      918.20363      654.2447       298.77623      4.6742967      0.13453746   
  92950000  -334.18512      915.77217      581.58704      297.98505      8.5793676      0.13453746   
  92960000  -354.39709      926.67085      572.27377      301.53139      5.2394399      0.13453746   
  92970000  -393.60957      872.59917      478.98961      283.9369       1.3280733      0.13453746   
  92980000  -354.59015      876.79524      522.20509      285.30226     -6.0074744      0.13453746   
  92990000  -359.19484      910.62216      551.42731      296.30928      5.3303091      0.13453746   
  93000000  -393.20415      912.15996      518.95581      296.80967     -4.8696645      0.13453746   
  93010000  -340.30495      924.2009       583.89595      300.72769     -3.148853       0.13453746   
  93020000  -391.03085      917.11593      526.08508      298.4223       2.2786625      0.13453746   
  93030000  -318.59188      962.89551      644.30363      313.31861      2.3794155      0.13453746   
  93040000  -411.472        918.18987      506.71788      298.77175     -1.2716072      0.13453746   
  93050000  -353.47869      904.68942      551.21073      294.37881     -0.79031591     0.13453746   
  93060000  -341.23476      925.05355      583.81879      301.00514      0.27310762     0.13453746   
  93070000  -388.22101      998.27639      610.05537      324.83127      14.306194      0.13453746   
  93080000  -343.58409      910.81634      567.23225      296.37246     -0.944945       0.13453746   
  93090000  -338.04193      926.40755      588.36562      301.44572      3.6165334      0.13453746   
  93100000  -334.3678       906.49876      572.13097      294.96756      15.701252      0.13453746   
  93110000  -327.06219      945.60907      618.54687      307.69374      4.8057431      0.13453746   
  93120000  -310.15406      940.16341      630.00936      305.92177      6.0314882      0.13453746   
  93130000  -363.51175      925.05699      561.54524      301.00626     -4.0674599      0.13453746   
  93140000  -365.3617       905.49832      540.13662      294.64202      2.5345175      0.13453746   
  93150000  -353.71497      931.48548      577.7705       303.09804      2.5249834      0.13453746   
  93160000  -349.13097      911.98578      562.8548       296.75299     -0.99214448     0.13453746   
  93170000  -282.72236      931.44022      648.71786      303.08331     -1.6791699      0.13453746   
  93180000  -320.02318      958.61736      638.59417      311.92654      2.5409713      0.13453746   
  93190000  -334.38475      925.61383      591.22908      301.18745     -1.933151       0.13453746   
  93200000  -338.39467      947.77314      609.37847      308.39791      2.0644753      0.13453746   
  93210000  -349.43722      915.13403      565.6968       297.7774       11.334075      0.13453746   
  93220000  -338.05722      916.27533      578.21811      298.14877     -0.55919526     0.13453746   
  93230000  -277.73295      945.95542      668.22247      307.80644     -3.2364114      0.13453746   
  93240000  -326.22104      916.99894      590.77789      298.38423     -1.5975765      0.13453746   
  93250000  -347.00467      891.65538      544.65072      290.13764      5.3010467      0.13453746   
  93260000  -238.73461      894.15879      655.42418      290.95222     -5.8152582      0.13453746   
  93270000  -276.47656      930.25794      653.78138      302.6986       4.2953776      0.13453746   
  93280000  -313.82059      936.56075      622.74016      304.74949     -3.9874957      0.13453746   
  93290000  -291.998        924.99532      632.99733      300.98619     -0.99000382     0.13453746   
  93300000  -269.81517      885.5691       615.75393      288.15721     -3.2934064      0.13453746   
  93310000  -315.48762      975.4804       659.99278      317.41364      7.6221794      0.13453746   
  93320000  -326.56571      895.55741      568.9917       291.40732      2.9611496      0.13453746   
  93330000  -263.02496      937.16242      674.13747      304.94527      1.8514642      0.13453746   
  93340000  -351.13262      887.87462      536.74199      288.9074       3.7627283      0.13453746   
  93350000  -312.9894       933.73963      620.75023      303.83152      2.4099353      0.13453746   
  93360000  -400.16132      916.39084      516.22952      298.18636      1.0180722      0.13453746   
  93370000  -353.02796      925.78301      572.75504      301.2425      -2.0376351      0.13453746   
  93380000  -327.85357      919.48379      591.63021      299.19278     -2.9022842      0.13453746   
  93390000  -356.12648      910.30341      554.17692      296.20556     -13.056745      0.13453746   
  93400000  -313.97278      902.04657      588.07379      293.51885      0.19398581     0.13453746   
  93410000  -343.6977       895.14411      551.44641      291.27284     -0.91303667     0.13453746   
  93420000  -316.25668      942.35108      626.0944       306.63362      4.0114113      0.13453746   
  93430000  -317.80471      932.60826      614.80355      303.46338     -10.472617      0.13453746   
  93440000  -322.01567      936.08168      614.066        304.5936      -9.9592085      0.13453746   
  93450000  -284.07477      935.53813      651.46336      304.41674      10.368842      0.13453746   
  93460000  -351.1223       934.8331       583.7108       304.18732     -1.9318771      0.13453746   
  93470000  -339.41283      931.60653      592.1937       303.13742     -7.0301498      0.13453746   
  93480000  -349.04579      888.15491      539.10911      288.99861     -0.000898339    0.13453746   
  93490000  -326.08684      916.95932      590.87248      298.37134     -0.61890472     0.13453746   
  93500000  -405.04638      916.78189      511.73551      298.31361      1.159753       0.13453746   
  93510000  -360.66141      894.72462      534.06321      291.13634      11.676862      0.13453746   
  93520000  -340.00261      916.90817      576.90556      298.35469      2.0196334      0.13453746   
  93530000  -270.19379      919.96621      649.77242      299.34975      5.4284666      0.13453746   
  93540000  -328.18958      938.65122      610.46164      305.42971      6.3981187      0.13453746   
  93550000  -322.8891       926.99284      604.10375      301.63617     -1.3818098      0.13453746   
  93560000  -303.41555      938.62623      635.21068      305.42158      5.3187068      0.13453746   
  93570000  -317.84737      918.46895      600.62159      298.86256      4.1628124      0.13453746   
  93580000  -360.26864      876.33411      516.06548      285.15222     -5.8945379      0.13453746   
  93590000  -351.25811      923.16403      571.90592      300.3903       6.2535274      0.13453746   
  93600000  -341.70693      917.39395      575.68702      298.51276     -3.0525803      0.13453746   
  93610000  -290.01902      903.09923      613.0802       293.86137      1.9439241      0.13453746   
  93620000  -348.14738      929.96782      581.82044      302.6042       0.50597565     0.13453746   
  93630000  -301.37183      917.00418      615.63235      298.38594      5.8739966      0.13453746   
  93640000  -319.39062      942.83116      623.44054      306.78983     -2.2694925      0.13453746   
  93650000  -300.73198      904.03733      603.30534      294.16662      1.5116726      0.13453746   
  93660000  -307.52955      957.92712      650.39756      311.70194      0.63269565     0.13453746   
  93670000  -304.61941      929.87411      625.25469      302.57371      4.1494257      0.13453746   
  93680000  -357.86792      955.09592      597.22801      310.78069      4.6291304      0.13453746   
  93690000  -317.83927      943.819        625.97973      307.11126      1.5513988      0.13453746   
  93700000  -309.42878      944.0866       634.65782      307.19834      3.4203007      0.13453746   
  93710000  -268.02389      935.75392      667.73003      304.48695      0.62329999     0.13453746   
  93720000  -294.52881      923.81692      629.2881       300.60275      12.404724      0.13453746   
  93730000  -315.3381       907.65778      592.31968      295.34469      0.92774668     0.13453746   
  93740000  -300.15138      884.82286      584.67148      287.91439     -0.92303069     0.13453746   
  93750000  -258.0553       940.09376      682.03846      305.8991       2.0076402      0.13453746   
  93760000  -281.0867       905.78642      624.69972      294.73576     -4.2710092      0.13453746   
  93770000  -272.99679      942.78526      669.78847      306.7749       1.9426161      0.13453746   
  93780000  -315.16033      897.50493      582.34459      292.04103     -5.4447016      0.13453746   
  93790000  -337.00363      892.07952      555.07589      290.27565      1.7217673      0.13453746   
  93800000  -317.59751      865.81365      548.21614      281.72894     -8.7101997      0.13453746   
  93810000  -375.93533      930.52432      554.58899      302.78528     -2.6120762      0.13453746   
  93820000  -372.07605      966.28495      594.2089       314.42151      4.3863162      0.13453746   
  93830000  -366.94452      959.34031      592.3958       312.16178     -4.173823       0.13453746   
  93840000  -289.97738      937.58043      647.60305      305.08128     -4.2636095      0.13453746   
  93850000  -358.07402      918.81234      560.73831      298.9743      -7.3388359      0.13453746   
  93860000  -386.63858      911.52485      524.88627      296.603        3.929778       0.13453746   
  93870000  -398.43822      929.28087      530.84265      302.38067      5.2615358      0.13453746   
  93880000  -349.30523      907.09176      557.78653      295.16051     -4.1355341      0.13453746   
  93890000  -335.08533      931.02239      595.93707      302.94735     -7.4648128      0.13453746   
  93900000  -356.06683      951.27689      595.21006      309.538        3.6607298      0.13453746   
  93910000  -387.43477      909.44328      522.0085       295.92568     -4.194838       0.13453746   
  93920000  -376.5565       906.73899      530.18249      295.04572     -3.6879546      0.13453746   
  93930000  -422.97082      946.98069      524.00986      308.14005     -2.1980113      0.13453746   
  93940000  -410.76572      927.54802      516.78231      301.81682      3.3032973      0.13453746   
  93950000  -307.23776      915.97381      608.73605      298.05066     -5.1149324      0.13453746   
  93960000  -328.69733      914.6361       585.93876      297.61538      0.50319825     0.13453746   
  93970000  -346.22077      918.36979      572.14902      298.8303       3.9380933      0.13453746   
  93980000  -354.1263       923.24106      569.11476      300.41537     -0.43150494     0.13453746   
  93990000  -352.71095      953.82244      601.11149      310.36631      5.1854266      0.13453746   
  94000000  -350.52057      917.06895      566.54838      298.40701     -3.7588509      0.13453746   
  94010000  -291.50308      929.2358       637.73272      302.36601     -4.212283       0.13453746   
  94020000  -350.16542      919.44406      569.27864      299.17985      4.2766737      0.13453746   
  94030000  -304.86066      943.56601      638.70535      307.02894      0.54856741     0.13453746   
  94040000  -327.43567      900.95939      573.52372      293.16509     -8.1539205      0.13453746   
  94050000  -382.05962      961.24273      579.18311      312.78081     -1.3172266      0.13453746   
  94060000  -419.34409      897.31689      477.97279      291.97984      7.5198321      0.13453746   
  94070000  -363.59243      918.34608      554.75365      298.82258     -2.3588773      0.13453746   
  94080000  -362.50886      911.8291       549.32024      296.702       -2.463664       0.13453746   
  94090000  -400.68271      890.11834      489.43563      289.63749      6.0044959      0.13453746   
  94100000  -387.52712      912.9766       525.44948      297.07539     -5.084988       0.13453746   
  94110000  -399.05083      916.25498      517.20415      298.14215     -1.8008285      0.13453746   
  94120000  -381.5436       931.76649      550.2229       303.18948     -1.4405412      0.13453746   
  94130000  -344.20229      949.29047      605.08818      308.89164     -3.7103603      0.13453746   
  94140000  -371.68192      873.06084      501.37892      284.08712      3.4652352      0.13453746   
  94150000  -351.5097       910.17067      558.66097      296.16236      9.9701937      0.13453746   
  94160000  -351.91583      905.14429      553.22846      294.52682      0.46275027     0.13453746   
  94170000  -356.45383      893.38737      536.93354      290.70121     -10.123928      0.13453746   
  94180000  -343.38565      868.75451      525.36886      282.68587     -1.7309045      0.13453746   
  94190000  -367.58586      955.47416      587.88829      310.90376      6.9444094      0.13453746   
  94200000  -304.5384       937.86088      633.32247      305.17254     -0.11943604     0.13453746   
  94210000  -320.36649      915.5935       595.22701      297.92691      4.0141333      0.13453746   
  94220000  -343.05761      927.16521      584.1076       301.69225      1.569614       0.13453746   
  94230000  -343.85364      957.00824      613.1546       311.40294     -1.3702351      0.13453746   
  94240000  -371.21747      935.31792      564.10045      304.34508      1.1410485      0.13453746   
  94250000  -345.54658      924.81802      579.27145      300.9285       0.083985758    0.13453746   
  94260000  -354.08003      913.58028      559.50026      297.27183     -0.2673153      0.13453746   
  94270000  -317.14464      937.31488      620.17024      304.99488     -0.94887196     0.13453746   
  94280000  -268.67502      913.59554      644.92053      297.27679      1.29034        0.13453746   
  94290000  -323.88899      925.38483      601.49585      301.11293      5.8529094      0.13453746   
  94300000  -371.71206      918.12111      546.40905      298.74938      1.5616364      0.13453746   
  94310000  -328.09791      908.86069      580.76278      295.73611      9.620934       0.13453746   
  94320000  -376.6485       879.55701      502.90851      286.20092     -6.5519079      0.13453746   
  94330000  -359.06435      868.53655      509.47219      282.61495     -0.76249669     0.13453746   
  94340000  -361.54486      922.45832      560.91346      300.16067      5.7832413      0.13453746   
  94350000  -374.31918      902.6263       528.30712      293.70749      6.2586226      0.13453746   
  94360000  -346.8946       924.54099      577.64638      300.83835      0.31688906     0.13453746   
  94370000  -348.23301      930.31136      582.07835      302.71599     -3.2957338      0.13453746   
  94380000  -383.53077      892.11741      508.58664      290.28798     -4.9411318      0.13453746   
  94390000  -363.91123      908.45684      544.54562      295.6047      -5.311482       0.13453746   
  94400000  -369.05553      886.30452      517.24899      288.39651     -5.8077198      0.13453746   
  94410000  -357.98492      889.66213      531.67721      289.48905     -2.7403398      0.13453746   
  94420000  -364.81656      919.36318      554.54662      299.15354     -5.8850653      0.13453746   
  94430000  -369.33354      919.15559      549.82205      299.08599     -3.8393583      0.13453746   
  94440000  -390.57021      935.82252      545.25231      304.50927     -1.1856991      0.13453746   
  94450000  -393.19194      948.38679      555.19484      308.59759      9.1417521      0.13453746   
  94460000  -381.37978      963.97954      582.59976      313.67135      2.7348648      0.13453746   
  94470000  -398.70356      876.15775      477.4542       285.09483      4.2858535      0.13453746   
  94480000  -367.7963       945.46195      577.66565      307.64587     -4.293865       0.13453746   
  94490000  -384.8113       935.00474      550.19344      304.24317      5.6161174      0.13453746   
  94500000  -396.62165      865.55861      468.93695      281.64595     -6.1691489      0.13453746   
  94510000  -387.46121      943.19117      555.72996      306.90698      0.95890247     0.13453746   
  94520000  -406.80317      923.05333      516.25016      300.35428      2.9666117      0.13453746   
  94530000  -376.48936      937.31576      560.82639      304.99516      5.248945       0.13453746   
  94540000  -414.86694      930.04731      515.18037      302.63007     -1.9504435      0.13453746   
  94550000  -395.56321      914.04306      518.47985      297.42241      8.3711866      0.13453746   
  94560000  -359.37566      946.98114      587.60548      308.1402       10.246876      0.13453746   
  94570000  -368.84524      917.03475      548.18951      298.39588     -1.2711017      0.13453746   
  94580000  -381.24868      913.46663      532.21795      297.23484     -2.7814466      0.13453746   
  94590000  -347.12059      922.04202      574.92142      300.02521     -3.0976015      0.13453746   
  94600000  -367.92035      926.10541      558.18507      301.34741      3.9472589      0.13453746   
  94610000  -346.05928      942.99462      596.93533      306.84302      1.1300663      0.13453746   
  94620000  -348.38528      910.7692       562.38392      296.35712      1.8853126      0.13453746   
  94630000  -327.80622      972.23164      644.42542      316.35652      5.9028102      0.13453746   
  94640000  -356.41709      921.01418      564.59709      299.69076      2.9237764      0.13453746   
  94650000  -369.75486      955.81139      586.05653      311.0135      -5.9336781      0.13453746   
  94660000  -381.41612      869.62632      488.21021      282.96955      0.54267382     0.13453746   
  94670000  -361.70654      941.16924      579.46269      306.24905     -2.6782059      0.13453746   
  94680000  -328.27778      943.88749      615.60971      307.13355      0.53969262     0.13453746   
  94690000  -383.0427       950.75116      567.70846      309.36694      7.8479543      0.13453746   
  94700000  -379.11661      933.69472      554.57811      303.81691     -1.2372431      0.13453746   
  94710000  -343.80103      933.27711      589.47608      303.68102      5.6432868      0.13453746   
  94720000  -374.57266      914.31773      539.74507      297.51179     -1.8867328      0.13453746   
  94730000  -371.82277      948.93373      577.11096      308.77556      7.0626974      0.13453746   
  94740000  -321.90179      913.55657      591.65478      297.26411      1.2580884      0.13453746   
  94750000  -297.37226      948.98493      651.61267      308.79222     -5.1422682      0.13453746   
  94760000  -353.94007      905.87115      551.93108      294.76334     -4.759623       0.13453746   
  94770000  -367.75857      942.33949      574.58092      306.62985      2.8483552      0.13453746   
  94780000  -324.51066      938.72858      614.21792      305.45488      2.9696634      0.13453746   
  94790000  -361.04144      911.4659       550.42446      296.58382     -11.941563      0.13453746   
  94800000  -303.66935      911.15492      607.48557      296.48263      8.0299589      0.13453746   
  94810000  -361.21596      930.68654      569.47058      302.83807      6.1679276      0.13453746   
  94820000  -336.81761      910.01278      573.19517      296.11099      9.7158945      0.13453746   
  94830000  -347.45016      923.41911      575.96895      300.4733       8.667618       0.13453746   
  94840000  -373.936        958.14346      584.20746      311.77233      9.6692292      0.13453746   
  94850000  -353.91705      882.55449      528.63744      287.17628      1.4085584      0.13453746   
  94860000  -360.59077      925.64221      565.05144      301.19668      0.8977642      0.13453746   
  94870000  -362.03733      908.06865      546.03132      295.47838      13.888703      0.13453746   
  94880000  -326.46343      957.99175      631.52832      311.72297      5.172342       0.13453746   
  94890000  -269.75654      900.63193      630.8754       293.05854     -3.4482907      0.13453746   
  94900000  -304.79038      912.54256      607.75218      296.93416     -0.41635057     0.13453746   
  94910000  -326.97153      913.16668      586.19515      297.13724     -2.010695       0.13453746   
  94920000  -335.40413      958.7865       623.38237      311.98157     -4.479534       0.13453746   
  94930000  -314.59063      924.27548      609.68486      300.75196      5.2853052      0.13453746   
  94940000  -333.87654      902.0367       568.16016      293.51564      8.1766783      0.13453746   
  94950000  -363.95601      907.18719      543.23118      295.19156      7.2344914      0.13453746   
  94960000  -313.65408      938.68848      625.0344       305.44184      5.2467114      0.13453746   
  94970000  -402.56403      930.91188      528.34785      302.91139     -4.9859145      0.13453746   
  94980000  -384.86956      912.18169      527.31212      296.81673      4.380001       0.13453746   
  94990000  -322.83043      956.1819       633.35147      311.13406     -4.37313        0.13453746   
  95000000  -340.38394      921.56885      581.18492      299.87124      3.2188287      0.13453746   
  95010000  -417.1615       924.70563      507.54413      300.89193      3.7248954      0.13453746   
  95020000  -372.43117      918.19662      545.76545      298.77394     -1.7828872      0.13453746   
  95030000  -358.21565      918.95556      560.73991      299.0209       5.3288206      0.13453746   
  95040000  -352.24019      897.04934      544.80915      291.89279      8.9726947      0.13453746   
  95050000  -379.93171      940.78728      560.85557      306.12477      6.0534295      0.13453746   
  95060000  -377.59336      894.21949      516.62613      290.97198     -1.4238208      0.13453746   
  95070000  -385.69506      946.03926      560.34419      307.83372     -4.5528587      0.13453746   
  95080000  -377.00738      894.40881      517.40143      291.03358      1.3709907      0.13453746   
  95090000  -385.45775      887.6766       502.21885      288.84297      0.99666651     0.13453746   
  95100000  -396.84934      960.03905      563.18971      312.38914      0.70173217     0.13453746   
  95110000  -370.27942      906.15549      535.87607      294.85586      9.8349251      0.13453746   
  95120000  -339.53497      926.86368      587.32871      301.59414      6.2374651      0.13453746   
  95130000  -373.9103       926.9126       553.00231      301.61006     -8.4445301      0.13453746   
  95140000  -363.0984       942.41541      579.31702      306.65455     -6.3058944      0.13453746   
  95150000  -354.43183      944.67938      590.24754      307.39123     -4.9580049      0.13453746   
  95160000  -366.2894       944.65211      578.36271      307.38235     -3.1707044      0.13453746   
  95170000  -362.69435      911.42602      548.73167      296.57085      7.4235608      0.13453746   
  95180000  -416.6222       928.50092      511.87871      302.12688     -2.1397603      0.13453746   
  95190000  -409.31078      923.06334      513.75255      300.35754      1.3284895      0.13453746   
  95200000  -371.86252      902.51918      530.65666      293.67263      0.82059028     0.13453746   
  95210000  -361.5318       923.54043      562.00863      300.51278      2.153819       0.13453746   
  95220000  -415.16925      907.4398       492.27056      295.27376     -0.4504105      0.13453746   
  95230000  -391.47643      936.92218      545.44575      304.8671      -5.3323556      0.13453746   
  95240000  -392.71462      934.19773      541.48311      303.98058     -4.202298       0.13453746   
  95250000  -394.78676      939.31614      544.52937      305.64607     -4.6604546      0.13453746   
  95260000  -385.48924      945.27496      559.78571      307.58502     -2.2029503      0.13453746   
  95270000  -399.88599      902.76226      502.87627      293.75173     -4.7393477      0.13453746   
  95280000  -420.92653      919.30601      498.37948      299.13493     -2.1400499      0.13453746   
  95290000  -370.3774       919.64133      549.26393      299.24404     -11.912845      0.13453746   
  95300000  -379.81308      910.589        530.77591      296.29849      0.36261012     0.13453746   
  95310000  -383.32044      906.15681      522.83637      294.85629     -5.8490239      0.13453746   
  95320000  -390.30195      917.3112       527.00925      298.48584     -3.0027589      0.13453746   
  95330000  -344.85776      891.91302      547.05526      290.22147     -9.3728739      0.13453746   
  95340000  -354.97682      910.05181      555.07499      296.12369     -1.7877281      0.13453746   
  95350000  -375.73997      905.48459      529.74462      294.63755      2.9611794      0.13453746   
  95360000  -323.55454      888.79381      565.23927      289.2065      -1.9374149      0.13453746   
  95370000  -382.90061      952.26148      569.36087      309.85838      2.8439073      0.13453746   
  95380000  -368.50215      902.28736      533.7852       293.5972       1.6795932      0.13453746   
  95390000  -415.8993       886.04297      470.14367      288.3114       3.2847699      0.13453746   
  95400000  -349.35941      894.74069      545.38128      291.14157     -5.4983245      0.13453746   
  95410000  -390.90121      926.52733      535.62611      301.48469      6.4642826      0.13453746   
  95420000  -337.67287      947.83995      610.16707      308.41965      4.835539       0.13453746   
  95430000  -325.16577      923.12769      597.96192      300.37848      2.27198        0.13453746   
  95440000  -369.92859      935.21806      565.28947      304.31259      2.4291025      0.13453746   
  95450000  -299.16193      915.51663      616.3547       297.9019       1.1051963      0.13453746   
  95460000  -382.90351      872.06784      489.16433      283.764        6.9629095      0.13453746   
  95470000  -314.73658      961.98489      647.24831      313.0223       2.4863679      0.13453746   
  95480000  -370.77268      936.49697      565.72429      304.72874      1.3534891      0.13453746   
  95490000  -389.19651      945.92743      556.73092      307.79733      4.9647805      0.13453746   
  95500000  -409.88193      933.17655      523.29461      303.6483       1.0150978      0.13453746   
  95510000  -360.76258      882.82496      522.06237      287.26429      4.9366739      0.13453746   
  95520000  -410.56744      926.39111      515.82367      301.44037     -0.095434922    0.13453746   
  95530000  -356.62891      934.33384      577.70494      304.02487     -4.3434806      0.13453746   
  95540000  -438.14504      916.08358      477.93854      298.08638      11.638513      0.13453746   
  95550000  -359.12475      949.62093      590.49618      308.99917     -1.1930994      0.13453746   
  95560000  -356.58106      947.27066      590.6896       308.23441     -1.8418021      0.13453746   
  95570000  -407.14647      924.50071      517.35424      300.82525     -2.3739482      0.13453746   
  95580000  -364.19974      897.38839      533.18865      292.00311      5.4029524      0.13453746   
  95590000  -399.749        915.73087      515.98187      297.97161      3.4114379      0.13453746   
  95600000  -312.82375      918.37754      605.5538       298.83282      3.4670539      0.13453746   
  95610000  -430.93588      888.47726      457.54138      289.1035       10.579418      0.13453746   
  95620000  -428.66505      867.69887      439.03382      282.34238      1.9107621      0.13453746   
  95630000  -352.82068      956.98523      604.16455      311.39545     -1.080601       0.13453746   
  95640000  -379.01952      906.17991      527.16039      294.8638       3.1362475      0.13453746   
  95650000  -449.60192      901.45697      451.85505      293.327        3.8329805      0.13453746   
  95660000  -407.4281       937.98431      530.5562       305.2127      -2.2093126      0.13453746   
  95670000  -389.8338       911.04195      521.20815      296.44587     -6.1139342      0.13453746   
  95680000  -412.12136      924.89306      512.7717       300.95292     -4.3150529      0.13453746   
  95690000  -395.27981      945.88405      550.60425      307.78322      7.5382498      0.13453746   
  95700000  -347.85281      907.89967      560.04686      295.4234       4.818436       0.13453746   
  95710000  -405.71446      955.04005      549.32558      310.76251      5.8112274      0.13453746   
  95720000  -340.09652      946.59833      606.50181      308.01564     -3.1824722      0.13453746   
  95730000  -328.95782      930.65405      601.69623      302.8275       1.0671958      0.13453746   
  95740000  -319.96274      962.36651      642.40377      313.14648     -3.3459218      0.13453746   
  95750000  -367.82308      898.86999      531.04691      292.48521     -4.3574382      0.13453746   
  95760000  -432.87128      888.73256      455.86128      289.18657      1.0049177      0.13453746   
  95770000  -337.05378      875.88514      538.83136      285.00612     -1.0765229      0.13453746   
  95780000  -321.6954       941.49094      619.79553      306.35373     -0.85346619     0.13453746   
  95790000  -360.29602      891.96999      531.67396      290.24001      6.4527157      0.13453746   
  95800000  -297.11035      912.4583       615.34796      296.90674      4.2542945      0.13453746   
  95810000  -362.81511      928.46651      565.6514       302.11569     -6.5949218      0.13453746   
  95820000  -335.55494      905.61986      570.06491      294.68157     -1.7443885      0.13453746   
  95830000  -330.17009      905.93302      575.76293      294.78347      10.814237      0.13453746   
  95840000  -365.96471      910.18807      544.22336      296.16803      2.0726481      0.13453746   
  95850000  -323.805        900.26842      576.46342      292.94025     -5.0258422      0.13453746   
  95860000  -332.07979      934.79699      602.71719      304.17557      4.0380782      0.13453746   
  95870000  -328.24876      925.11599      596.86723      301.02546     -3.7684409      0.13453746   
  95880000  -374.55378      945.43601      570.88224      307.63743      1.6713596      0.13453746   
  95890000  -401.66301      920.86777      519.20476      299.64312      5.87339        0.13453746   
  95900000  -355.52602      957.53798      602.01196      311.57531     -2.233484       0.13453746   
  95910000  -368.92682      926.15373      557.22691      301.36313     -1.0499535      0.13453746   
  95920000  -386.67936      891.30317      504.62382      290.02303      0.54179755     0.13453746   
  95930000  -374.38409      925.1325       550.74841      301.03083      3.9206677      0.13453746   
  95940000  -410.88795      929.20343      518.31549      302.35548      0.6617975      0.13453746   
  95950000  -372.84874      920.76996      547.92122      299.61129      3.0682127      0.13453746   
  95960000  -388.02798      906.46658      518.4386       294.95708     -4.1163775      0.13453746   
  95970000  -363.59277      903.66042      540.06765      294.04398      1.2199125      0.13453746   
  95980000  -349.8922       944.46299      594.5708       307.32082      3.8973906      0.13453746   
  95990000  -386.81379      905.27013      518.45634      294.56777      7.1342875      0.13453746   
  96000000  -403.43133      927.90173      524.4704       301.93191     -3.088655       0.13453746   
  96010000  -337.00335      920.26947      583.26612      299.44843     -1.0258295      0.13453746   
  96020000  -335.18683      911.13325      575.94642      296.47558     -1.5090506      0.13453746   
  96030000  -321.19018      949.50365      628.31347      308.96101      1.0106977      0.13453746   
  96040000  -366.74249      917.6092       550.86671      298.5828      -1.6165701      0.13453746   
  96050000  -400.0396       890.98645      490.94685      289.91997      3.5748246      0.13453746   
  96060000  -360.04905      939.62136      579.57232      305.74539     -5.5428583      0.13453746   
  96070000  -376.27331      949.19242      572.91911      308.85973      0.95825946     0.13453746   
  96080000  -366.73209      889.69663      522.96454      289.50027      0.67714908     0.13453746   
  96090000  -352.80143      934.80054      581.99911      304.17673     -3.7943668      0.13453746   
  96100000  -401.11939      891.78096      490.66157      290.1785      -7.1430647      0.13453746   
  96110000  -380.36585      884.44288      504.07703      287.79074      7.3065663      0.13453746   
  96120000  -398.71165      913.32092      514.60927      297.18743     -4.7112388      0.13453746   
  96130000  -389.8644       909.04156      519.17715      295.79496      1.8232253      0.13453746   
  96140000  -446.29074      924.26517      477.97443      300.7486      -2.4711001      0.13453746   
  96150000  -424.81562      939.50772      514.6921       305.70841     -4.9853345      0.13453746   
  96160000  -397.71044      907.3548       509.64436      295.2461      -4.8310085      0.13453746   
  96170000  -423.92622      930.1329       506.20668      302.65792      1.5590734      0.13453746   
  96180000  -343.47296      903.45134      559.97838      293.97595      2.3802002      0.13453746   
  96190000  -393.1813       890.8818       497.7005       289.88592      0.82666067     0.13453746   
  96200000  -314.48821      943.62616      629.13796      307.04852     -3.0084748      0.13453746   
  96210000  -383.32759      953.86442      570.53683      310.37997      4.5730233      0.13453746   
  96220000  -389.56206      898.94427      509.38221      292.50938      6.8244235      0.13453746   
  96230000  -405.72592      930.34664      524.62072      302.72747     -5.9287025      0.13453746   
  96240000  -374.43195      929.42786      554.99591      302.4285      -2.1408819      0.13453746   
  96250000  -391.77809      945.34864      553.57055      307.609       -9.9190685      0.13453746   
  96260000  -449.88502      933.31755      483.43253      303.69418     -3.7773657      0.13453746   
  96270000  -371.02946      895.74248      524.71302      291.46754      12.090965      0.13453746   
  96280000  -392.04458      909.92476      517.88018      296.08235      11.980723      0.13453746   
  96290000  -412.05335      935.71979      523.66644      304.47585      5.2309354      0.13453746   
  96300000  -428.12962      917.40348      489.27386      298.51586     -0.82073934     0.13453746   
  96310000  -378.58877      924.15216      545.56339      300.71183      2.5751939      0.13453746   
  96320000  -418.46177      933.31294      514.85117      303.69268     -0.35135341     0.13453746   
  96330000  -395.96615      945.23976      549.27361      307.57357      11.242126      0.13453746   
  96340000  -409.44101      905.34296      495.90195      294.59146     -0.73071062     0.13453746   
  96350000  -365.27713      940.05015      574.77302      305.88491      3.82975        0.13453746   
  96360000  -432.03925      949.83781      517.79856      309.06974      0.52457504     0.13453746   
  96370000  -430.61968      922.60578      491.9861       300.20865     -6.9877288      0.13453746   
  96380000  -410.41046      917.6329       507.22244      298.59052      7.4841965      0.13453746   
  96390000  -449.73027      938.10223      488.37195      305.25107     -0.87155779     0.13453746   
  96400000  -412.87161      927.73274      514.86113      301.87692      2.9867095      0.13453746   
  96410000  -379.97027      921.59158      541.6213       299.87864      0.35347823     0.13453746   
  96420000  -395.43727      958.90467      563.4674       312.02002      2.8573584      0.13453746   
  96430000  -422.32967      942.87236      520.54269      306.80324     -3.5984131      0.13453746   
  96440000  -429.66935      916.64171      486.97237      298.26799     -5.0658102      0.13453746   
  96450000  -425.80107      894.79428      468.99321      291.15901     -0.8401775      0.13453746   
  96460000  -441.61406      900.69915      459.08509      293.08041     -1.6385746      0.13453746   
  96470000  -408.77853      942.25866      533.48013      306.60355      5.832417       0.13453746   
  96480000  -418.17217      903.83621      485.66403      294.10118     -0.56560751     0.13453746   
  96490000  -414.98232      901.718        486.73568      293.41193     -0.00086994524  0.13453746   
  96500000  -427.54055      937.07672      509.53618      304.91738     -8.652823       0.13453746   
  96510000  -359.62537      917.04837      557.423        298.40031     -3.2474044      0.13453746   
  96520000  -402.04007      916.78648      514.74642      298.3151      -0.48051314     0.13453746   
  96530000  -380.61721      905.04602      524.42882      294.49485      5.5141109      0.13453746   
  96540000  -437.62707      936.01208      498.38501      304.57096      0.68896751     0.13453746   
  96550000  -433.9342       947.83907      513.90487      308.41937      2.9221765      0.13453746   
  96560000  -406.61049      916.90013      510.28964      298.35208      2.5860644      0.13453746   
  96570000  -411.03687      879.35528      468.31841      286.13528      1.2867906      0.13453746   
  96580000  -394.55315      923.12694      528.5738       300.37823     -1.6923898      0.13453746   
  96590000  -368.07273      921.28319      553.21046      299.77829      13.932315      0.13453746   
  96600000  -389.96965      940.45636      550.48671      306.01709      0.46575621     0.13453746   
  96610000  -338.37505      927.54206      589.16701      301.81488      3.7792843      0.13453746   
  96620000  -366.30338      924.06189      557.75851      300.68246      0.22770138     0.13453746   
  96630000  -376.84572      913.87047      537.02475      297.36625      6.0083203      0.13453746   
  96640000  -428.44956      908.96147      480.51191      295.7689      -3.6589288      0.13453746   
  96650000  -337.43368      878.22612      540.79244      285.76786      3.4522631      0.13453746   
  96660000  -395.58586      893.0669       497.48105      290.59693      2.2223722      0.13453746   
  96670000  -326.01935      877.81761      551.79826      285.63494     -0.431387       0.13453746   
  96680000  -393.13682      907.75393      514.61711      295.37598      2.6773211      0.13453746   
  96690000  -435.11944      959.70763      524.58818      312.2813      -3.6726027      0.13453746   
  96700000  -427.14584      899.09289      471.94704      292.55774      3.5666009      0.13453746   
  96710000  -406.79953      921.35545      514.55592      299.8018       2.9330016      0.13453746   
  96720000  -407.74983      858.74814      450.99831      279.42988     -4.9149717      0.13453746   
  96730000  -433.85133      921.91678      488.06545      299.98446      1.0060381      0.13453746   
  96740000  -354.7407       923.89172      569.15102      300.62709     -4.3780605      0.13453746   
  96750000  -411.51782      892.30538      480.78756      290.34914      2.6587568      0.13453746   
  96760000  -410.23369      944.53795      534.30426      307.34521     -1.4615776      0.13453746   
  96770000  -354.34616      928.77616      574.42999      302.21644      1.6702588      0.13453746   
  96780000  -387.05844      951.49611      564.43767      309.60934      6.0123033      0.13453746   
  96790000  -389.76384      926.41179      536.64796      301.4471       2.0636431      0.13453746   
  96800000  -411.21772      895.9282       484.71048      291.52798      11.071701      0.13453746   
  96810000  -397.55435      915.33595      517.78159      297.84311      3.4537674      0.13453746   
  96820000  -381.7924       940.36611      558.57371      305.98772      4.7060207      0.13453746   
  96830000  -442.8788       911.86251      468.98371      296.71288      5.5175661      0.13453746   
  96840000  -425.20098      898.54389      473.34292      292.3791      -1.9981897      0.13453746   
  96850000  -411.30571      910.42143      499.11572      296.24396      1.7974331      0.13453746   
  96860000  -409.34173      940.15517      530.81345      305.91909      0.8376723      0.13453746   
  96870000  -459.42442      936.69045      477.26603      304.79169      1.6421672      0.13453746   
  96880000  -427.91898      943.32303      515.40405      306.94988      3.184998       0.13453746   
  96890000  -422.79376      915.73672      492.94296      297.97351      6.4066788      0.13453746   
  96900000  -394.02574      875.19656      481.17082      284.78207      3.7515473      0.13453746   
  96910000  -340.77167      921.338        580.56634      299.79613      3.3573401      0.13453746   
  96920000  -419.16057      881.11268      461.95211      286.70712      0.74469337     0.13453746   
  96930000  -350.10544      937.76628      587.66085      305.14176     -3.493293       0.13453746   
  96940000  -417.9146       951.2715       533.35691      309.53625      4.0503764      0.13453746   
  96950000  -362.85512      911.18403      548.32891      296.4921      -0.59893938     0.13453746   
  96960000  -369.81978      872.21539      502.39561      283.81202     -1.4535618      0.13453746   
  96970000  -382.24563      886.01991      503.77429      288.3039       1.129024       0.13453746   
  96980000  -393.81783      919.04196      525.22413      299.04901     -2.5686212      0.13453746   
  96990000  -331.7801       927.3505       595.5704       301.75255      3.9726445      0.13453746   
  97000000  -379.42664      936.60866      557.18202      304.76508      4.0631531      0.13453746   
  97010000  -400.44327      961.60207      561.1588       312.89774      3.5467691      0.13453746   
  97020000  -414.4203       907.11102      492.69072      295.16678      1.5549386      0.13453746   
  97030000  -366.97025      963.44673      596.47647      313.49797     -1.6588647      0.13453746   
  97040000  -400.55908      923.4797       522.92063      300.49302      1.0884158      0.13453746   
  97050000  -338.80525      953.40694      614.60169      310.23111      5.6679828      0.13453746   
  97060000  -328.93094      955.68279      626.75185      310.97165      10.554349      0.13453746   
  97070000  -386.05995      929.65463      543.59468      302.50229     -3.5227159      0.13453746   
  97080000  -392.72806      903.19798      510.46992      293.89351      0.035587531    0.13453746   
  97090000  -359.96537      913.8424       553.87703      297.35712      0.30606585     0.13453746   
  97100000  -381.06673      939.52197      558.45524      305.71305      2.3532983      0.13453746   
  97110000  -351.68275      889.99335      538.3106       289.59682     -4.559857       0.13453746   
  97120000  -369.68366      876.9091       507.22544      285.33931      13.391819      0.13453746   
  97130000  -320.66062      964.36175      643.70114      313.79572      0.80596148     0.13453746   
  97140000  -405.37554      926.43606      521.06051      301.45499      1.8790021      0.13453746   
  97150000  -426.10884      941.19826      515.08942      306.2585       0.93194405     0.13453746   
  97160000  -400.57738      946.08528      545.5079       307.8487      -3.6904849      0.13453746   
  97170000  -355.73725      977.31435      621.5771       318.01039     -6.2768241      0.13453746   
  97180000  -366.02819      888.13387      522.10568      288.99176      9.4503071      0.13453746   
  97190000  -311.87174      954.44056      642.56882      310.56744     -2.2496822      0.13453746   
  97200000  -322.19231      922.31934      600.12703      300.11545     -3.2341543      0.13453746   
  97210000  -302.06131      935.45595      633.39464      304.39         0.023058814    0.13453746   
  97220000  -315.92394      905.89211      589.96817      294.77016     -0.038514345    0.13453746   
  97230000  -276.47238      930.05199      653.57961      302.63159      5.1587158      0.13453746   
  97240000  -348.11575      901.83554      553.71979      293.45018     -3.5453652      0.13453746   
  97250000  -397.55392      918.34141      520.78749      298.82106     -2.7930834      0.13453746   
  97260000  -320.38883      936.57334      616.18451      304.75359     -1.4266597      0.13453746   
  97270000  -325.23534      930.28874      605.0534       302.70863     -0.46777275     0.13453746   
  97280000  -294.92828      939.2805       644.35222      305.63447      2.7828694      0.13453746   
  97290000  -344.15599      927.52036      583.36437      301.80782      4.968613       0.13453746   
  97300000  -339.66494      895.88572      556.22078      291.51415      6.399728       0.13453746   
  97310000  -271.22595      952.74514      681.51919      310.01576     -1.8818217      0.13453746   
  97320000  -398.5417       924.66566      526.12396      300.87892      0.71598641     0.13453746   
  97330000  -363.70417      917.56801      553.86384      298.5694       1.8357363      0.13453746   
  97340000  -418.38775      936.18184      517.79409      304.6262       9.0429601      0.13453746   
  97350000  -302.32284      881.18461      578.86177      286.73053     -0.53875619     0.13453746   
  97360000  -369.23151      963.98514      594.75362      313.67317     -7.5471209      0.13453746   
  97370000  -341.09117      970.55141      629.46024      315.80978     -2.5710697      0.13453746   
  97380000  -413.98123      943.60107      529.61983      307.04035     -7.9809627      0.13453746   
  97390000  -315.08378      923.38915      608.30538      300.46356      0.7160289      0.13453746   
  97400000  -329.59003      873.99156      544.40154      284.38997      0.82403937     0.13453746   
  97410000  -321.99178      927.54736      605.55558      301.8166       2.7935138      0.13453746   
  97420000  -354.50762      919.78008      565.27246      299.28919     -0.05475959     0.13453746   
  97430000  -362.42293      935.08585      572.66292      304.26957      9.6377426      0.13453746   
  97440000  -344.6225       929.80557      585.18307      302.55141     -1.1003685      0.13453746   
  97450000  -339.39662      938.87391      599.47729      305.50217      2.0566727      0.13453746   
  97460000  -320.28601      933.88625      613.60024      303.87923     -4.2723515      0.13453746   
  97470000  -322.15678      952.59745      630.44067      309.9677       5.1421575      0.13453746   
  97480000  -308.74805      919.89331      611.14526      299.32604      4.3716458      0.13453746   
  97490000  -319.82349      902.23995      582.41646      293.58177      2.8070595      0.13453746   
  97500000  -352.41014      918.7466       566.33646      298.9529       0.02049042     0.13453746   
[...]
  98200000  -339.78246      957.2479       617.46544      311.48092      4.7505712      0.13453746   
  98210000  -359.13755      920.33116      561.19361      299.46851      1.8368464      0.13453746   
  98220000  -329.10795      893.32488      564.21693      290.68088      0.037133448    0.13453746   
  98230000  -393.13823      911.61019      518.47195      296.63077     -1.1316276      0.13453746   
  98240000  -369.49085      912.08937      542.59852      296.7867      -8.0146562      0.13453746   
  98250000  -338.87658      974.54566      635.66908      317.10948      2.9434807      0.13453746   
  98260000  -272.90005      935.66578      662.76573      304.45827      4.4214033      0.13453746   
  98270000  -396.08575      965.41859      569.33284      314.1396       7.9090726      0.13453746   
  98280000  -348.41635      928.38238      579.96604      302.08831      1.8905641      0.13453746   
  98290000  -397.46962      906.58183      509.11221      294.99458      2.9944666      0.13453746   
  98300000  -373.61666      899.97556      526.3589       292.84496      12.874445      0.13453746   
  98310000  -419.39534      870.48125      451.08591      283.24774     -0.37885169     0.13453746   
  98320000  -313.38294      923.04681      609.66387      300.35216      2.0071832      0.13453746   
  98330000  -387.42501      944.95453      557.52952      307.48076      1.4916981      0.13453746   
  98340000  -401.57096      907.92885      506.35789      295.43289      1.3081179      0.13453746   
  98350000  -409.28627      890.31467      481.02841      289.70138     -5.1127516      0.13453746   
  98360000  -365.78873      902.56758      536.77885      293.68838     -0.28438776     0.13453746   
  98370000  -371.05085      943.71586      572.66501      307.07771     -2.7148107      0.13453746   
  98380000  -370.15709      913.20079      543.0437       297.14834      1.9239378      0.13453746   
  98390000  -356.07416      899.20706      543.1329       292.59489     -5.814476       0.13453746   
  98400000  -388.12998      918.2463       530.11632      298.79011     -2.8129948      0.13453746   
  98410000  -317.52345      935.94754      618.42409      304.54995      9.8292732      0.13453746   
  98420000  -309.34233      898.68595      589.34362      292.42533     -4.5992719      0.13453746   
  98430000  -316.6792       910.26555      593.58635      296.19324     -2.5518593      0.13453746   
  98440000  -331.25704      903.62262      572.36558      294.03168      7.2404879      0.13453746   
  98450000  -369.91601      923.02713      553.11112      300.34576      0.59046606     0.13453746   
  98460000  -328.6934       908.66811      579.97471      295.67344     -1.3951495      0.13453746   
  98470000  -335.53848      935.17145      599.63297      304.29742     -5.3195977      0.13453746   
  98480000  -393.24614      913.37167      520.12554      297.20395      0.29086832     0.13453746   
  98490000  -373.03512      947.47713      574.44201      308.30159      4.0754212      0.13453746   
  98500000  -286.62935      887.58704      600.95769      288.81383     -0.80664015     0.13453746   
  98510000  -269.70523      903.50396      633.79873      293.99307     -0.91412915     0.13453746   
  98520000  -352.318        887.88696      535.56896      288.91142     -5.6701837      0.13453746   
  98530000  -362.99066      919.8784       556.88774      299.32118     -4.2888672      0.13453746   
  98540000  -414.11241      958.36649      544.25408      311.84491     -1.8280085      0.13453746   
  98550000  -419.41508      886.03396      466.61888      288.30847      0.88463654     0.13453746   
  98560000  -402.04962      923.41739      521.36777      300.47274      0.044550829    0.13453746   
  98570000  -317.87569      946.75171      628.87602      308.06555      0.6662505      0.13453746   
  98580000  -377.39314      922.34629      544.95315      300.12421      2.0937268      0.13453746   
  98590000  -358.03086      943.98807      585.95721      307.16628      4.7756213      0.13453746   
  98600000  -395.39044      908.32648      512.93604      295.56228      4.0866547      0.13453746   
  98610000  -396.37179      935.6417       539.26991      304.45044      2.056931       0.13453746   
  98620000  -420.17507      919.96435      499.78929      299.34915     -3.5749458      0.13453746   
  98630000  -396.08653      936.29613      540.2096       304.66338      1.6511049      0.13453746   
  98640000  -354.30087      915.94503      561.64415      298.04129      5.973889       0.13453746   
  98650000  -338.29574      892.25605      553.9603       290.33309      3.6713561      0.13453746   
  98660000  -391.60858      956.85546      565.24687      311.35323      1.3708892      0.13453746   
  98670000  -388.21975      918.19659      529.97684      298.77394     -0.77305408     0.13453746   
  98680000  -385.76331      938.54901      552.7857       305.39645     -3.732065       0.13453746   
  98690000  -361.70266      948.5372       586.83453      308.64653     -1.6527622      0.13453746   
  98700000  -422.39671      931.75379      509.35707      303.18534     -0.47616544     0.13453746   
  98710000  -391.49891      932.19598      540.69708      303.32923     -2.2284958      0.13453746   
  98720000  -335.59267      907.64769      572.05503      295.34141      5.7730282      0.13453746   
  98730000  -346.6375       936.27339      589.63588      304.65598      4.6455574      0.13453746   
  98740000  -331.76228      898.91612      567.15384      292.50022      3.2574677      0.13453746   
  98750000  -354.01915      927.11516      573.096        301.67597      5.4010366      0.13453746   
  98760000  -350.79223      939.17821      588.38599      305.60119      4.6927507      0.13453746   
  98770000  -364.46736      948.56073      584.09337      308.65419     -2.8172912      0.13453746   
  98780000  -378.09587      922.0215       543.92563      300.01853     -7.4966298      0.13453746   
  98790000  -281.54781      900.80124      619.25343      293.11363     -1.5750198      0.13453746   
  98800000  -386.14086      969.60187      583.46102      315.50081      0.86611259     0.13453746   
  98810000  -343.57083      942.45414      598.88331      306.66715      3.5552882      0.13453746   
  98820000  -363.80735      941.12037      577.31302      306.23315      2.5597813      0.13453746   
  98830000  -382.76048      965.12429      582.3638       314.04384      5.7074715      0.13453746   
  98840000  -399.89472      945.51373      545.61902      307.66272      10.122238      0.13453746   
  98850000  -401.10776      930.71745      529.60968      302.84813     -1.0989559      0.13453746   
  98860000  -354.05815      896.92496      542.86682      291.85232     -0.31547099     0.13453746   
  98870000  -380.9564       871.68138      490.72498      283.63825     -5.326793       0.13453746   
  98880000  -354.28532      901.16231      546.87699      293.23112     -0.28924529     0.13453746   
  98890000  -423.0007       894.03389      471.03319      290.91158     -0.81108101     0.13453746   
  98900000  -419.17891      932.14205      512.96314      303.31168     -0.1341785      0.13453746   
  98910000  -343.19242      927.46358      584.27115      301.78934     -1.3619139      0.13453746   
  98920000  -403.39635      922.43282      519.03648      300.15237     -8.5813382      0.13453746   
  98930000  -408.863        921.06658      512.20358      299.70781     -0.0043050545   0.13453746   
  98940000  -423.64054      889.04147      465.40094      289.28709      9.4721015      0.13453746   
  98950000  -392.38352      903.57089      511.18736      294.01485     -1.4646178      0.13453746   
  98960000  -405.40473      916.79093      511.38621      298.31655     -0.21922591     0.13453746   
  98970000  -441.05637      852.36737      411.31099      277.35363      0.65182625     0.13453746   
  98980000  -378.70392      896.43951      517.73559      291.69435      6.0722951      0.13453746   
  98990000  -409.58461      911.00819      501.42358      296.43489      5.367465       0.13453746   
  99000000  -421.19452      887.4581       466.26358      288.77187     -3.2711115      0.13453746   
  99010000  -396.84129      915.38314      518.54185      297.85846      10.164446      0.13453746   
  99020000  -354.8935       892.52598      537.63248      290.42092     -0.19966187     0.13453746   
  99030000  -394.01867      919.40211      525.38344      299.1662       1.292502       0.13453746   
  99040000  -394.00256      923.54264      529.54008      300.5135       1.0809499      0.13453746   
  99050000  -392.74545      960.98466      568.23921      312.69684     -1.2778546      0.13453746   
  99060000  -388.03806      906.92908      518.89102      295.10758      4.8760222      0.13453746   
  99070000  -369.23739      940.62223      571.38484      306.07106     -7.3721948      0.13453746   
  99080000  -382.01184      920.76338      538.75154      299.60915      6.4975022      0.13453746   
  99090000  -422.93642      898.49407      475.55765      292.36289      3.4528131      0.13453746   
  99100000  -376.63879      948.21876      571.57996      308.54291      10.46347       0.13453746   
  99110000  -389.15645      928.29888      539.14244      302.06114     -3.0592505      0.13453746   
  99120000  -349.33753      967.15316      617.81564      314.70402     -0.84881366     0.13453746   
  99130000  -407.2183       908.78692      501.56862      295.7121       2.8706172      0.13453746   
  99140000  -362.35527      907.39436      545.03909      295.25898     -5.3509712      0.13453746   
  99150000  -406.94875      896.95168      490.00294      291.86101      4.4656378      0.13453746   
  99160000  -380.22109      950.95084      570.72974      309.43191      4.8796865      0.13453746   
  99170000  -330.12991      914.77166      584.64175      297.65949      5.2902899      0.13453746   
  99180000  -378.91979      911.37086      532.45107      296.5529       7.5811948      0.13453746   
  99190000  -426.973        900.98316      474.01016      293.17282      0.85871754     0.13453746   
  99200000  -438.81542      932.54451      493.72909      303.44264      2.3240416      0.13453746   
  99210000  -405.78824      911.93724      506.149        296.73719     -7.4638266      0.13453746   
  99220000  -408.87678      915.87219      506.99541      298.0176       8.666744       0.13453746   
  99230000  -445.16948      909.11537      463.94589      295.81898      11.359792      0.13453746   
  99240000  -366.62274      906.78426      540.16152      295.06045     -3.3476867      0.13453746   
  99250000  -438.06909      949.70737      511.63828      309.0273      -8.1388536      0.13453746   
  99260000  -374.65499      924.34087      549.68588      300.77324      2.97945        0.13453746   
  99270000  -388.93024      910.71489      521.78465      296.33945     -3.0575939      0.13453746   
  99280000  -411.40813      861.37144      449.96331      280.28348      0.97605342     0.13453746   
  99290000  -403.6143       918.76014      515.14584      298.95731      4.5198958      0.13453746   
  99300000  -367.98225      882.47042      514.48817      287.14892      2.0420344      0.13453746   
  99310000  -388.14379      914.79222      526.64843      297.66618      1.0384307      0.13453746   
  99320000  -370.62393      941.06929      570.44536      306.21653     -4.7978732      0.13453746   
  99330000  -393.18653      902.77047      509.58393      293.7544      -1.5996618      0.13453746   
  99340000  -391.9393       949.63516      557.69586      309.0038      -2.6076932      0.13453746   
  99350000  -420.46098      931.2649       510.80392      303.02626     -3.8506048      0.13453746   
  99360000  -369.92224      940.65215      570.72991      306.0808       7.3918694      0.13453746   
  99370000  -421.19726      962.69285      541.49559      313.25267      3.3348608      0.13453746   
  99380000  -371.97173      942.77603      570.8043       306.77189     -1.1506327      0.13453746   
  99390000  -347.19205      910.62168      563.42963      296.30912     -3.8950493      0.13453746   
  99400000  -281.68629      929.6813       647.99501      302.51097     -0.17242997     0.13453746   
  99410000  -371.44788      911.36995      539.92207      296.5526       7.4741735      0.13453746   
  99420000  -379.41821      968.29548      588.87727      315.07572      5.6356141      0.13453746   
  99430000  -461.73629      931.35686      469.62057      303.05618      5.0347716      0.13453746   
  99440000  -388.6206       933.14776      544.52716      303.63893     -2.5690584      0.13453746   
  99450000  -350.39206      972.90825      622.51619      316.57668     -2.5303451      0.13453746   
  99460000  -323.29241      980.98374      657.69133      319.20438     -3.5261498      0.13453746   
  99470000  -397.61649      924.6038       526.98731      300.85879     -1.1450327      0.13453746   
  99480000  -329.78694      884.53998      554.75304      287.82234     -3.7739944      0.13453746   
  99490000  -392.46667      891.62422      499.15756      290.1275       5.3605678      0.13453746   
  99500000  -315.67895      907.40216      591.72322      295.26151     -4.0448315      0.13453746   
  99510000  -338.53595      896.60791      558.07196      291.74915     -1.0862837      0.13453746   
  99520000  -329.94348      975.45996      645.51648      317.40698      0.40796225     0.13453746   
  99530000  -374.27724      883.96925      509.69201      287.63663      1.8568263      0.13453746   
  99540000  -326.97303      938.31281      611.33978      305.31959      9.5484766      0.13453746   
  99550000  -369.75839      930.9705       561.21211      302.93047      7.5728405      0.13453746   
  99560000  -333.79269      935.46024      601.66755      304.39139     -2.8931997      0.13453746   
  99570000  -342.7362       925.82417      583.08797      301.25589     -4.0412629      0.13453746   
  99580000  -370.77282      926.14803      555.37521      301.36127     -5.3794557      0.13453746   
  99590000  -362.58217      909.92586      547.34369      296.0827      -4.2545169      0.13453746   
  99600000  -372.62183      892.44993      519.8281       290.39618     -0.92881779     0.13453746   
  99610000  -324.87462      920.83023      595.95561      299.6309       5.1683299      0.13453746   
  99620000  -371.88354      952.34056      580.45702      309.88411      7.3284554      0.13453746   
  99630000  -398.42419      924.34009      525.9159       300.77298     -0.90204811     0.13453746   
  99640000  -394.89376      905.46523      510.57147      294.63125      2.7461777      0.13453746   
  99650000  -380.41438      897.00697      516.59259      291.879       -1.2142931      0.13453746   
  99660000  -339.42562      966.98283      627.55721      314.64859      0.58212779     0.13453746   
  99670000  -362.11914      959.98136      597.86222      312.37037      6.3718879      0.13453746   
  99680000  -337.94122      895.93647      557.99525      291.53067     -0.4923319      0.13453746   
  99690000  -425.86494      913.76508      487.90014      297.33196     -0.72193981     0.13453746   
  99700000  -387.6446       920.25392      532.60931      299.44337      1.23859        0.13453746   
  99710000  -421.86962      920.44132      498.5717       299.50435     -1.1473902      0.13453746   
  99720000  -370.01138      939.77756      569.76618      305.79621      8.0610334      0.13453746   
  99730000  -363.53179      916.93949      553.4077       298.36488      6.9505116      0.13453746   
  99740000  -437.93335      933.48121      495.54786      303.74743      1.5835527      0.13453746   
  99750000  -406.3382       937.10753      530.76933      304.92741      0.56708089     0.13453746   
  99760000  -347.5707       1002.9592      655.38848      326.35502      1.2220414      0.13453746   
  99770000  -330.75515      952.87377      622.11862      310.05762      4.9635523      0.13453746   
  99780000  -362.71574      905.47148      542.75574      294.63329      5.2130029      0.13453746   
  99790000  -312.46087      925.31012      612.84925      301.08862     -2.1462011      0.13453746   
  99800000  -295.49128      902.18507      606.69379      293.56391     -4.1543309      0.13453746   
  99810000  -342.02909      905.68312      563.65403      294.70215     -0.63632143     0.13453746   
  99820000  -373.91512      924.16109      550.24597      300.71474      2.0991789      0.13453746   
  99830000  -337.73834      909.54169      571.80335      295.9577       2.0505608      0.13453746   
  99840000  -342.15234      908.29781      566.14547      295.55295      2.8267325      0.13453746   
  99850000  -325.96819      923.20217      597.23398      300.40271     -2.0685697      0.13453746   
  99860000  -354.28847      930.11932      575.83085      302.6535      -3.3408098      0.13453746   
  99870000  -339.38048      881.87638      542.4959       286.95563      6.6372998      0.13453746   
  99880000  -362.62882      929.30333      566.6745       302.38798     -0.84615193     0.13453746   
  99890000  -383.60449      893.05555      509.45106      290.59324      0.030302655    0.13453746   
  99900000  -347.34139      925.15084      577.80945      301.0368      -0.75299575     0.13453746   
  99910000  -365.80142      899.3509       533.54949      292.6417      -2.7998716      0.13453746   
  99920000  -337.18992      915.5524       578.36248      297.91354     -0.19316906     0.13453746   
  99930000  -366.46782      903.26229      536.79448      293.91443      0.054867637    0.13453746   
  99940000  -369.7556       969.475        599.7194       315.45953     -0.39265864     0.13453746   
  99950000  -410.53155      923.12853      512.59698      300.37875     -4.1590505      0.13453746   
  99960000  -351.54339      939.19903      587.65564      305.60797      2.9521276      0.13453746   
  99970000  -346.87517      921.08067      574.2055       299.71239      6.4230951      0.13453746   
  99980000  -352.47585      937.16418      584.68833      304.94584     -1.7469911      0.13453746   
  99990000  -353.01806      907.41444      554.39638      295.26551      5.5718991      0.13453746   
 100000000  -305.84838      931.59044      625.74206      303.13219     -1.1021569      0.13453746   
Loop time of 4528.79 on 4 procs for 10000000 steps with 1032 atoms

Performance: 1907.796 ns/day, 0.013 hours/ns, 2208.097 timesteps/s, 2.279 Matom-step/s
99.6% CPU use with 4 MPI tasks x 1 OpenMP threads

MPI task timing breakdown:
Section |  min time  |  avg time  |  max time  |%varavg| %total
---------------------------------------------------------------
Pair    | 3079.1     | 3189.4     | 3428.6     | 246.9 | 70.42
Bond    | 134.2      | 146.62     | 153.13     |  62.6 |  3.24
Neigh   | 9.219      | 9.231      | 9.245      |   0.3 |  0.20
Comm    | 858.25     | 1105.7     | 1217.6     | 433.3 | 24.41
Output  | 0.28032    | 0.37329    | 0.54113    |  16.4 |  0.01
Modify  | 64.648     | 68.807     | 73.057     |  40.1 |  1.52
Other   |            | 8.711      |            |       |  0.19

Nlocal:            258 ave         395 max         184 min
Histogram: 1 1 1 0 0 0 0 0 0 1
Nghost:        1041.75 ave        1081 max         950 min
Histogram: 1 0 0 0 0 0 0 0 1 2
Neighs:        2974.25 ave        5638 max        1624 min
Histogram: 1 1 1 0 0 0 0 0 0 1

Total # of neighbors = 11897
Ave neighs/atom = 11.528101
Ave special neighs/atom = 4.8255814
Neighbor list builds = 20255
Dangerous builds = 0

write_data outputs/${tag}_final.data
write_data outputs/100ASO_mismatch_U5C_unmodified_final.data
System init for write_data ...
Generated 0 of 6 mixed pair_coeff terms from geometric mixing rule
Total wall time: 1:15:28
