
# ===============================
# FORCE FIELD (same as original)
# ===============================
bond_style harmonic
bond_coeff 1 7.5 5.9

angle_style harmonic
angle_coeff 1 5.0 150.0

pair_style hybrid/overlay lj/cut 10.0 base/rna 18.0
pair_modify shift yes
pair_coeff * * lj/cut 2.0 8.9089871814

pair_coeff 1 1 base/rna 0.00000 3.0 13.8 1.5 0.5 1.8326 0.9425 1.8326 1.1345
pair_coeff 1 2 base/rna 0.00000 3.0 13.8 1.5 0.5 1.8326 0.9425 1.8326 1.1345
pair_coeff 1 3 base/rna 0.00000 3.0 13.8 1.5 0.5 1.8326 0.9425 1.8326 1.1345
pair_coeff 1 4 base/rna 3.33333 3.0 13.8 1.5 0.5 1.8326 0.9425 1.8326 1.1345
pair_coeff 2 2 base/rna 0.00000 3.0 13.8 1.5 0.5 1.8326 0.9425 1.8326 1.1345
pair_coeff 2 3 base/rna 5.00000 3.0 13.8 1.5 0.5 1.8326 0.9425 1.8326 1.1345
pair_coeff 2 4 base/rna 0.00000 3.0 13.8 1.5 0.5 1.8326 0.9425 1.8326 1.1345
pair_coeff 3 3 base/rna 0.00000 3.0 13.8 1.5 0.5 1.8326 0.9425 1.8326 1.1345
pair_coeff 3 4 base/rna 3.33333 3.0 13.8 1.5 0.5 1.8326 0.9425 1.8326 1.1345
pair_coeff 4 4 base/rna 0.00000 3.0 13.8 1.5 0.5 1.8326 0.9425 1.8326 1.1345

special_bonds lj 0.0 0.0 1.0
Finding 1-2 1-3 1-4 neighbors ...
  special bond factors lj:    0        0        1       
  special bond factors coul:  0        0        0       
     2 = max # of 1-2 neighbors
     2 = max # of 1-3 neighbors
     4 = max # of 1-4 neighbors
     6 = max # of special neighbors
  special bonds CPU = 0.000 seconds
neighbor 15.0 bin
neigh_modify every 10 delay 0
comm_style tiled
timestep 10

# ===============================
# 1. MINIMIZATION
# ===============================
minimize 1.0e-4 1.0e-6 1000 10000

CITE-CITE-CITE-CITE-CITE-CITE-CITE-CITE-CITE-CITE-CITE-CITE-CITE

Your simulation uses code contributions which should be cited:

- Type Label Framework: https://doi.org/10.1021/acs.jpcb.3c08419

@Article{Gissinger24,
 author = {Jacob R. Gissinger, Ilia Nikiforov, Yaser Afshar, Brendon Waters, Moon-ki Choi, Daniel S. Karls, Alexander Stukowski, Wonpil Im, Hendrik Heinz, Axel Kohlmeyer, and Ellad B. Tadmor},
 title = {Type Label Framework for Bonded Force Fields in LAMMPS},
 journal = {J. Phys. Chem. B},
 year =    2024,
 volume =  128,
 number =  13,
 pages =   {3282–-3297}
}

CITE-CITE-CITE-CITE-CITE-CITE-CITE-CITE-CITE-CITE-CITE-CITE-CITE

Switching to 'neigh_modify every 1 delay 0 check yes' setting during minimization
Generated 0 of 6 mixed pair_coeff terms from geometric mixing rule
Neighbor list info ...
  update: every = 1 steps, delay = 0 steps, check = yes
  max neighbors/atom: 2000, page size: 100000
  master list distance cutoff = 33
  ghost atom cutoff = 33
  binsize = 16.5, bins = 10 10 10
  2 neighbor lists, perpetual/occasional/extra = 2 0 0
  (1) pair lj/cut, perpetual, trim from (2)
      attributes: half, newton on, cut 25
      pair build: trim
      stencil: none
      bin: none
  (2) pair base/rna, perpetual
      attributes: half, newton on
      pair build: half/bin/newton
      stencil: half/bin/3d
      bin: standard
Per MPI rank memory allocation (min/avg/max) = 8.423 | 8.424 | 8.424 Mbytes
   Step          Temp          E_pair         E_mol          TotEng         Press     
         0   0              1.0580978e+10  2470.137       1.0580981e+10  7.0853292e+08
      1000   0             -506.25113      20.585408     -485.66572     -0.82716284   
Loop time of 0.730003 on 4 procs for 1000 steps with 1032 atoms

98.8% CPU use with 4 MPI tasks x 1 OpenMP threads

Minimization stats:
  Stopping criterion = max iterations
  Energy initial, next-to-last, final = 
      10580980656.9096    -485.3008435226  -485.665719305478
  Force two-norm initial, final = 1.0814475e+11 3.1498046
  Force max component initial, final = 7.2185032e+10 0.50522991
  Final line search alpha, max atom move = 0.056569596 0.028580652
  Iterations, force evaluations = 1000 1457

MPI task timing breakdown:
Section |  min time  |  avg time  |  max time  |%varavg| %total
---------------------------------------------------------------
Pair    | 0.28678    | 0.42782    | 0.63639    |  20.1 | 58.61
Bond    | 0.02591    | 0.030106   | 0.037939   |   2.7 |  4.12
Neigh   | 0.0033654  | 0.0033702  | 0.0033748  |   0.0 |  0.46
Comm    | 0.039023   | 0.25484    | 0.40008    |  26.8 | 34.91
Output  | 2.4871e-05 | 2.517e-05  | 2.5721e-05 |   0.0 |  0.00
Modify  | 0          | 0          | 0          |   0.0 |  0.00
Other   |            | 0.01384    |            |       |  1.90

Nlocal:            258 ave         326 max         216 min
Histogram: 1 0 1 1 0 0 0 0 0 1
Nghost:            870 ave         918 max         842 min
Histogram: 1 0 2 0 0 0 0 0 0 1
Neighs:           2503 ave        3861 max        1544 min
Histogram: 1 0 1 0 1 0 0 0 0 1

Total # of neighbors = 10012
Ave neighs/atom = 9.7015504
Ave special neighs/atom = 4.8255814
Neighbor list builds = 5
Dangerous builds = 0
reset_timestep 0

# ===============================
# 2. OUTPUTS
# ===============================
dump d1 all custom 50000 outputs/${tag}.lammpstrj id mol type q xu yu zu
dump d1 all custom 50000 outputs/100ASO_unmodified_loop_GG_to_AA.lammpstrj id mol type q xu yu zu
dump_modify d1 sort id

thermo_style custom step pe ke etotal temp press density
thermo 10000
thermo_modify flush yes

variable vpe equal pe
variable vke equal ke
variable vT  equal temp
variable vE  equal etotal
variable vRg equal gyration(all)

fix favg all ave/time 10000 10 100000 v_vpe v_vke v_vT v_vE v_vRg     file outputs/thermo_${tag}_averaged.dat
fix favg all ave/time 10000 10 100000 v_vpe v_vke v_vT v_vE v_vRg     file outputs/thermo_100ASO_unmodified_loop_GG_to_AA_averaged.dat

# ===============================
# 3. EQUILIBRATION (NVT)
# ===============================
velocity all create ${T_target} 61181 rot yes dist gaussian
velocity all create 300 61181 rot yes dist gaussian

# Langevin thermostat for equilibration
fix fxlang all langevin ${T_target} ${T_target} 1000.0 44922
fix fxlang all langevin 300 ${T_target} 1000.0 44922
fix fxlang all langevin 300 300 1000.0 44922
fix fxnve  all nve
fix recenter all momentum 1000 linear 1 1 1

# Equilibration run
run 5000000
Generated 0 of 6 mixed pair_coeff terms from geometric mixing rule
Per MPI rank memory allocation (min/avg/max) = 7.314 | 7.315 | 7.315 Mbytes
   Step         PotEng         KinEng         TotEng          Temp          Press         Density    
         0  -485.66572      921.96455      436.29883      300            9.4621678      0.13457152   
     10000   301.77976      957.24083      1259.0206      311.47862      3.3991166      0.13457152   
     20000   306.90935      914.08287      1220.9922      297.43536      2.7210013      0.13457152   
     30000   319.38068      914.87288      1234.2536      297.69243      3.8139929      0.13457152   
     40000   266.75463      949.94131      1216.6959      309.10342      6.5225006      0.13457152   
     50000   258.36195      929.1812       1187.5432      302.34824      1.261351       0.13457152   
     60000   251.64212      966.28702      1217.9291      314.42218      5.16355        0.13457152   
     70000   220.74843      943.58207      1164.3305      307.03417      0.22283743     0.13457152   
     80000   173.46101      887.83507      1061.2961      288.89454      4.1048045      0.13457152   
     90000   182.73196      924.10395      1106.8359      300.69614      2.5390558      0.13457152   
    100000   129.08818      935.81342      1064.9016      304.50631      0.46568669     0.13457152   
    110000   119.31865      919.72148      1039.0401      299.27012      1.2076629      0.13457152   
    120000   115.53388      938.73374      1054.2676      305.45656      6.0949695      0.13457152   
    130000   89.56744       957.12062      1046.6881      311.43951     -5.8700765      0.13457152   
    140000   75.208479      962.26573      1037.4742      313.11369      10.416167      0.13457152   
    150000   43.711585      939.3434       983.05498      305.65494      0.59511555     0.13457152   
    160000   40.355615      891.41594      931.77155      290.05972      4.8781993      0.13457152   
    170000  -18.4644        934.33632      915.87192      304.02568      1.593162       0.13457152   
    180000   28.9682        911.21732      940.18552      296.50294      6.4835806      0.13457152   
    190000  -43.569972      930.17393      886.60396      302.67127     -0.19444981     0.13457152   
    200000  -37.230529      929.49703      892.2665       302.45101      1.2859928      0.13457152   
    210000  -46.44706       926.4613       880.01424      301.46321     -0.87146972     0.13457152   
    220000  -41.194442      955.30873      914.11428      310.84993      3.888509       0.13457152   
    230000  -30.501953      936.50764      906.00569      304.73221      1.8211232      0.13457152   
    240000  -24.005862      918.02272      894.01686      298.71736      1.5950977      0.13457152   
    250000  -77.997994      919.65743      841.65944      299.24928      2.2131556      0.13457152   
    260000  -73.317809      943.09174      869.77393      306.87462      2.6563793      0.13457152   
    270000  -76.972442      912.37947      835.40702      296.88109      1.3671995      0.13457152   
    280000  -96.495295      945.61975      849.12445      307.69722      1.7948635      0.13457152   
    290000  -62.241148      944.3718       882.13065      307.29114      0.1878249      0.13457152   
    300000  -78.44196       912.25361      833.81165      296.84014      2.0823058      0.13457152   
    310000  -49.792051      922.09326      872.30121      300.04188      1.2081768      0.13457152   
    320000  -91.682914      896.61113      804.92822      291.7502       0.30752004     0.13457152   
    330000  -43.736902      897.26816      853.53126      291.96399     -0.081277752    0.13457152   
    340000  -55.19204       922.45165      867.25961      300.1585       1.7990626      0.13457152   
    350000  -17.788349      922.53582      904.74747      300.18589      8.0102201      0.13457152   
    360000  -72.351761      900.89337      828.54161      293.1436       0.014213144    0.13457152   
    370000  -81.884943      934.99044      853.1055       304.23852      4.2686935      0.13457152   
    380000  -88.479726      930.92747      842.44775      302.91647      10.041834      0.13457152   
    390000  -124.19969      880.86335      756.66366      286.62599      7.6396064      0.13457152   
    400000  -46.318561      919.34248      873.02392      299.1468      -1.0637433      0.13457152   
    410000  -67.013761      953.91863      886.90487      310.39761      1.3085295      0.13457152   
    420000  -90.567933      919.72096      829.15303      299.26995      7.6621893      0.13457152   
    430000  -52.279903      925.90098      873.62108      301.28089     -0.63730715     0.13457152   
    440000  -76.078336      936.86845      860.79012      304.84961      3.8097003      0.13457152   
    450000  -61.07714       902.69171      841.61457      293.72877      2.4282466      0.13457152   
    460000  -123.77795      930.06184      806.28389      302.63479      7.7155172      0.13457152   
    470000  -64.761032      940.01554      875.25451      305.87365     -0.79704929     0.13457152   
    480000  -41.397677      920.87986      879.48218      299.64705      6.9880509      0.13457152   
    490000  -74.366102      918.93366      844.56756      299.01377      4.1458157      0.13457152   
    500000  -97.180141      923.5923       826.41216      300.52966     -0.70983515     0.13457152   
    510000  -118.6002       932.03149      813.43129      303.2757      -3.0439627      0.13457152   
    520000  -115.0648       879.75011      764.68532      286.26376     -0.48455028     0.13457152   
    530000  -67.163598      935.01576      867.85216      304.24676      2.4894312      0.13457152   
    540000  -79.790712      916.91051      837.1198       298.35546      3.0113023      0.13457152   
    550000  -104.73985      922.3712       817.63135      300.13232      3.5161173      0.13457152   
    560000  -70.100014      918.02569      847.92567      298.71833     -5.1985158      0.13457152   
    570000  -79.436205      906.54755      827.11135      294.98343      2.2673096      0.13457152   
    580000  -72.086543      960.20293      888.11639      312.44247      1.9659834      0.13457152   
    590000  -147.91779      903.53948      755.62169      294.00463      1.9092953      0.13457152   
    600000  -95.221805      964.74727      869.52547      313.92116      2.2376927      0.13457152   
    610000  -85.233566      906.2755       821.04194      294.89491      2.0153821      0.13457152   
    620000  -104.91132      880.44919      775.53787      286.49123      12.392225      0.13457152   
    630000  -120.52717      917.46789      796.94072      298.53682      4.3845692      0.13457152   
    640000  -104.88798      909.41242      804.52444      295.91564      3.4378241      0.13457152   
    650000  -82.042232      888.11582      806.07359      288.98589     -1.7386204      0.13457152   
    660000  -90.4485        904.04585      813.59735      294.1694       11.392019      0.13457152   
    670000  -107.14253      881.18809      774.04556      286.73166      3.6621733      0.13457152   
    680000  -113.58102      910.74635      797.16533      296.34969     -0.12604059     0.13457152   
    690000  -152.8851       936.72143      783.83633      304.80177      9.253581       0.13457152   
    700000  -121.58708      884.84443      763.25735      287.92141      3.8142353      0.13457152   
    710000  -77.297681      935.66216      858.36448      304.4571       8.3635737      0.13457152   
    720000  -86.826733      928.31201      841.48528      302.06541     -2.9672152      0.13457152   
    730000  -93.160034      909.80264      816.64261      296.04261     -4.6431802      0.13457152   
    740000  -202.77365      911.16379      708.39015      296.48552     -1.3508523      0.13457152   
    750000  -130.8675       929.74403      798.87653      302.53138     -2.0134666      0.13457152   
    760000  -148.01795      903.87411      755.85616      294.11351     -7.161201       0.13457152   
    770000  -133.65073      919.84622      786.19549      299.31071     -8.5082037      0.13457152   
    780000  -128.82229      913.27666      784.45437      297.17303      9.5343746      0.13457152   
    790000  -75.124915      897.29039      822.16548      291.97122      1.0558759      0.13457152   
    800000  -71.222997      916.38045      845.15745      298.18298     -5.8683059      0.13457152   
    810000  -73.131989      902.61366      829.48167      293.70337     -5.3241694      0.13457152   
    820000  -55.760719      961.9016       906.14088      312.9952       1.7747617      0.13457152   
    830000  -46.944611      891.05032      844.10571      289.94075      6.4599387      0.13457152   
    840000  -60.468825      965.3054       904.83657      314.10277      3.000814       0.13457152   
    850000  -81.098895      886.61524      805.51634      288.49761      0.76784101     0.13457152   
    860000  -85.173433      906.21139      821.03795      294.87405      0.73591251     0.13457152   
    870000  -77.710108      886.46058      808.75047      288.44729      0.29912169     0.13457152   
    880000  -107.25412      911.74891      804.4948       296.67591      10.306697      0.13457152   
    890000  -124.27363      906.73273      782.4591       295.04368     -0.31197768     0.13457152   
    900000  -107.45736      912.2164       804.75904      296.82803     -0.19232829     0.13457152   
    910000  -186.25378      914.69471      728.44093      297.63445     -2.7903164      0.13457152   
    920000  -173.98133      907.21545      733.23413      295.20076      2.5325074      0.13457152   
    930000  -111.99223      872.86941      760.87717      284.02483     -4.9683975      0.13457152   
    940000  -157.64158      882.35234      724.71076      287.1105       4.3640489      0.13457152   
    950000  -122.88411      936.89264      814.00853      304.85748      0.1150765      0.13457152   
    960000  -90.835739      907.97442      817.13868      295.44772      2.1221578      0.13457152   
    970000  -138.48393      979.29         840.80607      318.65325      5.5518262      0.13457152   
    980000  -73.557303      903.23638      829.67908      293.906       -1.7795494      0.13457152   
    990000  -89.948643      932.89346      842.94482      303.55618      5.2482854      0.13457152   
   1000000  -87.115301      882.58681      795.47151      287.1868       2.7605077      0.13457152   
   1010000  -90.518962      893.26293      802.74397      290.66072     -11.020561      0.13457152   
   1020000  -116.89687      911.99602      795.09915      296.75632      6.2361976      0.13457152   
   1030000  -124.92708      924.22261      799.29554      300.73476      3.1939669      0.13457152   
   1040000  -127.67171      972.27666      844.60495      316.37116      2.4083998      0.13457152   
   1050000  -117.70653      896.28246      778.57593      291.64325      6.7517939      0.13457152   
   1060000  -102.4331       929.59759      827.16449      302.48373     -4.1432917      0.13457152   
   1070000  -65.842754      900.86984      835.02708      293.13595      3.2193563      0.13457152   
   1080000  -58.634721      916.19967      857.56495      298.12416      4.9148445      0.13457152   
   1090000  -117.3204       891.52292      774.20252      290.09453      6.7442884      0.13457152   
   1100000  -138.30178      976.46548      838.1637       317.73417      2.3374934      0.13457152   
   1110000  -126.4994       885.6545       759.1551       288.185        0.20149447     0.13457152   
   1120000  -121.56526      902.96631      781.40105      293.81812     -5.2340802      0.13457152   
   1130000  -127.58714      923.97225      796.38512      300.65329      1.6542553      0.13457152   
   1140000  -84.473547      918.35605      833.8825       298.82582      2.3534527      0.13457152   
   1150000  -60.357543      903.15955      842.80201      293.881       -2.5675206      0.13457152   
   1160000  -111.57625      892.71852      781.14227      290.48357     -1.2060256      0.13457152   
   1170000  -2.0960517      973.56111      971.46506      316.78912      0.86395782     0.13457152   
   1180000  -84.607627      937.28588      852.67826      304.98544      6.7934618      0.13457152   
   1190000  -68.584713      910.87988      842.29517      296.39314      1.9581195      0.13457152   
   1200000  -114.21676      928.0969       813.88014      301.99542     -2.8634201      0.13457152   
   1210000  -88.75246       902.53094      813.77848      293.67646     -0.071016965    0.13457152   
   1220000  -83.379471      956.38721      873.00774      311.20086     -5.1327325      0.13457152   
   1230000  -122.36228      900.81525      778.45298      293.11819     -2.3737747      0.13457152   
   1240000  -138.73819      960.93259      822.1944       312.67989     -0.35155606     0.13457152   
   1250000  -86.956397      937.24388      850.28749      304.97178      8.0217136      0.13457152   
   1260000  -92.693358      916.19093      823.49758      298.12131     -5.4412434      0.13457152   
   1270000  -122.21682      947.33871      825.12189      308.25655      4.1810487      0.13457152   
   1280000  -59.603792      899.84965      840.24586      292.80399     -3.4590431      0.13457152   
   1290000  -64.31116       939.5875       875.27634      305.73437     -1.3772709      0.13457152   
   1300000  -67.149391      912.22818      845.07879      296.83186      1.27242        0.13457152   
   1310000  -82.589842      922.06442      839.47457      300.0325       2.8155669      0.13457152   
   1320000  -67.778347      871.50299      803.72464      283.58021      3.2091366      0.13457152   
   1330000  -82.087162      932.63934      850.55218      303.47349     -1.6977954      0.13457152   
   1340000  -85.154683      930.7172       845.56251      302.84804      8.1377322      0.13457152   
   1350000  -69.085836      880.16393      811.07809      286.39841     -3.5110806      0.13457152   
   1360000  -68.865847      936.74152      867.87567      304.80831     -0.11474619     0.13457152   
   1370000  -76.789568      870.49002      793.70045      283.25059     -0.27272692     0.13457152   
   1380000  -44.532563      892.14655      847.61399      290.29746      5.6784591      0.13457152   
   1390000  -44.271451      953.17486      908.90341      310.15559      4.6152068      0.13457152   
   1400000  -35.161904      890.31131      855.14941      289.70029     -1.3413103      0.13457152   
   1410000  -21.811038      919.27646      897.46542      299.12532     -0.088681023    0.13457152   
   1420000  -106.4248       941.44766      835.02286      306.33965      6.9139873      0.13457152   
   1430000  -134.0123       930.04675      796.03445      302.62989      2.0382534      0.13457152   
   1440000  -88.703399      951.81306      863.10966      309.71247      7.703334       0.13457152   
   1450000  -98.614916      919.10934      820.49443      299.07094     -0.79765916     0.13457152   
   1460000  -59.722421      899.81622      840.0938       292.79311      4.1572759      0.13457152   
   1470000  -27.482716      895.6827       868.19999      291.44809      1.4782316      0.13457152   
   1480000  -35.679471      893.69328      858.01381      290.80075     -0.65880456     0.13457152   
   1490000  -101.98046      895.58929      793.60884      291.4177      -9.0204595      0.13457152   
   1500000  -106.74383      909.83739      803.09356      296.05392      2.080301       0.13457152   
   1510000  -97.579659      872.85292      775.27326      284.01946     -1.7849574      0.13457152   
   1520000  -86.338717      929.03347      842.69476      302.30017     -3.6690748      0.13457152   
   1530000  -32.341719      869.28609      836.94437      282.85885     -4.8069591      0.13457152   
   1540000  -47.324488      932.75307      885.42859      303.5105       2.6359065      0.13457152   
   1550000  -85.0897        894.41447      809.32477      291.03542     -6.8362464      0.13457152   
   1560000  -111.41206      917.16788      805.75583      298.4392      -2.0005838      0.13457152   
   1570000  -42.269777      940.83868      898.5689       306.14149      2.0137197      0.13457152   
   1580000  -118.26279      929.33398      811.07119      302.39796     -7.0766065      0.13457152   
   1590000  -134.77932      931.18816      796.40883      303.00129     -2.0802523      0.13457152   
   1600000  -109.19943      906.7299       797.53047      295.04276      4.1330484      0.13457152   
   1610000  -83.122562      917.5861       834.46354      298.57529     -2.67118        0.13457152   
   1620000  -58.485043      944.95317      886.46813      307.48032     -1.9191783      0.13457152   
   1630000  -62.57849       884.79136      822.21287      287.90414     -3.7378832      0.13457152   
   1640000  -109.20249      933.00762      823.80514      303.59333     -4.9754044      0.13457152   
   1650000  -62.966137      902.66079      839.69465      293.71871      1.2166931      0.13457152   
   1660000  -90.554061      918.16688      827.61282      298.76427      1.6007845      0.13457152   
   1670000  -62.519434      914.56075      852.04132      297.59086      1.2198945      0.13457152   
   1680000  -139.02103      939.55138      800.53036      305.72262     -3.4321263      0.13457152   
   1690000  -110.77304      964.01296      853.23992      313.68222      1.8030531      0.13457152   
   1700000  -90.45165       908.9205       818.46885      295.75557      6.8407635      0.13457152   
   1710000  -93.330533      907.27774      813.94721      295.22103      2.7312886      0.13457152   
   1720000  -93.423493      925.97292      832.54943      301.30429      3.1958732      0.13457152   
   1730000  -114.76224      904.70199      789.93976      294.3829      -7.9154732      0.13457152   
   1740000  -105.2396       904.62186      799.38226      294.35683     -0.31001541     0.13457152   
   1750000  -94.027787      913.44095      819.41317      297.22649     -1.9076215      0.13457152   
   1760000  -78.428773      906.98792      828.55914      295.12672     -7.5395683      0.13457152   
   1770000  -142.011        941.86213      799.85112      306.47452     -0.021983311    0.13457152   
   1780000  -110.69526      935.44581      824.75054      304.3867       1.1017035      0.13457152   
   1790000  -90.520014      950.07933      859.55932      309.14833      0.9646264      0.13457152   
   1800000  -107.46442      919.33807      811.87365      299.14537     -1.0575635      0.13457152   
   1810000  -122.19628      912.51229      790.31601      296.92431     -1.3973986      0.13457152   
   1820000  -149.39635      917.39289      767.99654      298.51242     -1.605521       0.13457152   
   1830000  -146.15017      917.52971      771.37954      298.55694     -0.68622846     0.13457152   
   1840000  -130.96313      911.43084      780.4677       296.57241     -1.9736831      0.13457152   
   1850000  -80.811408      914.10008      833.28868      297.44097      2.0186272      0.13457152   
   1860000  -156.36143      889.73331      733.37189      289.51221     -1.9463555      0.13457152   
   1870000  -119.69926      925.02983      805.33056      300.99742      2.9303723      0.13457152   
   1880000  -64.386491      896.36453      831.97804      291.66996      0.015284223    0.13457152   
   1890000  -95.654639      926.89249      831.23785      301.60351      1.2061505      0.13457152   
   1900000  -112.1238       942.97251      830.84871      306.83583      5.6406777      0.13457152   
   1910000  -84.569976      903.33634      818.76637      293.93853      0.62143771     0.13457152   
   1920000  -109.07114      887.67221      778.60107      288.84154      5.987896       0.13457152   
   1930000  -121.73957      929.39366      807.65409      302.41738     -1.5382913      0.13457152   
   1940000  -108.3365       914.6709       806.33441      297.6267       4.3554437      0.13457152   
   1950000  -109.47011      926.5606       817.09048      301.49552     -1.7189985      0.13457152   
   1960000  -126.62569      890.72851      764.10282      289.83604      0.19704717     0.13457152   
   1970000  -96.258584      957.53559      861.27701      311.57454     -2.0606331      0.13457152   
   1980000  -94.535838      954.4278       859.89196      310.56329     -0.52209412     0.13457152   
   1990000  -124.24032      898.11249      773.87216      292.23873      1.5890027      0.13457152   
   2000000  -115.5265       875.68229      760.1558       284.94012      2.1635652      0.13457152   
   2010000  -101.883        928.48207      826.59907      302.12075     -4.8153381      0.13457152   
   2020000  -140.01981      956.01794      815.99813      311.08071      4.2633224      0.13457152   
   2030000  -137.90108      915.92743      778.02635      298.03557      6.062994       0.13457152   
   2040000  -128.53859      924.5156       795.97701      300.83009     -2.5271997      0.13457152   
   2050000  -151.42174      940.8751       789.45336      306.15334     -4.8192683      0.13457152   
   2060000  -152.45089      917.26916      764.81826      298.47216      6.2220799      0.13457152   
   2070000  -144.94661      922.31192      777.36531      300.11303      5.2966748      0.13457152   
   2080000  -158.26126      891.41068      733.14943      290.05801      4.2504952      0.13457152   
   2090000  -126.19886      887.02659      760.82773      288.63146     -4.618979       0.13457152   
   2100000  -141.70347      896.83875      755.13528      291.82426     -0.39941192     0.13457152   
   2110000  -149.93643      896.2543       746.31787      291.63409      6.7771306      0.13457152   
   2120000  -148.16476      864.54693      716.38216      281.31676      9.6133323      0.13457152   
   2130000  -163.19927      929.31845      766.11918      302.3929       1.2707197      0.13457152   
   2140000  -142.26221      915.53842      773.27622      297.90899     -2.9441216      0.13457152   
   2150000  -84.558804      956.28788      871.72907      311.16854      4.0284699      0.13457152   
   2160000  -63.651615      947.07782      883.42621      308.17166      0.70050415     0.13457152   
   2170000  -148.14532      905.93038      757.78506      294.78261      7.643919       0.13457152   
   2180000  -101.07515      927.00987      825.93472      301.64171      1.668922       0.13457152   
   2190000  -182.48924      931.03161      748.54237      302.95035     -3.6115207      0.13457152   
   2200000  -168.50867      932.47489      763.96621      303.41998     -5.6135828      0.13457152   
   2210000  -149.61956      935.46064      785.84108      304.39152      3.2941776      0.13457152   
   2220000  -105.3964       925.73591      820.33951      301.22717      1.1376168      0.13457152   
   2230000  -154.94858      924.17629      769.22771      300.71968      3.6711716      0.13457152   
   2240000  -100.77686      911.45083      810.67396      296.57892     -6.5654258      0.13457152   
   2250000  -103.98006      900.7669       796.78684      293.10245     -2.797059       0.13457152   
   2260000  -117.05606      894.86421      777.80816      291.18176      2.6219297      0.13457152   
   2270000  -125.38102      934.8101       809.42908      304.17984     -3.2297151      0.13457152   
   2280000  -163.18339      945.72106      782.53767      307.73018      2.2674368      0.13457152   
   2290000  -115.01826      952.10178      837.08351      309.80642      3.7390613      0.13457152   
   2300000  -67.398689      915.96182      848.56314      298.04676     -0.2391598      0.13457152   
   2310000  -81.013202      922.9796       841.96639      300.33029      11.067166      0.13457152   
   2320000  -103.04448      915.15538      812.11089      297.78435      7.7370745      0.13457152   
   2330000  -112.34225      933.83896      821.4967       303.86384     -0.9951551      0.13457152   
   2340000  -150.0292       883.2281       733.1989       287.39547      0.84955325     0.13457152   
   2350000  -102.41061      888.14719      785.73658      288.9961       8.2170556      0.13457152   
   2360000  -108.45416      936.8097       828.35555      304.8305      -0.58461601     0.13457152   
   2370000  -106.00855      923.10089      817.09234      300.36976     -3.0653797      0.13457152   
   2380000  -108.29533      1000.039       891.74367      325.40481      9.4442253      0.13457152   
   2390000  -58.78259       933.1543       874.37171      303.64106     -1.7543418      0.13457152   
   2400000  -85.206529      917.17252      831.966        298.44071      2.6897607      0.13457152   
   2410000  -113.92051      930.96991      817.0494       302.93027      4.9082688      0.13457152   
   2420000  -80.196787      944.15778      863.96099      307.2215       2.5575589      0.13457152   
   2430000  -86.165935      923.63948      837.47354      300.54501      3.0897168      0.13457152   
   2440000  -100.35392      947.61951      847.26559      308.34792      4.5262733      0.13457152   
   2450000  -83.965734      905.91922      821.95349      294.77898     -3.5907122      0.13457152   
   2460000  -104.55518      932.4334       827.87823      303.40648      8.0366946      0.13457152   
   2470000  -70.543923      919.45555      848.91163      299.18359     -3.0351773      0.13457152   
   2480000  -126.43847      927.97676      801.53829      301.95633      1.2080842      0.13457152   
   2490000  -48.735954      953.39858      904.66263      310.22839      1.2655584      0.13457152   
   2500000  -31.301105      881.26289      849.96178      286.756        3.4078943      0.13457152   
   2510000  -42.16308       961.47333      919.31025      312.85585      1.0710758      0.13457152   
   2520000  -80.793183      921.28938      840.4962       299.7803      -0.27943338     0.13457152   
   2530000  -80.770571      900.73253      819.96196      293.09127      2.7700661      0.13457152   
   2540000  -97.012978      916.03867      819.02569      298.07176      1.906201       0.13457152   
   2550000  -22.138758      904.67426      882.5355       294.37388      3.9093193      0.13457152   
   2560000  -102.66434      889.24589      786.58155      289.35361      2.6683877      0.13457152   
   2570000  -25.356548      909.94183      884.58528      296.0879       2.0178889      0.13457152   
   2580000  -61.811535      906.78378      844.97225      295.0603       9.1333916      0.13457152   
   2590000  -103.47399      889.96871      786.49471      289.58881     -1.1350212      0.13457152   
   2600000  -107.02232      870.54635      763.52403      283.26892     -0.97256138     0.13457152   
   2610000  -62.714995      906.7108       843.99581      295.03655     -0.76974915     0.13457152   
   2620000  -88.544601      956.6199       868.0753       311.27658      1.5041461      0.13457152   
   2630000  -63.262052      917.10418      853.84213      298.41847     -0.35285729     0.13457152   
   2640000  -62.145378      902.52344      840.37806      293.67402      5.2244461      0.13457152   
   2650000  -86.386272      886.35646      799.97018      288.41341     -2.6392574      0.13457152   
   2660000  -111.50135      855.93028      744.42894      278.51297      1.7297888      0.13457152   
   2670000  -102.08565      901.69839      799.61274      293.40555      6.9517792      0.13457152   
   2680000  -93.392281      901.13105      807.73877      293.22094      0.7355734      0.13457152   
   2690000  -55.470489      913.97518      858.5047       297.40032      5.9925782      0.13457152   
   2700000  -79.198177      929.36721      850.16904      302.40877      0.92759925     0.13457152   
   2710000  -59.645381      949.15425      889.50887      308.84732      1.2190565      0.13457152   
   2720000  -123.45829      940.36307      816.90478      305.98673     -1.8396405      0.13457152   
   2730000  -114.31189      909.73802      795.42614      296.02159     -3.3701945      0.13457152   
   2740000  -75.247063      994.59908      919.35202      323.63471      3.1369839      0.13457152   
   2750000  -55.52294       904.81286      849.28992      294.41897     -0.61705822     0.13457152   
   2760000  -40.022631      910.44603      870.42339      296.25196      9.335477       0.13457152   
   2770000  -67.032035      938.79865      871.76662      305.47768     -0.63737293     0.13457152   
   2780000  -96.317648      919.0551       822.73745      299.05329     -2.0908932      0.13457152   
   2790000  -83.936753      919.13776      835.201        299.08018      2.6867965      0.13457152   
   2800000  -35.137426      894.49523      859.35781      291.0617      -4.068334       0.13457152   
   2810000  -105.729        944.44153      838.71253      307.31383      3.9133541      0.13457152   
   2820000  -41.005741      910.71652      869.71078      296.33998     -3.2047764      0.13457152   
   2830000  -32.737285      909.8238       877.08651      296.0495      -1.7361599      0.13457152   
   2840000  -11.495246      899.67873      888.18348      292.74837      4.8516818      0.13457152   
   2850000  -86.092562      892.22888      806.13632      290.32425      6.4051753      0.13457152   
   2860000  -45.386473      920.11913      874.73266      299.39952     -1.6328442      0.13457152   
   2870000  -91.758251      932.16917      840.41092      303.3205       7.8213462      0.13457152   
   2880000  -129.72411      918.48986      788.76576      298.86937      1.2409326      0.13457152   
   2890000  -67.874455      956.41613      888.54168      311.21027      0.21199826     0.13457152   
   2900000  -112.76668      940.89493      828.12825      306.1598       2.2484607      0.13457152   
   2910000  -103.03096      888.22846      785.1975       289.02254      6.9360701      0.13457152   
   2920000  -111.02292      936.8063       825.78338      304.82939      6.4472596      0.13457152   
   2930000  -77.127023      870.79616      793.66913      283.35021      4.4972748      0.13457152   
   2940000  -109.94362      936.22591      826.28229      304.64053      9.7880096      0.13457152   
   2950000  -114.59215      909.28365      794.6915       295.87373      4.6028013      0.13457152   
   2960000  -25.742505      945.43727      919.69477      307.63784     -2.5535123      0.13457152   
   2970000  -56.614635      905.09282      848.47818      294.51007      5.7018175      0.13457152   
   2980000  -114.23116      936.53618      822.30501      304.74149      4.8010903      0.13457152   
   2990000  -41.023335      920.9034       879.88006      299.65471      3.3790808      0.13457152   
   3000000  -35.7061        911.63865      875.93255      296.64003     -4.0409276      0.13457152   
   3010000  -58.492821      922.57637      864.08355      300.19908      2.5983857      0.13457152   
   3020000  -39.931291      932.30722      892.37593      303.36542     -2.2297701      0.13457152   
   3030000  -92.702714      938.36936      845.66664      305.338        1.7676274      0.13457152   
   3040000  -77.264236      882.31986      805.05562      287.09993      1.2484752      0.13457152   
   3050000  -46.868958      890.79927      843.93031      289.85906     -7.2351332      0.13457152   
   3060000  -113.79812      912.04826      798.25013      296.77332     -1.5822829      0.13457152   
   3070000  -69.365471      923.34672      853.98124      300.44975     -7.2244297      0.13457152   
   3080000  -52.824489      934.26988      881.44539      304.00406      0.62453759     0.13457152   
   3090000  -60.84636       928.73317      867.88681      302.20246      0.4561391      0.13457152   
   3100000  -87.813679      920.29224      832.47856      299.45584      4.8003836      0.13457152   
   3110000  -22.152809      881.6529       859.50009      286.88291      2.2903543      0.13457152   
   3120000  -29.146088      963.14964      934.00355      313.4013       1.6452613      0.13457152   
   3130000  -42.455883      925.13436      882.67847      301.03143      3.7677937      0.13457152   
   3140000  -91.617973      894.92879      803.31082      291.20278     -7.0059634      0.13457152   
   3150000  -83.382134      922.37138      838.98924      300.13238      5.3403448      0.13457152   
   3160000  -153.71649      908.1983       754.48181      295.52057      3.4178469      0.13457152   
   3170000  -95.919542      891.40645      795.48691      290.05664     -0.73445984     0.13457152   
   3180000  -118.98719      901.7031       782.71591      293.40708      2.42536        0.13457152   
   3190000  -32.318104      914.53031      882.2122       297.58096      0.83725627     0.13457152   
   3200000  -61.853449      917.4196       855.56615      298.52111     -5.479864       0.13457152   
   3210000  -77.376023      937.81695      860.44093      305.15825      2.4835353      0.13457152   
   3220000  -98.625301      958.87493      860.24963      312.01035      1.2477443      0.13457152   
   3230000  -86.11795       939.42372      853.30577      305.68108     -1.493959       0.13457152   
   3240000  -89.341456      941.05211      851.71065      306.21094      5.6639236      0.13457152   
   3250000  -87.183792      923.65057      836.46678      300.54862      4.1289302      0.13457152   
   3260000  -116.3367       901.11708      784.78039      293.2164       2.5352769      0.13457152   
   3270000  -140.30416      909.26761      768.96344      295.86852     -0.50559726     0.13457152   
   3280000  -126.13724      887.77223      761.635        288.87409     -1.3267839      0.13457152   
   3290000  -121.35881      885.22908      763.87027      288.04657      1.7060541      0.13457152   
   3300000  -97.29167       919.70834      822.41667      299.26585      0.64357788     0.13457152   
   3310000  -97.533256      933.51546      835.9822       303.75858      3.0230841      0.13457152   
   3320000  -36.165018      900.13405      863.96904      292.89653     -5.1841115      0.13457152   
   3330000  -48.453194      916.11288      867.65969      298.09591      4.288018       0.13457152   
   3340000  -90.232846      886.08053      795.84768      288.32362     -8.840353       0.13457152   
   3350000  -82.443717      925.24998      842.80627      301.06905     -1.7331991      0.13457152   
   3360000  -38.13843       921.76518      883.62675      299.93513     -6.9111307      0.13457152   
   3370000  -27.442617      895.52787      868.08526      291.39771     -4.419517       0.13457152   
   3380000  -67.865046      952.87499      885.00994      310.05801     -1.0022087      0.13457152   
   3390000  -55.261084      914.57033      859.30925      297.59398     -3.4749552      0.13457152   
   3400000  -109.37864      926.33005      816.9514       301.4205       4.3922824      0.13457152   
   3410000  -41.218892      932.90137      891.68248      303.55876     -1.7302203      0.13457152   
   3420000  -57.238706      931.40257      874.16387      303.07106     -0.7339361      0.13457152   
   3430000  -85.234977      944.56038      859.3254       307.3525      -2.9329269      0.13457152   
   3440000  -29.798196      937.50477      907.70658      305.05667     -5.8051312      0.13457152   
   3450000  -44.130697      963.62819      919.49749      313.55702      1.3671015      0.13457152   
   3460000  -27.100416      909.74884      882.64843      296.02511      0.79923479     0.13457152   
   3470000   11.465162      927.87669      939.34185      301.92376      5.7609001      0.13457152   
   3480000  -22.93432       889.28547      866.35115      289.36649      2.7247541      0.13457152   
   3490000  -48.563721      929.47202      880.9083       302.44287     -4.1762042      0.13457152   
   3500000  -27.960878      908.93654      880.97567      295.76079      0.91986384     0.13457152   
   3510000  -25.818291      946.72742      920.90913      308.05764      2.9741566      0.13457152   
   3520000  -103.75204      906.34916      802.59712      294.91888      2.0453519      0.13457152   
   3530000  -38.011085      955.18793      917.17684      310.81063      1.4430816      0.13457152   
   3540000  -46.303421      919.69755      873.39412      299.26233      5.4171218      0.13457152   
   3550000  -49.326975      917.73096      868.40399      298.62242      1.7013971      0.13457152   
   3560000  -32.525266      906.82024      874.29498      295.07216      1.7583362      0.13457152   
   3570000  -90.907552      950.67844      859.77089      309.34328     -1.8276212      0.13457152   
   3580000  -83.429542      904.63717      821.20762      294.36181     -9.4083246      0.13457152   
   3590000  -82.479689      898.08306      815.60337      292.22915      2.1185105      0.13457152   
   3600000  -75.304458      874.43588      799.13142      284.53455      0.93279778     0.13457152   
   3610000  -124.05698      916.99274      792.93576      298.38221     -7.3741247      0.13457152   
   3620000  -62.765524      950.08617      887.32064      309.15055     -5.3583732      0.13457152   
   3630000  -117.15853      869.16734      752.00881      282.8202       3.1595509      0.13457152   
   3640000  -140.78735      952.39776      811.61041      309.90273     -0.94822859     0.13457152   
   3650000  -144.06686      963.83229      819.76543      313.62343      4.3900148      0.13457152   
   3660000  -108.08784      953.81168      845.72384      310.36281      1.2001387      0.13457152   
   3670000  -91.5189        927.37095      835.85205      301.7592       0.16432881     0.13457152   
   3680000  -90.580107      905.04619      814.46608      294.4949      -1.8357137      0.13457152   
   3690000  -120.30144      899.7077       779.40626      292.7578       1.6138392      0.13457152   
   3700000  -86.111044      949.65294      863.54189      309.00958      0.70249759     0.13457152   
   3710000  -102.17756      961.50028      859.32272      312.86461     -2.0105668      0.13457152   
   3720000  -156.12796      921.68204      765.55409      299.90807     -3.1465758      0.13457152   
   3730000  -142.51879      898.22897      755.71018      292.27663      0.20689635     0.13457152   
   3740000  -118.85333      922.62056      803.76723      300.21346      2.5465981      0.13457152   
   3750000  -81.748447      903.89823      822.14979      294.12136      3.7987981      0.13457152   
   3760000  -114.20375      910.83865      796.6349       296.37972      9.8472851      0.13457152   
   3770000  -93.115893      903.82212      810.70623      294.0966      -1.3915809      0.13457152   
   3780000  -93.511558      966.21755      872.70599      314.39958      2.4065808      0.13457152   
   3790000  -97.243994      988.29043      891.04644      321.58192     -0.38173428     0.13457152   
   3800000  -112.72882      922.25931      809.53049      300.09591      0.30668543     0.13457152   
   3810000  -80.810462      894.48634      813.67588      291.05881      7.5319557      0.13457152   
   3820000  -115.59935      900.02403      784.42468      292.86073      1.7635324      0.13457152   
   3830000  -102.88317      930.15432      827.27115      302.66489      0.22634338     0.13457152   
   3840000  -169.5086       976.95898      807.45039      317.89476      6.4290288      0.13457152   
   3850000  -102.2633       905.96878      803.70548      294.7951       3.651141       0.13457152   
   3860000  -123.68869      906.08075      782.39206      294.83154      2.7951892      0.13457152   
   3870000  -141.35067      917.82714      776.47647      298.65372      6.8826547      0.13457152   
   3880000  -91.749179      913.99031      822.24113      297.40524     -8.7805446      0.13457152   
   3890000  -95.745503      885.06776      789.32225      287.99407     -1.0205064      0.13457152   
   3900000  -73.401055      916.69681      843.29576      298.28592     -2.1448154      0.13457152   
   3910000  -62.876236      919.42584      856.54961      299.17393     -6.8622647      0.13457152   
   3920000  -174.7976       895.27361      720.47601      291.31498      2.8547456      0.13457152   
   3930000  -66.45363       900.58161      834.12798      293.04216     -3.8692644      0.13457152   
   3940000  -71.975316      937.12371      865.14839      304.93267     -2.7647628      0.13457152   
   3950000  -50.024559      882.30746      832.2829       287.0959       2.4311596      0.13457152   
   3960000  -98.048141      944.44084      846.3927       307.31361      2.531276       0.13457152   
   3970000  -111.25927      945.22941      833.97014      307.5702       3.1302703      0.13457152   
   3980000  -139.22604      921.53596      782.30992      299.86054     -0.7143084      0.13457152   
   3990000  -129.81282      905.18396      775.37115      294.53973      2.4260541      0.13457152   
   4000000  -103.83921      895.56581      791.7266       291.41006     -2.2422494      0.13457152   
   4010000  -194.06667      871.92184      677.85517      283.7165       3.6943526      0.13457152   
   4020000  -139.55629      938.48748      798.93119      305.37643     -2.5774198      0.13457152   
   4030000  -97.991333      899.43056      801.43922      292.66762     -0.071353917    0.13457152   
   4040000  -158.4622       906.66455      748.20235      295.0215      -0.98131801     0.13457152   
   4050000  -158.14015      894.25301      736.11286      290.98289      1.7275595      0.13457152   
   4060000  -173.87895      957.04407      783.16512      311.4146      -0.40443579     0.13457152   
   4070000  -151.14122      889.91891      738.77769      289.5726       5.2227549      0.13457152   
   4080000  -138.62286      918.69253      780.06967      298.93531      1.385883       0.13457152   
   4090000  -95.266292      924.82003      829.55374      300.92915     -4.4689449      0.13457152   
   4100000  -144.96899      948.10371      803.13472      308.50548      4.5786253      0.13457152   
   4110000  -83.853747      909.10523      825.25148      295.81568     -3.3271956      0.13457152   
   4120000  -82.746205      940.06192      857.31572      305.88874      5.2505958      0.13457152   
   4130000  -175.55771      899.82738      724.26967      292.79674     -1.5425868      0.13457152   
   4140000  -173.13339      954.17891      781.04552      310.4823       6.1523694      0.13457152   
   4150000  -133.43203      905.93097      772.49895      294.7828       3.5628306      0.13457152   
   4160000  -122.01537      972.65047      850.6351       316.4928       6.8449438      0.13457152   
   4170000  -152.09969      940.75814      788.65845      306.11529      4.9184746      0.13457152   
   4180000  -175.34807      880.86031      705.51224      286.625       -2.7682779      0.13457152   
   4190000  -102.26566      978.08401      875.81834      318.26083      4.6385836      0.13457152   
   4200000  -160.63746      894.90015      734.26268      291.19346     -0.43789674     0.13457152   
   4210000  -156.79573      909.56701      752.77128      295.96594      9.5486402      0.13457152   
   4220000  -128.45136      911.9188       783.46744      296.73119      0.4071126      0.13457152   
   4230000  -130.49589      952.03656      821.54067      309.7852       1.2598252      0.13457152   
   4240000  -176.62317      932.43812      755.81495      303.40802     -3.9406485      0.13457152   
   4250000  -102.46484      899.75148      797.28664      292.77204      2.9004674      0.13457152   
   4260000  -130.55438      926.29283      795.73845      301.40839      2.1314075      0.13457152   
   4270000  -136.25126      906.84281      770.59155      295.07951      5.2373918      0.13457152   
   4280000  -155.04296      890.51287      735.46991      289.76587      0.31503992     0.13457152   
   4290000  -134.13834      905.67733      771.53899      294.70027      4.7646084      0.13457152   
   4300000  -147.9725       923.01085      775.03835      300.34046     -0.71136109     0.13457152   
   4310000  -106.72254      920.07656      813.35402      299.38566      4.0577262      0.13457152   
   4320000  -173.06515      936.71929      763.65414      304.80108      7.3467226      0.13457152   
   4330000  -120.15571      912.77764      792.62193      297.01065     -3.5958877      0.13457152   
   4340000  -102.13904      934.74271      832.60367      304.15791     -7.3859145      0.13457152   
   4350000  -144.79639      941.79963      797.00324      306.45418      1.7106367      0.13457152   
   4360000  -83.316365      907.49104      824.17467      295.29043     -5.2388182      0.13457152   
   4370000  -121.64014      941.06886      819.42873      306.21639     -0.75499427     0.13457152   
   4380000  -144.45995      925.5388       781.07885      301.16303      4.0334524      0.13457152   
   4390000  -77.227012      914.96232      837.73531      297.72153      1.0124099      0.13457152   
   4400000  -130.52943      957.33368      826.80425      311.50884     -7.8039581      0.13457152   
   4410000  -41.489606      926.34261      884.853        301.42459     -3.0793512      0.13457152   
   4420000  -61.954162      912.62909      850.67493      296.96232      5.560571       0.13457152   
   4430000  -79.819998      940.03633      860.21634      305.88042     -6.3463348      0.13457152   
   4440000  -109.5572       917.26801      807.71081      298.47178     -3.2104187      0.13457152   
   4450000  -136.16342      911.53155      775.36813      296.60519     -8.9476828      0.13457152   
   4460000  -136.14064      927.6543       791.51366      301.8514       5.2126429      0.13457152   
   4470000  -96.588581      927.63782      831.04924      301.84604      4.8223523      0.13457152   
   4480000  -133.28243      978.47712      845.19468      318.38874      0.72184451     0.13457152   
   4490000  -90.020849      936.32071      846.29986      304.67138     -1.7894048      0.13457152   
   4500000  -138.94517      940.82165      801.87648      306.13595     -3.5654154      0.13457152   
   4510000  -117.20349      949.0106       831.80711      308.80057     -1.0706049      0.13457152   
   4520000  -120.15993      939.86135      819.70142      305.82348      6.1886936      0.13457152   
   4530000  -103.65469      916.73785      813.08316      298.29927      1.8994593      0.13457152   
   4540000  -91.033981      914.0283       822.99432      297.41761      7.824722       0.13457152   
   4550000  -116.65761      928.45063      811.79302      302.11052      0.16418224     0.13457152   
   4560000  -80.964564      906.56145      825.59688      294.98795     -2.5633619      0.13457152   
   4570000  -138.24652      922.62019      784.37367      300.21334      1.3632014      0.13457152   
   4580000  -150.20093      902.45809      752.25715      293.65275     -1.3818082      0.13457152   
   4590000  -116.29708      877.01846      760.72139      285.3749       4.5895688      0.13457152   
   4600000  -113.38502      938.95408      825.56907      305.52826     -3.5038443      0.13457152   
   4610000  -117.38411      958.46472      841.08061      311.87687     -0.95793692     0.13457152   
   4620000  -163.07794      914.35098      751.27304      297.5226       3.0868262      0.13457152   
   4630000  -170.06536      941.33676      771.27139      306.30356      2.735039       0.13457152   
   4640000  -115.85201      952.85634      837.00432      310.05194     -3.5627341      0.13457152   
   4650000  -141.66042      919.83917      778.17875      299.30842      3.7648711      0.13457152   
   4660000  -149.35542      906.41818      757.06276      294.94133      3.7764881      0.13457152   
   4670000  -114.36934      970.70665      856.33731      315.8603       7.1157994      0.13457152   
   4680000  -100.44864      899.39212      798.94347      292.65511      8.4204668      0.13457152   
   4690000  -134.71668      887.53817      752.82149      288.79793      0.051035283    0.13457152   
   4700000  -135.98449      949.64358      813.6591       309.00654      0.0056838879   0.13457152   
   4710000  -119.47115      933.03175      813.5606       303.60118     -7.8061516      0.13457152   
   4720000  -126.67291      938.7844       812.11149      305.47305      0.71772296     0.13457152   
   4730000  -135.28726      917.49977      782.21251      298.5472       9.3801899      0.13457152   
   4740000  -98.631676      951.73912      853.10744      309.68841     -4.4030551      0.13457152   
   4750000  -68.988261      893.10376      824.1155       290.60893     -0.048792981    0.13457152   
   4760000  -61.319126      908.68581      847.36668      295.6792       0.84071569     0.13457152   
   4770000  -87.054822      933.12746      846.07264      303.63232      0.044896716    0.13457152   
   4780000  -132.77924      919.84899      787.06975      299.31161      3.4955341      0.13457152   
   4790000  -118.09975      920.06209      801.96234      299.38095     -0.11505129     0.13457152   
   4800000  -84.495641      928.83373      844.33809      302.23518     -3.3224866      0.13457152   
   4810000  -95.181995      894.28366      799.10166      290.99286     -1.2088536      0.13457152   
   4820000  -94.443796      924.58977      830.14597      300.85423     -0.95324055     0.13457152   
   4830000  -97.570824      873.31624      775.74542      284.17022      3.6405857      0.13457152   
   4840000  -98.661166      931.8322       833.17104      303.21086      1.3679763      0.13457152   
   4850000  -164.63007      902.05622      737.42615      293.52199      3.4251456      0.13457152   
   4860000  -166.99091      920.64115      753.65024      299.56938     -0.1031719      0.13457152   
   4870000  -151.93142      928.409        776.47758      302.09697     -0.25234762     0.13457152   
   4880000  -80.458059      952.99614      872.53809      310.09744      4.1287382      0.13457152   
   4890000  -141.38722      927.46667      786.07944      301.79035     -1.3244688      0.13457152   
   4900000  -144.27347      902.4082       758.13472      293.63652     -4.1699869      0.13457152   
   4910000  -122.74349      983.70925      860.96577      320.09124      4.591882       0.13457152   
   4920000  -162.06858      935.05649      772.9879       304.26001      7.0158139      0.13457152   
   4930000  -103.67674      930.33996      826.66322      302.72529      4.8352546      0.13457152   
   4940000  -89.302754      924.2362       834.93344      300.73918      0.1663879      0.13457152   
   4950000  -119.5674       888.15092      768.58351      288.99731      0.9136418      0.13457152   
   4960000  -86.761747      937.48366      850.72191      305.0498       4.3044045      0.13457152   
   4970000  -72.211931      902.0199       829.80797      293.51017     -3.0794262      0.13457152   
   4980000  -85.833921      930.27777      844.44385      302.70506      1.0368052      0.13457152   
   4990000  -95.064433      929.68754      834.62311      302.513       -10.711326      0.13457152   
   5000000  -77.717809      939.12272      861.40491      305.58313     -6.4959626      0.13457152   
Loop time of 2076.77 on 4 procs for 5000000 steps with 1032 atoms

Performance: 2080.157 ns/day, 0.012 hours/ns, 2407.589 timesteps/s, 2.485 Matom-step/s
99.6% CPU use with 4 MPI tasks x 1 OpenMP threads

MPI task timing breakdown:
Section |  min time  |  avg time  |  max time  |%varavg| %total
---------------------------------------------------------------
Pair    | 1137.9     | 1415.7     | 1661.3     | 506.2 | 68.17
Bond    | 67.198     | 76.803     | 84.352     |  86.7 |  3.70
Neigh   | 4.7988     | 4.8048     | 4.8074     |   0.2 |  0.23
Comm    | 285.07     | 540.96     | 831.85     | 858.8 | 26.05
Output  | 0.14312    | 0.23424    | 0.38475    |  18.9 |  0.01
Modify  | 29.868     | 33.776     | 37.004     |  45.3 |  1.63
Other   |            | 4.437      |            |       |  0.21

Nlocal:            258 ave         317 max         202 min
Histogram: 1 0 0 0 2 0 0 0 0 1
Nghost:         921.25 ave         963 max         881 min
Histogram: 1 0 0 1 0 0 1 0 0 1
Neighs:         2594.5 ave        3467 max        1638 min
Histogram: 1 0 0 0 1 0 1 0 0 1

Total # of neighbors = 10378
Ave neighs/atom = 10.056202
Ave special neighs/atom = 4.8255814
Neighbor list builds = 10251
Dangerous builds = 0

# ===============================
# 4. PRODUCTION
# ===============================
# Reset averages for production
unfix favg
fix favg all ave/time 10000 10 100000 v_vpe v_vke v_vT v_vE v_vRg     file outputs/thermo_${tag}_production.dat
fix favg all ave/time 10000 10 100000 v_vpe v_vke v_vT v_vE v_vRg     file outputs/thermo_100ASO_unmodified_loop_GG_to_AA_production.dat

restart 10000000 outputs/backup_${tag}.*.restart
restart 10000000 outputs/backup_100ASO_unmodified_loop_GG_to_AA.*.restart
run 100000000
Generated 0 of 6 mixed pair_coeff terms from geometric mixing rule
Per MPI rank memory allocation (min/avg/max) = 8.61 | 8.613 | 8.614 Mbytes
   Step         PotEng         KinEng         TotEng          Temp          Press         Density    
   5000000  -77.717809      939.12272      861.40491      305.58313     -6.4959626      0.13457152   
   5010000  -150.94956      917.78429      766.83473      298.63978      4.2031435      0.13457152   
   5020000  -136.06874      923.23257      787.16383      300.4126      -5.066567       0.13457152   
   5030000  -77.709143      942.88783      865.17869      306.80827     -6.5871295      0.13457152   
   5040000  -130.77209      888.62112      757.84903      289.15031     -2.2816195      0.13457152   
   5050000  -120.98801      921.602        800.61399      299.88203      1.705615       0.13457152   
   5060000  -131.57665      888.32621      756.74955      289.05435      5.9618306      0.13457152   
   5070000  -134.06322      914.62047      780.55725      297.6103       3.6494434      0.13457152   
   5080000  -83.137564      918.20424      835.06667      298.77642     -6.7567152      0.13457152   
   5090000  -102.5832       918.41456      815.83137      298.84486      8.9525359      0.13457152   
   5100000  -111.32753      943.59906      832.27153      307.0397       7.4187227      0.13457152   
   5110000  -138.04957      906.14525      768.09567      294.85252     -5.6758368      0.13457152   
   5120000  -94.598841      910.47736      815.87852      296.26216     -10.356636      0.13457152   
   5130000  -99.073002      915.42481      816.35181      297.87202      3.8123666      0.13457152   
   5140000  -150.10597      938.60148      788.49552      305.41353      7.8027066      0.13457152   
   5150000  -91.632812      934.6068       842.97399      304.11369      0.77533033     0.13457152   
   5160000  -143.5279       923.33155      779.80365      300.44481      1.9453618      0.13457152   
   5170000  -182.82321      916.75485      733.93164      298.3048      -0.67756744     0.13457152   
   5180000  -183.32596      952.00516      768.6792       309.77498     -0.69506396     0.13457152   
   5190000  -154.13278      899.04479      744.91202      292.54209     -7.4817042      0.13457152   
   5200000  -114.46333      894.82248      780.35915      291.16818      5.2008053      0.13457152   
   5210000  -158.03849      936.66229      778.6238       304.78253      0.71002949     0.13457152   
   5220000  -119.43184      929.49048      810.05864      302.44888      0.04693053     0.13457152   
   5230000  -129.00122      928.72001      799.71879      302.19817      1.7920178      0.13457152   
   5240000  -139.87965      955.25336      815.37371      310.83192     -1.500329       0.13457152   
   5250000  -113.68456      873.77591      760.09136      284.3198      -1.0339624      0.13457152   
   5260000  -108.99344      882.78742      773.79398      287.25207     -3.5301273      0.13457152   
   5270000  -96.351936      950.45718      854.10524      309.27128      4.0494621      0.13457152   
   5280000  -49.321156      952.95846      903.63731      310.08518      7.2873928      0.13457152   
   5290000  -63.718162      903.04628      839.32812      293.84415     -0.77241246     0.13457152   
   5300000  -135.03598      915.78476      780.74878      297.98915      0.22451277     0.13457152   
   5310000  -65.300552      924.21304      858.91249      300.73164      0.83494642     0.13457152   
   5320000  -59.572302      927.55774      867.98544      301.81998      3.2973249      0.13457152   
   5330000  -50.588629      883.40428      832.81565      287.45279     -3.9376609      0.13457152   
   5340000  -22.25212       928.37546      906.12334      302.08606     -2.3892566      0.13457152   
   5350000  -66.503871      929.05707      862.55319      302.30785      11.263113      0.13457152   
   5360000  -36.189718      945.46334      909.27363      307.64632      6.5197722      0.13457152   
   5370000  -72.167285      928.2027       856.03542      302.02985     -1.7378642      0.13457152   
   5380000  -53.887494      918.82409      864.9366       298.97812      8.0163776      0.13457152   
   5390000  -89.76637       893.84586      804.07949      290.8504       3.6480832      0.13457152   
   5400000  -24.137261      926.8436       902.70634      301.58761      6.6752353      0.13457152   
   5410000  -41.887152      889.20196      847.3148       289.33931     -0.63572026     0.13457152   
   5420000  -109.44791      946.83144      837.38353      308.09149     -1.4573962      0.13457152   
   5430000  -103.4763       913.24982      809.77351      297.1643      -0.10537681     0.13457152   
   5440000  -46.482267      891.55297      845.0707       290.10431      3.668851       0.13457152   
   5450000  -79.682096      976.17499      896.4929       317.63965      0.72334403     0.13457152   
   5460000  -81.351602      913.09011      831.73851      297.11233     -2.1125199      0.13457152   
   5470000  -42.01374       918.51678      876.50304      298.87812      4.0359934      0.13457152   
   5480000  -112.69935      893.15002      780.45068      290.62398     -3.4400849      0.13457152   
   5490000  -87.809562      924.55209      836.74253      300.84197     -3.1122811      0.13457152   
   5500000  -121.38785      913.54938      792.16152      297.26177      1.3443838      0.13457152   
   5510000  -88.070406      899.80617      811.73576      292.78984     -5.1364777      0.13457152   
   5520000  -61.716652      948.76346      887.04681      308.72015     -0.13926114     0.13457152   
   5530000  -129.62505      949.26306      819.638        308.88272     -0.30302381     0.13457152   
   5540000  -118.71964      918.68194      799.9623       298.93187      0.46187558     0.13457152   
   5550000  -136.18598      923.49192      787.30594      300.49699     -4.2732551      0.13457152   
   5560000  -91.063688      951.27696      860.21327      309.53803     -9.57213        0.13457152   
   5570000  -77.677346      945.5874       867.91005      307.68669     -7.1999883      0.13457152   
   5580000  -116.8507       931.09692      814.24622      302.9716      -2.9088482      0.13457152   
   5590000  -82.426858      898.67373      816.24688      292.42135     -2.7689092      0.13457152   
   5600000  -93.091952      908.85407      815.76211      295.73395      7.4616339      0.13457152   
   5610000  -54.987018      963.94056      908.95355      313.65866      0.055961905    0.13457152   
   5620000  -83.197121      963.98513      880.78801      313.67316      2.0900455      0.13457152   
   5630000   2.7568075      919.85295      922.60976      299.3129      -9.0405943      0.13457152   
   5640000  -75.504726      917.10958      841.60485      298.42023      2.3469701      0.13457152   
   5650000  -103.8845       931.26719      827.38269      303.02701     -0.82260749     0.13457152   
   5660000  -57.235542      936.77209      879.53655      304.81826     -1.0563544      0.13457152   
   5670000  -82.974328      921.82919      838.85486      299.95595     -0.016699107    0.13457152   
   5680000  -98.426065      906.6093       808.18324      295.00352     -1.1916495      0.13457152   
   5690000  -43.783103      929.48522      885.70212      302.44717      2.3056562      0.13457152   
   5700000  -42.704498      935.86927      893.16478      304.52449      1.3030638      0.13457152   
   5710000  -72.521361      919.30362      846.78226      299.13415      4.0428998      0.13457152   
   5720000  -107.99362      947.57341      839.57979      308.33292     -0.5043239      0.13457152   
   5730000  -60.088492      898.74803      838.65953      292.44553     -0.19034288     0.13457152   
   5740000  -94.160364      918.64503      824.48467      298.91986      4.3414763      0.13457152   
   5750000  -67.47399       935.05238      867.57839      304.25868      5.1687857      0.13457152   
   5760000  -93.706622      947.26174      853.55512      308.23151      8.8804638      0.13457152   
   5770000  -104.74584      950.85009      846.10424      309.39913     -3.5139708      0.13457152   
   5780000  -119.99146      912.26474      792.27328      296.84376      1.7363692      0.13457152   
   5790000  -94.810973      975.83642      881.02544      317.52948      4.6546873      0.13457152   
   5800000  -92.033759      901.01691      808.98315      293.1838       2.0655339      0.13457152   
   5810000  -114.6718       920.12839      805.4566       299.40253      2.7162054      0.13457152   
   5820000  -103.06373      962.3436       859.27986      313.13902      0.96315172     0.13457152   
   5830000  -100.51245      886.34622      785.83377      288.41008      0.87068522     0.13457152   
   5840000  -80.953896      911.20309      830.24919      296.4983       0.024372607    0.13457152   
   5850000  -84.273278      944.81091      860.53763      307.43402     -0.95689906     0.13457152   
   5860000  -89.486464      913.68379      824.19733      297.30551     -2.7237911      0.13457152   
   5870000  -106.26374      926.86156      820.59782      301.59345      10.969589      0.13457152   
   5880000  -94.6291        923.90654      829.27744      300.63191     -2.298959       0.13457152   
   5890000  -22.323363      977.68415      955.36079      318.13072     -1.83102        0.13457152   
   5900000  -69.233216      878.98682      809.75361      286.01539      3.8655082      0.13457152   
   5910000  -91.433109      913.84875      822.41564      297.35918     -4.8448041      0.13457152   
   5920000  -76.025922      948.82053      872.79461      308.73873      5.3399242      0.13457152   
   5930000  -97.765497      896.35076      798.58526      291.66547     -1.3292332      0.13457152   
   5940000  -69.413838      932.41801      863.00417      303.40147      3.380627       0.13457152   
   5950000  -102.97505      943.11429      840.13924      306.88196      2.5752686      0.13457152   
   5960000  -67.700414      921.98171      854.2813       300.00559     -3.3110519      0.13457152   
   5970000  -85.75574       896.9865       811.23076      291.87234      1.0371567      0.13457152   
   5980000  -26.41686       953.68929      927.27243      310.32298      1.8700146      0.13457152   
   5990000  -96.797157      936.43079      839.63364      304.7072      -0.61419053     0.13457152   
   6000000  -62.851864      954.08849      891.23662      310.45288     -2.5478836      0.13457152   
   6010000  -139.83128      908.64406      768.81278      295.66562      1.484763       0.13457152   
   6020000  -90.860944      934.9319       844.07095      304.21947      3.045095       0.13457152   
   6030000  -136.66419      928.77291      792.10872      302.21539      2.7042798      0.13457152   
   6040000  -92.579021      928.88542      836.3064       302.252       -6.7114779      0.13457152   
   6050000  -101.32491      906.06592      804.74101      294.82671     -1.6322824      0.13457152   
   6060000  -123.04319      958.5358       835.49261      311.9         -0.71756145     0.13457152   
   6070000  -98.690614      923.21392      824.5233       300.40653      8.754461       0.13457152   
   6080000  -32.307687      895.15556      862.84788      291.27657      6.2728229      0.13457152   
   6090000  -64.621133      910.25282      845.63169      296.1891      -5.8028719      0.13457152   
   6100000  -100.9758       928.35997      827.38416      302.08102     -2.694924       0.13457152   
   6110000  -105.91991      896.63092      790.71101      291.75664     -0.22370384     0.13457152   
   6120000  -118.44236      938.76081      820.31844      305.46537     -1.77532        0.13457152   
   6130000  -74.784856      905.62571      830.84085      294.68347      0.33661992     0.13457152   
   6140000  -127.22879      863.15595      735.92716      280.86415     -2.0371383      0.13457152   
   6150000  -95.150544      901.84008      806.68954      293.45166      5.6778293      0.13457152   
   6160000  -77.094313      972.5765       895.48218      316.46873      0.96051955     0.13457152   
   6170000  -105.98761      927.17244      821.18483      301.69461     -0.89770391     0.13457152   
   6180000  -53.145254      917.22587      864.08062      298.45807     -1.8621091      0.13457152   
   6190000  -128.88186      922.85845      793.97659      300.29087      10.6586        0.13457152   
   6200000  -114.65687      896.33019      781.67332      291.65878     -0.27906952     0.13457152   
   6210000  -128.93099      913.54489      784.6139       297.26031      1.0997064      0.13457152   
   6220000  -82.80239       901.04769      818.2453       293.19382      0.25374186     0.13457152   
   6230000  -88.77438       955.68281      866.90843      310.97166     -4.3901975      0.13457152   
   6240000  -93.229628      891.6877       798.45807      290.14815      1.6717047      0.13457152   
   6250000  -117.94049      902.36896      784.42847      293.62375      1.3791085      0.13457152   
   6260000  -100.81318      909.40709      808.59391      295.9139      -1.4769741      0.13457152   
   6270000  -65.378502      887.90602      822.52752      288.91762      3.1729079      0.13457152   
   6280000  -49.08059       914.3646       865.28401      297.52704      3.0917307      0.13457152   
   6290000  -68.023975      902.2974       834.27342      293.60046      1.2824661      0.13457152   
   6300000  -53.075854      915.52636      862.45051      297.90506      0.20194356     0.13457152   
   6310000  -116.49446      939.61346      823.119        305.74282      9.1851396      0.13457152   
   6320000  -79.665763      912.83543      833.16967      297.02946     -0.82551095     0.13457152   
   6330000  -59.795175      915.80199      856.00682      297.99475      3.767634       0.13457152   
   6340000  -44.802397      913.39299      868.5906       297.21088      3.7779101      0.13457152   
   6350000  -81.811433      937.59407      855.78264      305.08572      1.4596917      0.13457152   
   6360000  -76.506524      940.11409      863.60757      305.90572     -2.2302341      0.13457152   
   6370000  -66.76807       974.56411      907.79604      317.11548      2.8863045      0.13457152   
   6380000  -71.1368        911.0634       839.9266       296.45285      2.807725       0.13457152   
   6390000  -116.03091      883.40097      767.37006      287.45172     -2.336984       0.13457152   
   6400000  -109.05807      910.18294      801.12487      296.16636      2.204129       0.13457152   
   6410000  -92.230231      935.07474      842.84451      304.26595      4.5167253      0.13457152   
   6420000  -114.72565      937.79007      823.06443      305.1495      -6.6865428      0.13457152   
   6430000  -115.80203      905.82544      790.02341      294.74846     -3.229323       0.13457152   
   6440000  -60.799702      883.33128      822.53157      287.42904      0.01276608     0.13457152   
   6450000  -97.934502      890.50284      792.56834      289.76261      4.0313353      0.13457152   
   6460000  -133.87536      911.71664      777.84128      296.66541      0.91396553     0.13457152   
   6470000  -163.95278      892.77546      728.82268      290.5021       2.3467265      0.13457152   
   6480000  -147.024        887.3909       740.3669       288.75001      4.3612077      0.13457152   
   6490000  -106.45788      881.93704      775.47916      286.97536      5.0838123      0.13457152   
   6500000  -139.85365      895.02946      755.17581      291.23553     -1.3883385      0.13457152   
   6510000  -72.868809      961.41279      888.54399      312.83615     -3.8825869      0.13457152   
   6520000  -125.56946      917.6845       792.11505      298.60731     -0.037174092    0.13457152   
   6530000  -91.846194      897.6981       805.85191      292.10389     -0.15749404     0.13457152   
   6540000  -123.39002      910.25065      786.86063      296.18839      2.432313       0.13457152   
   6550000  -151.06552      912.71509      761.64957      296.9903       5.1235404      0.13457152   
   6560000  -105.59395      935.49199      829.89804      304.40172      8.506906       0.13457152   
   6570000  -134.02747      914.67365      780.64618      297.6276      -2.6626517      0.13457152   
   6580000  -62.183548      922.32111      860.13756      300.11602      2.1149718      0.13457152   
   6590000  -79.028713      919.0545       840.02579      299.05309     -4.1417024      0.13457152   
   6600000  -94.322694      925.11942      830.79673      301.02657     -0.058402841    0.13457152   
   6610000  -140.33474      931.68151      791.34677      303.16182      4.1553714      0.13457152   
   6620000  -136.62027      911.06104      774.44077      296.45209     -1.4734413      0.13457152   
   6630000  -56.273909      906.9104       850.63649      295.1015       9.6071258      0.13457152   
   6640000  -79.380501      884.47932      805.09881      287.8026       4.0947707      0.13457152   
   6650000  -41.154117      940.97287      899.81876      306.18516     -1.3416253      0.13457152   
   6660000  -104.3398       905.39976      801.05996      294.60995      2.3732943      0.13457152   
   6670000  -91.278456      910.90541      819.62696      296.40144     -0.80108371     0.13457152   
   6680000  -46.20354       897.29422      851.09068      291.97247     -2.8300369      0.13457152   
   6690000  -84.531181      902.41131      817.88013      293.63753      3.5789685      0.13457152   
   6700000  -48.440972      914.38311      865.94214      297.53306      10.9691        0.13457152   
   6710000  -61.083851      982.06697      920.98312      319.55685      11.068402      0.13457152   
   6720000  -55.896461      924.93445      869.03799      300.96638      0.49831935     0.13457152   
   6730000  -73.982815      896.98126      822.99844      291.87063     -4.637494       0.13457152   
   6740000  -90.029908      950.98374      860.95383      309.44262      6.0523201      0.13457152   
   6750000  -95.443591      904.79703      809.35344      294.41383      1.4240388      0.13457152   
   6760000  -72.388185      882.62365      810.23547      287.19878      5.2184719      0.13457152   
   6770000  -22.062377      926.99765      904.93527      301.63773     -6.3576872      0.13457152   
   6780000  -55.309335      983.30379      927.99445      319.95931     -2.6809992      0.13457152   
   6790000  -85.160253      889.26994      804.10968      289.36143      4.6455305      0.13457152   
   6800000  -93.7359        960.97095      867.23505      312.69238      5.6090027      0.13457152   
   6810000  -41.030441      917.61748      876.58704      298.5855       4.5261144      0.13457152   
   6820000  -43.80397       946.0033       902.19933      307.82202      2.0002516      0.13457152   
   6830000  -81.318245      955.9047       874.58646      311.04386      2.0158865      0.13457152   
   6840000  -55.968016      926.07383      870.10581      301.33713     -2.1927532      0.13457152   
   6850000  -107.30077      875.12159      767.82083      284.75767      4.9105995      0.13457152   
   6860000  -90.127394      919.47308      829.34568      299.18929      3.7813957      0.13457152   
   6870000  -41.242574      901.50725      860.26468      293.34336      2.2304134      0.13457152   
   6880000  -9.122966       899.52729      890.40433      292.69909      7.3837619      0.13457152   
   6890000  -79.406104      934.82939      855.42329      304.18612     -2.4769357      0.13457152   
   6900000  -22.273611      902.33854      880.06493      293.61385      4.8114456      0.13457152   
   6910000  -53.344358      953.9687       900.62434      310.4139       2.5905053      0.13457152   
   6920000  -59.302826      930.87996      871.57714      302.90101      4.0911985      0.13457152   
   6930000  -44.460133      912.00745      867.54731      296.76004     -5.7859899      0.13457152   
   6940000  -48.989477      919.11387      870.1244       299.07241     -0.58947778     0.13457152   
   6950000  -14.036977      894.66652      880.62955      291.11744     -10.742218      0.13457152   
   6960000  -36.503734      912.88863      876.3849       297.04677     -12.86502       0.13457152   
   6970000   0.85836323     927.68427      928.54264      301.86115      4.0479846      0.13457152   
   6980000   2.2892083      949.75843      952.04764      309.04391      0.73772851     0.13457152   
   6990000  -13.46262       934.12027      920.65765      303.95538      12.257308      0.13457152   
   7000000  -19.32679       922.11971      902.79292      300.05049      3.854042       0.13457152   
[...]
 103200000  -62.955096      950.03773      887.08264      309.13479      5.0487789      0.13457152   
 103210000   10.505934      937.11666      947.62259      304.93038     -2.7657758      0.13457152   
 103220000  -72.082285      954.42464      882.34236      310.56226      3.0321293      0.13457152   
 103230000  -36.07465       897.57145      861.4968       292.06268      8.8856885      0.13457152   
 103240000  -89.899651      904.03128      814.13163      294.16465      2.6566572      0.13457152   
 103250000  -52.333324      942.32894      889.99562      306.62641      4.1601424      0.13457152   
 103260000  -56.848653      904.63385      847.7852       294.36073      0.56180044     0.13457152   
 103270000  -80.614464      850.82002      770.20556      276.85013     -4.3795654      0.13457152   
 103280000  -38.101797      899.21536      861.11356      292.59759     -1.7286371      0.13457152   
 103290000  -92.692295      885.16002      792.46772      288.0241      -0.39275508     0.13457152   
 103300000  -32.364331      909.41466      877.05033      295.91637     -7.4513887      0.13457152   
 103310000  -35.868224      914.28201      878.41378      297.50016      0.57213836     0.13457152   
 103320000  -60.960835      901.04755      840.08671      293.19377      6.7287766      0.13457152   
 103330000  -6.1787316      937.70231      931.52357      305.12094      2.4811674      0.13457152   
 103340000  -60.425791      914.77638      854.35059      297.66103     -0.17889992     0.13457152   
 103350000  -39.504907      895.81824      856.31334      291.4922       2.4395135      0.13457152   
 103360000  -81.225385      920.49441      839.26902      299.52163      0.68157862     0.13457152   
 103370000  -62.401763      916.08185      853.68009      298.08582      5.6645182      0.13457152   
 103380000   3.5180039      935.23366      938.75167      304.31767     -6.5656842      0.13457152   
 103390000  -24.502248      934.61576      910.11351      304.1166      -4.3029376      0.13457152   
 103400000  -46.263136      907.95023      861.6871       295.43985      6.0797908      0.13457152   
 103410000  -51.320987      918.09056      866.76958      298.73944     -5.4149217      0.13457152   
 103420000  -78.421142      910.82405      832.40291      296.37497      1.8313136      0.13457152   
 103430000  -44.71779       909.08942      864.37163      295.81054     -1.720964       0.13457152   
 103440000  -18.039111      926.85052      908.81141      301.58986     -1.9579751      0.13457152   
 103450000  -82.73919       882.41399      799.6748       287.13056     -6.5903758      0.13457152   
 103460000  -34.341814      949.83916      915.49735      309.07018     -2.1196553      0.13457152   
 103470000  -78.850215      917.53647      838.68626      298.55914      0.83033341     0.13457152   
 103480000  -59.285697      889.72185      830.43616      289.50848     -0.34715724     0.13457152   
 103490000  -75.481879      892.06871      816.58683      290.27213      5.184092       0.13457152   
 103500000  -25.911642      921.35609      895.44445      299.80201      6.0623617      0.13457152   
 103510000  -13.212767      905.67159      892.45882      294.6984      -4.7481613      0.13457152   
 103520000  -54.438247      946.25104      891.81279      307.90263      3.0100752      0.13457152   
 103530000  -24.553492      913.94462      889.39113      297.39038      6.5945328      0.13457152   
 103540000  -25.00521       904.67609      879.67088      294.37447     -0.4032417      0.13457152   
 103550000  -27.910723      896.51909      868.60837      291.72025      8.151979       0.13457152   
 103560000  -50.75062       956.29604      905.54542      311.1712       8.1083287      0.13457152   
 103570000  -88.370195      943.10667      854.73648      306.87948      7.3474879      0.13457152   
 103580000  -83.192208      962.68308      879.49087      313.24949      6.4773856      0.13457152   
 103590000  -33.41517       921.7352       888.32003      299.92537      4.9610698      0.13457152   
 103600000  -18.744451      929.15697      910.41252      302.34036      1.224227       0.13457152   
 103610000  -31.478047      892.22015      860.74211      290.32141     -0.54197836     0.13457152   
 103620000  -14.730713      883.03348      868.30276      287.33214      1.045397       0.13457152   
 103630000  -30.437004      888.78984      858.35284      289.20521      0.69806871     0.13457152   
 103640000  -97.428227      902.43797      805.00975      293.64621      5.8735512      0.13457152   
 103650000  -45.505266      957.21711      911.71184      311.4709       2.9788678      0.13457152   
 103660000  -42.033371      925.04923      883.01585      301.00373     -0.74909347     0.13457152   
 103670000  -92.253531      931.56621      839.31267      303.1243       5.577803       0.13457152   
 103680000  -83.047882      948.39985      865.35197      308.60184      0.77869495     0.13457152   
 103690000  -45.807616      929.88794      884.08032      302.57821      0.21985038     0.13457152   
 103700000  -48.947911      905.87563      856.92772      294.76479     -3.2684281      0.13457152   
 103710000  -45.409636      907.21961      861.80998      295.20211      4.7278543      0.13457152   
 103720000  -39.682875      920.76988      881.08701      299.61127      4.456376       0.13457152   
 103730000  -110.18176      919.7597       809.57794      299.28256      1.2209768      0.13457152   
 103740000  -61.690185      931.71788      870.0277       303.17366      0.35998396     0.13457152   
 103750000  -64.437121      899.21667      834.77955      292.59802      2.5598538      0.13457152   
 103760000  -34.201881      927.48864      893.28676      301.7975       5.3158829      0.13457152   
 103770000  -24.509606      901.30703      876.79743      293.27821      5.3691283      0.13457152   
 103780000  -52.468287      895.13947      842.67118      291.27133      5.5129527      0.13457152   
 103790000  -63.248151      899.66492      836.41677      292.74388     -0.75552284     0.13457152   
 103800000  -24.845083      926.04582      901.20074      301.32801     -6.4787412      0.13457152   
 103810000  -68.733015      956.08038      887.34736      311.10102     -0.99399092     0.13457152   
 103820000  -26.637186      911.74494      885.10775      296.67462      1.9439189      0.13457152   
 103830000  -27.069345      921.98048      894.91113      300.00518      7.1499287      0.13457152   
 103840000  -87.241439      895.82311      808.58167      291.49378      0.0869435      0.13457152   
 103850000  -123.46216      937.45499      813.99283      305.04047     -2.0917557      0.13457152   
 103860000  -134.66337      929.05771      794.39434      302.30806      0.48086004     0.13457152   
 103870000  -99.145739      946.77004      847.6243       308.07151     -3.2582557      0.13457152   
 103880000  -117.07796      952.99549      835.91753      310.09722     -7.0528726      0.13457152   
 103890000  -132.88031      938.00417      805.12386      305.21917     -3.5152431      0.13457152   
 103900000  -97.482077      929.65856      832.17648      302.50357      2.7462222      0.13457152   
 103910000  -102.39442      977.83647      875.44205      318.18028      4.8480038      0.13457152   
 103920000  -88.235196      935.82474      847.58954      304.51        -1.1106541      0.13457152   
 103930000  -110.8919       912.16227      801.27037      296.81042     -1.7867381      0.13457152   
 103940000  -82.355269      940.75401      858.39874      306.11394     -3.6525637      0.13457152   
 103950000  -96.071905      916.37903      820.30712      298.18252     -2.6565702      0.13457152   
 103960000  -90.194514      881.5096       791.31508      286.83628      0.19994494     0.13457152   
 103970000  -58.637002      904.1728       845.5358       294.21071      6.7900123      0.13457152   
 103980000  -51.002013      919.53401      868.53199      299.20912      1.9119148      0.13457152   
 103990000  -47.844165      904.04537      856.20121      294.16924     -6.7749508      0.13457152   
 104000000  -76.732582      923.88738      847.1548       300.62567     -0.96228469     0.13457152   
 104010000  -96.552981      924.60864      828.05566      300.86037     -7.8561897      0.13457152   
 104020000  -94.24047       913.28984      819.04937      297.17732     -0.77527918     0.13457152   
 104030000  -93.09083       934.69119      841.60036      304.14115      4.140584       0.13457152   
 104040000  -120.4917       916.81207      796.32038      298.32342     -10.11968       0.13457152   
 104050000  -50.261053      841.07709      790.81603      273.67986      0.49540413     0.13457152   
 104060000  -46.215757      890.89302      844.67726      289.88957     -5.6796977      0.13457152   
 104070000  -120.48555      920.35809      799.87254      299.47727      7.9243949      0.13457152   
 104080000  -97.666238      894.57778      796.91154      291.08856      7.0996608      0.13457152   
 104090000  -127.50287      953.53819      826.03532      310.27381      0.74859625     0.13457152   
 104100000  -109.26745      913.25008      803.98263      297.16438     -2.0978019      0.13457152   
 104110000  -81.678104      927.82         846.14189      301.90532      0.80427603     0.13457152   
 104120000  -103.4333       922.86603      819.43272      300.29333      5.745404       0.13457152   
 104130000  -12.34585       921.96294      909.61709      299.99948      2.5127463      0.13457152   
 104140000  -110.19956      901.13635      790.93679      293.22267     -1.7867071      0.13457152   
 104150000  -31.141762      906.94773      875.80597      295.11365      3.7900221      0.13457152   
 104160000  -47.033305      934.11853      887.08523      303.95481     -3.6493876      0.13457152   
 104170000  -83.73176       907.32373      823.59197      295.23599      3.2226278      0.13457152   
 104180000  -72.415795      956.7907       884.37491      311.33216      0.096694691    0.13457152   
 104190000  -83.26952       947.17287      863.90335      308.20259     -6.468271       0.13457152   
 104200000  -123.61505      929.24327      805.62822      302.36844      0.95388718     0.13457152   
 104210000  -137.83919      927.07982      789.24063      301.66447     -1.5657497      0.13457152   
 104220000  -102.3901       914.49458      812.10448      297.56933      2.0941973      0.13457152   
 104230000  -84.854185      963.04356      878.18937      313.36679     -2.9515947      0.13457152   
 104240000  -82.576843      931.62919      849.05235      303.1448       7.9673968      0.13457152   
 104250000  -106.65166      876.70557      770.05391      285.27309     -2.4884924      0.13457152   
 104260000  -106.92127      955.31833      848.39706      310.85306      6.2265282      0.13457152   
 104270000  -91.19368       931.91843      840.72475      303.23892      8.1344705      0.13457152   
 104280000  -64.781226      916.94501      852.16379      298.36668     -0.23768817     0.13457152   
 104290000  -11.987038      966.28374      954.2967       314.42112     -4.6244321      0.13457152   
 104300000  -11.179247      926.07304      914.89379      301.33687      0.64661658     0.13457152   
 104310000  -74.26926       898.32194      824.05268      292.30688      3.0657794      0.13457152   
 104320000  -62.804974      963.65349      900.84852      313.56525     -7.8989638      0.13457152   
 104330000  -62.828856      941.06608      878.23722      306.21549      5.1101588      0.13457152   
 104340000  -106.86943      934.39559      827.52616      304.04496      4.1534143      0.13457152   
 104350000  -101.6503       916.01061      814.36031      298.06263      0.63084479     0.13457152   
 104360000  -68.087547      901.26574      833.17819      293.26477     -0.007960233    0.13457152   
 104370000  -131.32404      923.39824      792.0742       300.46651      0.3884376      0.13457152   
 104380000  -102.75128      927.50961      824.75833      301.80432     -3.8016854      0.13457152   
 104390000  -114.98531      902.61944      787.63413      293.70525      0.18407        0.13457152   
 104400000  -105.70486      917.06887      811.36401      298.40699     -0.63206206     0.13457152   
 104410000  -76.88378       925.08334      848.19956      301.01483      5.3422815      0.13457152   
 104420000  -115.76416      913.07377      797.3096       297.10701      6.1270578      0.13457152   
 104430000  -80.595023      937.17252      856.57749      304.94855     -2.819343       0.13457152   
 104440000  -82.926033      939.47074      856.54471      305.69638      2.8674812      0.13457152   
 104450000  -117.97473      919.66316      801.68842      299.25115      0.097898254    0.13457152   
 104460000  -91.300596      917.15483      825.85424      298.43496     -4.5823801      0.13457152   
 104470000  -124.90371      932.67645      807.77273      303.48557     -2.1706191      0.13457152   
 104480000  -88.6043        919.95682      831.35252      299.3467      -8.7838721      0.13457152   
 104490000  -127.96808      946.89752      818.92944      308.11299      0.061036663    0.13457152   
 104500000  -142.59484      907.76876      765.17392      295.3808       0.65514315     0.13457152   
 104510000  -119.01428      939.82643      820.81214      305.81212     -3.1127883      0.13457152   
 104520000  -188.189        892.60725      704.41825      290.44737     -3.3317907      0.13457152   
 104530000  -158.09977      901.63484      743.53507      293.38487     -0.71109259     0.13457152   
 104540000  -138.54299      940.78473      802.24174      306.12394      1.1021881      0.13457152   
 104550000  -54.424657      902.82785      848.40319      293.77307     -1.9590323      0.13457152   
 104560000  -87.812904      920.80294      832.99003      299.62202      3.6527309      0.13457152   
 104570000  -81.990831      894.23629      812.24546      290.97744      4.2179408      0.13457152   
 104580000  -118.74193      898.53592      779.79399      292.37651     -4.794582       0.13457152   
 104590000  -55.48452       932.29042      876.80591      303.35996     -3.648889       0.13457152   
 104600000  -124.32018      905.48146      781.16127      294.63653      3.1682674      0.13457152   
 104610000  -73.175992      940.41         867.234        306.002        6.7023343      0.13457152   
 104620000  -115.11761      895.82648      780.70887      291.49488      1.3929904      0.13457152   
 104630000  -135.39833      916.2159       780.81757      298.12943     -0.50383013     0.13457152   
 104640000  -132.46117      912.2948       779.83362      296.85354     -1.9496818      0.13457152   
 104650000  -90.993313      936.04885      845.05554      304.58292      7.1323307      0.13457152   
 104660000  -63.223722      947.94692      884.7232       308.45446      12.335369      0.13457152   
 104670000  -90.493867      918.46489      827.97103      298.86124      6.0589367      0.13457152   
 104680000  -56.246607      911.9653       855.7187       296.74632      1.1590509      0.13457152   
 104690000  -21.184757      903.03444      881.84968      293.84029     -1.4411969      0.13457152   
 104700000  -41.022333      935.62802      894.60569      304.44599     -9.251949       0.13457152   
 104710000  -109.00802      902.4427       793.43468      293.64774      3.1839403      0.13457152   
 104720000  -117.27199      934.77414      817.50216      304.16814     -2.6356251      0.13457152   
 104730000  -115.129        927.78732      812.65833      301.89468      7.7452574      0.13457152   
 104740000  -107.08896      898.20264      791.11368      292.26806     -1.2254693      0.13457152   
 104750000  -105.08512      925.0272       819.94208      300.99656     -7.0016891      0.13457152   
 104760000  -86.512433      934.07368      847.56125      303.94022      4.7876859      0.13457152   
 104770000  -114.45735      885.42254      770.96519      288.10952      2.9684877      0.13457152   
 104780000  -87.835991      941.19127      853.35528      306.25622      0.086036678    0.13457152   
 104790000  -119.77887      921.12417      801.3453       299.72655      0.77155013     0.13457152   
 104800000  -68.706194      931.31504      862.60884      303.04258     -0.77432775     0.13457152   
 104810000  -88.272461      968.64792      880.37546      315.1904      -0.68425461     0.13457152   
 104820000  -94.703572      912.87041      818.16684      297.04084     -1.954786       0.13457152   
 104830000  -89.685701      958.77187      869.08617      311.97681      3.0987565      0.13457152   
 104840000  -74.079138      930.00271      855.92357      302.61555     -2.1074764      0.13457152   
 104850000  -142.34328      910.49792      768.15464      296.26885      5.9076222      0.13457152   
 104860000  -80.710125      969.40795      888.69782      315.43771     -1.3685973      0.13457152   
 104870000  -109.76933      920.38562      810.6163       299.48623     -0.4552912      0.13457152   
 104880000  -122.58372      896.99574      774.41202      291.87535      1.903284       0.13457152   
 104890000  -194.84552      929.27332      734.4278       302.37822     -5.1434963      0.13457152   
 104900000  -133.07505      879.01333      745.93828      286.02401      1.3721521      0.13457152   
 104910000  -118.65129      908.49346      789.84217      295.61661     -4.1288694      0.13457152   
 104920000  -96.405456      952.05705      855.65159      309.79186      5.1820955      0.13457152   
 104930000  -98.005596      922.99172      824.98612      300.33423     -4.7123393      0.13457152   
 104940000  -83.989075      913.99594      830.00687      297.40708     -1.2704128      0.13457152   
 104950000  -102.71993      925.69323      822.9733       301.21328     -0.5231633      0.13457152   
 104960000  -146.274        932.25203      785.97803      303.34747     -1.3819251      0.13457152   
 104970000  -99.154161      926.0742       826.92004      301.33725     -2.2099495      0.13457152   
 104980000  -55.341466      963.16894      907.82747      313.40758      4.56847        0.13457152   
 104990000  -45.386965      903.81322      858.42626      294.0937       2.9493215      0.13457152   
 105000000  -116.06328      950.48288      834.41961      309.27964      5.3387909      0.13457152   
Loop time of 39909.5 on 4 procs for 100000000 steps with 1032 atoms

Performance: 2164.899 ns/day, 0.011 hours/ns, 2505.670 timesteps/s, 2.586 Matom-step/s
99.6% CPU use with 4 MPI tasks x 1 OpenMP threads

MPI task timing breakdown:
Section |  min time  |  avg time  |  max time  |%varavg| %total
---------------------------------------------------------------
Pair    | 26669      | 27720      | 29080      | 610.2 | 69.46
Bond    | 1847.4     | 1897.8     | 1967.1     |  99.9 |  4.76
Neigh   | 89.7       | 89.787     | 89.841     |   0.6 |  0.22
Comm    | 8012.5     | 9467.7     | 10582      |1096.0 | 23.72
Output  | 2.5432     | 3.6798     | 5.8385     |  66.7 |  0.01
Modify  | 628.53     | 644.16     | 677.19     |  76.0 |  1.61
Other   |            | 86.07      |            |       |  0.22

Nlocal:            258 ave         301 max         208 min
Histogram: 1 0 0 0 0 1 1 0 0 1
Nghost:          942.5 ave         962 max         916 min
Histogram: 1 0 0 1 0 0 0 0 0 2
Neighs:        2494.75 ave        2915 max        2164 min
Histogram: 1 0 0 1 1 0 0 0 0 1

Total # of neighbors = 9979
Ave neighs/atom = 9.6695736
Ave special neighs/atom = 4.8255814
Neighbor list builds = 204956
Dangerous builds = 0

write_data outputs/${tag}_final.data
write_data outputs/100ASO_unmodified_loop_GG_to_AA_final.data
System init for write_data ...
Generated 0 of 6 mixed pair_coeff terms from geometric mixing rule
Total wall time: 11:39:47
