
# ===============================
# FORCE FIELD (same as original)
# ===============================
bond_style harmonic
bond_coeff 1 7.5 5.9

angle_style harmonic
angle_coeff 1 5.0 150.0

pair_style hybrid/overlay lj/cut 10.0 base/rna 18.0
pair_modify shift yes
pair_coeff * * lj/cut 2.0 8.9089871814

pair_coeff 1 1 base/rna 0.00000 3.0 13.8 1.5 0.5 1.8326 0.9425 1.8326 1.1345
pair_coeff 1 2 base/rna 0.00000 3.0 13.8 1.5 0.5 1.8326 0.9425 1.8326 1.1345
pair_coeff 1 3 base/rna 0.00000 3.0 13.8 1.5 0.5 1.8326 0.9425 1.8326 1.1345
pair_coeff 1 4 base/rna 3.33333 3.0 13.8 1.5 0.5 1.8326 0.9425 1.8326 1.1345
pair_coeff 2 2 base/rna 0.00000 3.0 13.8 1.5 0.5 1.8326 0.9425 1.8326 1.1345
pair_coeff 2 3 base/rna 5.00000 3.0 13.8 1.5 0.5 1.8326 0.9425 1.8326 1.1345
pair_coeff 2 4 base/rna 0.00000 3.0 13.8 1.5 0.5 1.8326 0.9425 1.8326 1.1345
pair_coeff 3 3 base/rna 0.00000 3.0 13.8 1.5 0.5 1.8326 0.9425 1.8326 1.1345
pair_coeff 3 4 base/rna 3.33333 3.0 13.8 1.5 0.5 1.8326 0.9425 1.8326 1.1345
pair_coeff 4 4 base/rna 0.00000 3.0 13.8 1.5 0.5 1.8326 0.9425 1.8326 1.1345

special_bonds lj 0.0 0.0 1.0
Finding 1-2 1-3 1-4 neighbors ...
  special bond factors lj:    0        0        1       
  special bond factors coul:  0        0        0       
     2 = max # of 1-2 neighbors
     2 = max # of 1-3 neighbors
     4 = max # of 1-4 neighbors
     6 = max # of special neighbors
  special bonds CPU = 0.000 seconds
neighbor 15.0 bin
neigh_modify every 10 delay 0
comm_style tiled
timestep 10

# ===============================
# 1. MINIMIZATION
# ===============================
minimize 1.0e-4 1.0e-6 1000 10000

CITE-CITE-CITE-CITE-CITE-CITE-CITE-CITE-CITE-CITE-CITE-CITE-CITE

Your simulation uses code contributions which should be cited:

- Type Label Framework: https://doi.org/10.1021/acs.jpcb.3c08419

@Article{Gissinger24,
 author = {Jacob R. Gissinger, Ilia Nikiforov, Yaser Afshar, Brendon Waters, Moon-ki Choi, Daniel S. Karls, Alexander Stukowski, Wonpil Im, Hendrik Heinz, Axel Kohlmeyer, and Ellad B. Tadmor},
 title = {Type Label Framework for Bonded Force Fields in LAMMPS},
 journal = {J. Phys. Chem. B},
 year =    2024,
 volume =  128,
 number =  13,
 pages =   {3282–-3297}
}

CITE-CITE-CITE-CITE-CITE-CITE-CITE-CITE-CITE-CITE-CITE-CITE-CITE

Switching to 'neigh_modify every 1 delay 0 check yes' setting during minimization
Generated 0 of 6 mixed pair_coeff terms from geometric mixing rule
Neighbor list info ...
  update: every = 1 steps, delay = 0 steps, check = yes
  max neighbors/atom: 2000, page size: 100000
  master list distance cutoff = 33
  ghost atom cutoff = 33
  binsize = 16.5, bins = 14 14 14
  2 neighbor lists, perpetual/occasional/extra = 2 0 0
  (1) pair lj/cut, perpetual, trim from (2)
      attributes: half, newton on, cut 25
      pair build: trim
      stencil: none
      bin: none
  (2) pair base/rna, perpetual
      attributes: half, newton on
      pair build: half/bin/newton
      stencil: half/bin/3d
      bin: standard
Per MPI rank memory allocation (min/avg/max) = 8.427 | 8.428 | 8.428 Mbytes
   Step          Temp          E_pair         E_mol          TotEng         Press     
         0   0              2.0179206e+12  4897.9168      2.0179206e+12  5.1978143e+10
      1000   0             -680.97985      23.840028     -657.13982     -0.50390101   
Loop time of 0.64339 on 8 procs for 1000 steps with 2032 atoms

99.3% CPU use with 8 MPI tasks x 1 OpenMP threads

Minimization stats:
  Stopping criterion = max iterations
  Energy initial, next-to-last, final = 
      2017920580482.51  -656.929580534873  -657.139821183065
  Force two-norm initial, final = 3.0154728e+13 3.4318055
  Force max component initial, final = 1.9361509e+13 0.63400487
  Final line search alpha, max atom move = 0.19000683 0.12046526
  Iterations, force evaluations = 1000 1450

MPI task timing breakdown:
Section |  min time  |  avg time  |  max time  |%varavg| %total
---------------------------------------------------------------
Pair    | 0.21708    | 0.31124    | 0.54603    |  18.1 | 48.37
Bond    | 0.023868   | 0.029433   | 0.037781   |   2.3 |  4.57
Neigh   | 0.002754   | 0.0027649  | 0.0027737  |   0.0 |  0.43
Comm    | 0.040163   | 0.2824     | 0.38064    |  19.5 | 43.89
Output  | 2.5785e-05 | 2.6025e-05 | 2.6651e-05 |   0.0 |  0.00
Modify  | 0          | 0          | 0          |   0.0 |  0.00
Other   |            | 0.01752    |            |       |  2.72

Nlocal:            254 ave         332 max         197 min
Histogram: 1 0 3 1 1 0 0 1 0 1
Nghost:        712.375 ave         787 max         650 min
Histogram: 2 1 1 0 1 0 0 0 1 2
Neighs:           2073 ave        3545 max        1465 min
Histogram: 3 1 1 1 1 0 0 0 0 1

Total # of neighbors = 16584
Ave neighs/atom = 8.1614173
Ave special neighs/atom = 4.8129921
Neighbor list builds = 5
Dangerous builds = 0
reset_timestep 0

# ===============================
# 2. OUTPUTS
# ===============================
dump d1 all custom 50000 outputs/${tag}.lammpstrj id mol type q xu yu zu
dump d1 all custom 50000 outputs/200ASO_unmod.lammpstrj id mol type q xu yu zu
dump_modify d1 sort id

thermo_style custom step pe ke etotal temp press density
thermo 10000
thermo_modify flush yes

variable vpe equal pe
variable vke equal ke
variable vT  equal temp
variable vE  equal etotal
variable vRg equal gyration(all)

fix favg all ave/time 10000 10 100000 v_vpe v_vke v_vT v_vE v_vRg     file outputs/thermo_${tag}_averaged.dat
fix favg all ave/time 10000 10 100000 v_vpe v_vke v_vT v_vE v_vRg     file outputs/thermo_200ASO_unmod_averaged.dat

# ===============================
# 3. EQUILIBRATION (NVT)
# ===============================
velocity all create ${T_target} 83619 rot yes dist gaussian
velocity all create 300 83619 rot yes dist gaussian

# Langevin thermostat for equilibration
fix fxlang all langevin ${T_target} ${T_target} 1000.0 25435
fix fxlang all langevin 300 ${T_target} 1000.0 25435
fix fxlang all langevin 300 300 1000.0 25435
fix fxnve  all nve
fix recenter all momentum 1000 linear 1 1 1

# Equilibration run
run 5000000
Generated 0 of 6 mixed pair_coeff terms from geometric mixing rule
Per MPI rank memory allocation (min/avg/max) = 7.318 | 7.318 | 7.319 Mbytes
   Step         PotEng         KinEng         TotEng          Temp          Press         Density    
         0  -657.13982      1816.2076      1159.0677      300            7.2931485      0.10193716   
     10000   781.14667      1856.5885      2637.7351      306.67009      4.2291721      0.10193716   
     20000   702.57574      1734.3867      2436.9624      286.48488     -1.3903955      0.10193716   
     30000   701.04271      1850.9245      2551.9673      305.73453      0.77805514     0.10193716   
     40000   639.46746      1845.243       2484.7104      304.79605      0.38129801     0.10193716   
     50000   645.31402      1821.4242      2466.7382      300.86168     -0.023771884    0.10193716   
     60000   580.07898      1856.8003      2436.8793      306.70509      2.5253968      0.10193716   
     70000   585.78272      1750.4858      2336.2685      289.14412      1.0348373      0.10193716   
     80000   545.8317       1822.7379      2368.5695      301.07867     -1.4510209      0.10193716   
     90000   477.72025      1816.5897      2294.31        300.06313      4.5698284      0.10193716   
    100000   462.6811       1790.9426      2253.6237      295.82674      3.549098       0.10193716   
    110000   387.23225      1829.8507      2217.083       302.25357     -0.59070281     0.10193716   
    120000   381.57735      1784.755       2166.3324      294.80469      5.3835388      0.10193716   
    130000   334.04783      1819.7524      2153.8002      300.58554      0.038165428    0.10193716   
    140000   284.49009      1823.0237      2107.5138      301.12588     -0.080970218    0.10193716   
    150000   226.82543      1756.5209      1983.3464      290.141       -2.0856002      0.10193716   
    160000   278.44782      1848.3863      2126.8341      305.31527     -1.1890044      0.10193716   
    170000   189.14384      1848.437       2037.5809      305.32364     -0.16176827     0.10193716   
    180000   185.78953      1793.9633      1979.7528      296.3257       2.2307191      0.10193716   
    190000   218.21466      1854.0054      2072.22        306.24342     -0.21831611     0.10193716   
    200000   158.08745      1786.3886      1944.476       295.07452      3.17526        0.10193716   
    210000   133.96012      1826.9017      1960.8618      301.76645      3.4068257      0.10193716   
    220000   93.612232      1821.8004      1915.4127      300.92383      1.1553854      0.10193716   
    230000   105.11273      1806.2026      1911.3153      298.34738      3.1476371      0.10193716   
    240000   57.32838       1850.9705      1908.2988      305.74211      3.3724587      0.10193716   
    250000  -13.107656      1807.7571      1794.6494      298.60416     -0.53892687     0.10193716   
    260000   14.572278      1790.0463      1804.6186      295.6787       2.958947       0.10193716   
    270000  -22.019841      1884.1569      1862.137       311.22382      2.0948838      0.10193716   
    280000   33.310698      1796.1499      1829.4606      296.68689     -2.4417034      0.10193716   
    290000   57.118816      1793.2414      1850.3602      296.20646      0.648971       0.10193716   
    300000   52.388911      1810.2136      1862.6026      299.00993     -0.58100406     0.10193716   
    310000   28.236764      1865.9033      1894.1401      308.20872      1.9568717      0.10193716   
    320000   5.0554922      1813.9757      1819.0312      299.63134      2.0208805      0.10193716   
    330000   29.686418      1837.4244      1867.1108      303.50459      0.39941827     0.10193716   
    340000   19.820957      1845.9462      1865.7672      304.91222      1.862916       0.10193716   
    350000   50.18791       1813.4237      1863.6116      299.54016     -1.0189203      0.10193716   
    360000   59.811244      1861.8458      1921.6571      307.5385       2.8009163      0.10193716   
    370000   23.053354      1806.32        1829.3734      298.36679     -0.096001281    0.10193716   
    380000   70.067246      1819.9539      1890.0212      300.61883      0.70200705     0.10193716   
    390000   11.704384      1796.9593      1808.6637      296.82058      3.5447336      0.10193716   
    400000  -2.5874531      1811.354       1808.7665      299.19829      1.3852981      0.10193716   
    410000  -15.034456      1788.1818      1773.1474      295.37073     -2.1065894      0.10193716   
    420000   52.560588      1793.249       1845.8096      296.20772      2.0350994      0.10193716   
    430000   32.843898      1850.0408      1882.8847      305.58855      1.4359688      0.10193716   
    440000  -0.69843354     1838.3595      1837.661       303.65904      1.3252481      0.10193716   
    450000   12.003611      1843.3395      1855.3431      304.48163     -0.78030241     0.10193716   
    460000  -5.321471       1795.3989      1790.0774      296.56284      3.1828517      0.10193716   
    470000  -57.640941      1829.867       1772.2261      302.25626      0.048445762    0.10193716   
    480000  -74.79589       1823.5145      1748.7186      301.20695      3.3493293      0.10193716   
    490000   16.434811      1768.9248      1785.3596      292.18987     -2.3693625      0.10193716   
    500000  -16.852777      1797.605       1780.7522      296.92723     -0.53906927     0.10193716   
    510000   46.764772      1834.1796      1880.9443      302.9686       0.46504502     0.10193716   
    520000  -53.899058      1881.794       1827.8949      310.83352     -2.9434243      0.10193716   
    530000  -77.806323      1828.5984      1750.7921      302.04671      1.8280966      0.10193716   
    540000  -106.95723      1786.4275      1679.4703      295.08095      2.246146       0.10193716   
    550000  -133.80455      1813.5666      1679.7621      299.56377     -1.186514       0.10193716   
    560000  -60.236601      1815.833       1755.5964      299.93813      4.6946023      0.10193716   
    570000  -49.226005      1845.2755      1796.0495      304.80142      1.409766       0.10193716   
    580000  -89.26461       1816.9994      1727.7347      300.13079     -0.91722859     0.10193716   
    590000  -49.977836      1813.1458      1763.168       299.49426     -1.5511549      0.10193716   
    600000  -30.921583      1794.4467      1763.5251      296.40555      1.4018824      0.10193716   
    610000  -45.537117      1835.4556      1789.9185      303.17938     -1.9964766      0.10193716   
    620000   3.2695459      1786.2617      1789.5312      295.05356     -0.79431506     0.10193716   
    630000   14.947429      1833.3621      1848.3096      302.83358     -1.8284045      0.10193716   
    640000  -35.819357      1797.7276      1761.9082      296.94749      1.6566536      0.10193716   
    650000   19.075487      1817.6411      1836.7166      300.23679      6.4903762      0.10193716   
    660000  -46.755793      1790.1688      1743.413       295.69893      1.245749       0.10193716   
    670000   1.7787218      1782.6981      1784.4768      294.46492      1.6569231      0.10193716   
    680000  -41.933552      1827.483       1785.5495      301.86248     -1.2554764      0.10193716   
    690000  -52.889598      1831.1455      1778.2559      302.46745     -3.0419948      0.10193716   
    700000  -65.0201        1842.9218      1777.9017      304.41264     -0.14609192     0.10193716   
    710000  -64.947444      1820.766       1755.8186      300.75296      3.057851       0.10193716   
    720000  -17.133194      1810.2327      1793.0995      299.01307     -0.95672822     0.10193716   
    730000  -57.160186      1802.1822      1745.022       297.68329      3.495219       0.10193716   
    740000  -37.277436      1758.7324      1721.455       290.5063      -3.0782788      0.10193716   
    750000  -50.254597      1783.3448      1733.0902      294.57174     -0.1071163      0.10193716   
    760000  -79.055392      1847.8697      1768.8143      305.22993     -0.095765578    0.10193716   
    770000  -10.462849      1789.9212      1779.4583      295.65803      4.8867471      0.10193716   
    780000  -32.890416      1852.4913      1819.6009      305.99332     -2.7451         0.10193716   
    790000  -78.982872      1827.8133      1748.8304      301.91702     -0.30185811     0.10193716   
    800000  -67.841727      1819.6515      1751.8097      300.56886     -1.3157079      0.10193716   
    810000  -40.727685      1823.5553      1782.8276      301.2137      -0.27848609     0.10193716   
    820000  -70.917983      1824.2492      1753.3312      301.32831     -2.0019639      0.10193716   
    830000  -85.574682      1818.9862      1733.4115      300.45897      1.1897202      0.10193716   
    840000  -95.472732      1800.1294      1704.6566      297.34421      3.1543919      0.10193716   
    850000  -49.973656      1764.8021      1714.8285      291.50888      1.7647927      0.10193716   
    860000  -44.790624      1827.6547      1782.8641      301.89083      1.2710126      0.10193716   
    870000  -58.463414      1830.4563      1771.9929      302.3536      -2.1502303      0.10193716   
    880000  -20.077265      1802.3052      1782.2279      297.70361      1.8113952      0.10193716   
    890000  -42.149725      1738.7875      1696.6378      287.2118       1.369442       0.10193716   
    900000  -9.3276269      1835.292       1825.9644      303.15236     -4.0505401      0.10193716   
    910000   7.7706987      1828.8487      1836.6194      302.08805      3.9148767      0.10193716   
    920000  -33.945417      1763.5606      1729.6152      291.30381      0.078245932    0.10193716   
    930000  -39.92262       1792.2568      1752.3342      296.04383     -2.4880354      0.10193716   
    940000  -12.431641      1821.3019      1808.8703      300.84148     -3.7637058      0.10193716   
    950000  -64.800432      1816.1675      1751.367       299.99338      3.9561185      0.10193716   
    960000   30.448013      1806.3549      1836.8029      298.37254      0.57023302     0.10193716   
    970000  -22.883355      1841.0301      1818.1467      304.10017      1.1710054      0.10193716   
    980000  -1.4353661      1829.9599      1828.5245      302.27159      0.19107067     0.10193716   
    990000  -127.45927      1776.6719      1649.2126      293.46952      2.3130763      0.10193716   
   1000000  -14.163976      1782.8859      1768.7219      294.49594      1.5981489      0.10193716   
   1010000  -42.719585      1870.9521      1828.2326      309.04267      2.9859765      0.10193716   
   1020000  -111.26283      1811.4762      1700.2134      299.21848     -2.5219543      0.10193716   
   1030000  -82.282727      1842.7122      1760.4295      304.37802      1.2926658      0.10193716   
   1040000  -33.920531      1772.0376      1738.1171      292.70404     -0.71454663     0.10193716   
   1050000  -98.476183      1818.8113      1720.3351      300.43008      4.2588585      0.10193716   
   1060000  -65.806611      1780.5194      1714.7128      294.10505      3.0530343      0.10193716   
   1070000  -114.10236      1833.6053      1719.5029      302.87375      3.5125321      0.10193716   
   1080000  -27.571551      1833.4743      1805.9027      302.8521       2.9869819      0.10193716   
   1090000  -92.078895      1830.6658      1738.5869      302.3882       2.4465862      0.10193716   
   1100000  -46.281548      1783.013       1736.7314      294.51694     -1.7006374      0.10193716   
   1110000  -98.932539      1829.7546      1730.8221      302.23769     -1.9941514      0.10193716   
   1120000  -183.6802       1824.5847      1640.9045      301.38372      1.919236       0.10193716   
   1130000   15.739232      1851.5117      1867.251       305.83152      0.91821658     0.10193716   
   1140000   103.284        1844.4671      1947.7511      304.66789      0.73975642     0.10193716   
   1150000  -47.569381      1871.4772      1823.9078      309.1294       4.098724       0.10193716   
   1160000  -69.753571      1882.3507      1812.5971      310.92548      0.69437409     0.10193716   
   1170000   7.8688167      1793.8118      1801.6806      296.30069      3.0701575      0.10193716   
   1180000  -2.4591775      1793.7992      1791.3401      296.29861      1.1362131      0.10193716   
   1190000   35.772003      1800.4781      1836.2501      297.40182      0.46167021     0.10193716   
   1200000   8.1203734      1762.8764      1770.9968      291.19079      1.2355572      0.10193716   
   1210000  -117.88648      1830.1609      1712.2744      302.3048       0.45003443     0.10193716   
   1220000  -96.436399      1830.5306      1734.0942      302.36586      4.2159447      0.10193716   
   1230000  -31.331727      1763.0416      1731.7099      291.21809     -1.0857707      0.10193716   
   1240000  -53.356268      1838.4218      1785.0655      303.66933      1.2672436      0.10193716   
   1250000  -54.358824      1783.1152      1728.7564      294.53383      1.398769       0.10193716   
   1260000  -155.02305      1806.6798      1651.6568      298.42622     -2.9381763      0.10193716   
   1270000  -76.477788      1804.3349      1727.8571      298.03888      5.537041       0.10193716   
   1280000  -113.70563      1812.4186      1698.713       299.37415      1.1881699      0.10193716   
   1290000  -93.373397      1893.5716      1800.1982      312.77894     -0.57634778     0.10193716   
   1300000  -84.103289      1865.4165      1781.3132      308.1283       0.016097424    0.10193716   
   1310000  -80.398722      1820.8361      1740.4374      300.76454      3.6103352      0.10193716   
   1320000  -187.89558      1805.3083      1617.4128      298.19967     -0.10709006     0.10193716   
   1330000  -142.82541      1843.1573      1700.3319      304.45154     -0.23361266     0.10193716   
   1340000  -125.19336      1833.9936      1708.8002      302.93788     -0.18654134     0.10193716   
   1350000  -170.31495      1809.7353      1639.4204      298.93092      1.288274       0.10193716   
   1360000  -98.794984      1806.5741      1707.7792      298.40876     -0.16498652     0.10193716   
   1370000  -96.140717      1817.0238      1720.8831      300.13483     -5.0744355      0.10193716   
   1380000  -128.90133      1768.033       1639.1317      292.04255     -0.09309574     0.10193716   
   1390000  -169.00507      1840.6178      1671.6127      304.03206      1.3707682      0.10193716   
   1400000  -256.28881      1788.2096      1531.9207      295.37531      2.5343428      0.10193716   
   1410000  -148.96573      1777.8678      1628.9021      293.66707      2.0715945      0.10193716   
   1420000  -171.57117      1836.9808      1665.4097      303.43132      2.2814457      0.10193716   
   1430000  -103.78268      1841.7896      1738.0069      304.22563      2.5403076      0.10193716   
   1440000  -118.03081      1796.0318      1678.001       296.66738      0.9925204      0.10193716   
   1450000  -80.546798      1770.7412      1690.1944      292.48989     -0.6806879      0.10193716   
   1460000  -136.20012      1852.8063      1716.6062      306.04535      2.9087876      0.10193716   
   1470000  -105.90765      1817.3928      1711.4851      300.19577     -1.7693861      0.10193716   
   1480000  -76.148229      1831.9669      1755.8187      302.60311      3.6385064      0.10193716   
   1490000  -118.46664      1780.6295      1662.1629      294.12324     -2.1133766      0.10193716   
   1500000  -82.757287      1803.7617      1721.0044      297.94419      0.31330409     0.10193716   
   1510000  -60.281864      1841.3271      1781.0452      304.14922      0.11136412     0.10193716   
   1520000  -137.40039      1819.9368      1682.5364      300.61599      1.2726416      0.10193716   
   1530000  -129.01992      1738.8051      1609.7852      287.21471     -2.0556636      0.10193716   
   1540000  -92.497495      1770.8077      1678.3102      292.50089      0.29029727     0.10193716   
   1550000  -107.64096      1828.774       1721.133       302.07572     -1.9153971      0.10193716   
   1560000  -36.122268      1775.0552      1738.9329      293.20248      1.8541566      0.10193716   
   1570000  -62.333614      1858.7767      1796.4431      307.03154      2.9066279      0.10193716   
   1580000  -81.576464      1830.8357      1749.2592      302.41627     -3.8887602      0.10193716   
   1590000  -91.789911      1895.468       1803.6781      313.09219     -1.9307727      0.10193716   
   1600000  -90.017167      1855.1338      1765.1167      306.42982      4.4296356      0.10193716   
   1610000  -169.25032      1779.2695      1610.0192      293.8986      -1.4481271      0.10193716   
   1620000  -90.82333       1787.2192      1696.3959      295.21173      2.263717       0.10193716   
   1630000  -88.964589      1820.6961      1731.7315      300.74142      3.9571621      0.10193716   
   1640000  -181.14566      1795.1658      1614.0202      296.52434     -0.13755005     0.10193716   
   1650000  -114.8419       1883.8926      1769.0507      311.18017      1.8491156      0.10193716   
   1660000  -122.92693      1829.1024      1706.1755      302.12996      2.3112245      0.10193716   
   1670000  -137.01719      1789.775       1652.7578      295.63389      1.1207291      0.10193716   
   1680000  -123.67227      1776.8468      1653.1745      293.49841      1.7600578      0.10193716   
   1690000  -120.06533      1850.9906      1730.9252      305.74543      0.46582429     0.10193716   
   1700000  -165.7293       1875.8284      1710.0991      309.84813      0.083020655    0.10193716   
   1710000  -124.2391       1813.9795      1689.7404      299.63197     -1.356363       0.10193716   
   1720000  -97.882351      1826.6699      1728.7876      301.72817      4.4151286      0.10193716   
   1730000  -160.37351      1801.4328      1641.0593      297.55951      4.0983344      0.10193716   
   1740000  -183.68024      1858.4127      1674.7325      306.97142      1.2766115      0.10193716   
   1750000  -142.33367      1834.3405      1692.0068      302.99519      4.0843133      0.10193716   
   1760000  -151.39752      1792.5532      1641.1557      296.09278     -0.89892118     0.10193716   
   1770000  -228.58021      1826.578       1597.9978      301.71298     -0.4095827      0.10193716   
   1780000  -167.52614      1851.4239      1683.8978      305.81702     -0.14032176     0.10193716   
   1790000  -188.66332      1855.8194      1667.1561      306.54306     -0.69523242     0.10193716   
   1800000  -190.98683      1809.0483      1618.0614      298.81743     -0.20428049     0.10193716   
   1810000  -176.89488      1761.7257      1584.8308      291.00072      1.7509675      0.10193716   
   1820000  -98.519611      1828.3789      1729.8593      302.01046      1.7499824      0.10193716   
   1830000  -118.77287      1818.8562      1700.0833      300.4375       4.9201137      0.10193716   
   1840000  -155.20516      1841.0218      1685.8166      304.0988       1.6374866      0.10193716   
   1850000  -109.68454      1756.6607      1646.9761      290.16409     -1.7028578      0.10193716   
   1860000  -65.580294      1759.6896      1694.1093      290.6644       0.53716347     0.10193716   
   1870000  -129.82663      1790.1223      1660.2957      295.69125      1.0878709      0.10193716   
   1880000  -109.53202      1840.0957      1730.5637      303.94583     -1.0704163      0.10193716   
   1890000  -153.93366      1801.5574      1647.6238      297.5801      -1.2484339      0.10193716   
   1900000  -177.99023      1817.9387      1639.9484      300.28595     -0.84837749     0.10193716   
   1910000  -140.452        1756.2872      1615.8352      290.10239     -1.5790062      0.10193716   
   1920000  -152.20691      1747.4041      1595.1972      288.63509     -1.1221637      0.10193716   
   1930000  -89.896537      1801.4973      1711.6007      297.57016     -0.67814497     0.10193716   
   1940000  -153.10356      1796.919       1643.8155      296.81394     -0.19886551     0.10193716   
   1950000  -88.371559      1825.2034      1736.8319      301.48593      1.28665        0.10193716   
   1960000  -151.5923       1808.9937      1657.4014      298.80843      3.477257       0.10193716   
   1970000  -150.15547      1828.6088      1678.4533      302.04843     -2.7616585      0.10193716   
   1980000  -217.05272      1787.5621      1570.5094      295.26837      2.1880636      0.10193716   
   1990000  -156.82847      1734.5385      1577.71        286.50996      0.27432006     0.10193716   
   2000000  -168.48924      1806.4852      1637.9959      298.39406      1.9483821      0.10193716   
   2010000  -201.47221      1834.1229      1632.6507      302.95924      2.2298912      0.10193716   
   2020000  -94.681317      1762.1389      1667.4575      291.06897      1.6756591      0.10193716   
   2030000  -225.0383       1830.093       1605.0547      302.29359      1.8446441      0.10193716   
   2040000  -244.5237       1850.2745      1605.7508      305.62716      4.3084755      0.10193716   
   2050000  -185.80268      1807.686       1621.8833      298.59241      1.8461933      0.10193716   
   2060000  -124.82213      1836.8181      1711.996       303.40443      0.70106941     0.10193716   
   2070000  -210.83918      1820.6208      1609.7816      300.72897      4.1926598      0.10193716   
   2080000  -161.82063      1800.0014      1638.1808      297.32308      3.0598015      0.10193716   
   2090000  -174.17268      1835.2129      1661.0403      303.13929     -0.5522554      0.10193716   
   2100000  -125.22936      1761.2073      1635.9779      290.91509     -4.9388698      0.10193716   
   2110000  -188.33558      1829.2536      1640.918       302.15494      0.40093647     0.10193716   
   2120000  -151.63184      1804.3523      1652.7205      298.04175      0.91781323     0.10193716   
   2130000  -163.67327      1816.6402      1652.9669      300.07146      2.2958421      0.10193716   
   2140000  -189.76535      1778.9711      1589.2057      293.8493       3.8829414      0.10193716   
   2150000  -122.70655      1796.761       1674.0545      296.78784     -5.4678206      0.10193716   
   2160000  -81.798642      1782.4121      1700.6134      294.41769      0.84768532     0.10193716   
   2170000  -182.10489      1806.9088      1624.8039      298.46404      3.25737        0.10193716   
   2180000  -74.87391       1797.4159      1722.542       296.89601      2.2940733      0.10193716   
   2190000  -46.567706      1775.3014      1728.7337      293.24315      0.89706262     0.10193716   
   2200000  -114.02503      1850.9714      1736.9464      305.74227      5.6104739      0.10193716   
   2210000  -152.5005       1824.2356      1671.7351      301.32606      0.15971844     0.10193716   
   2220000  -124.50952      1833.2033      1708.6938      302.80735     -1.7643116      0.10193716   
   2230000  -170.40651      1815.2061      1644.7996      299.83458      2.3366646      0.10193716   
   2240000  -75.539201      1810.5524      1735.0132      299.06588      2.5580511      0.10193716   
   2250000  -126.24158      1805.3439      1679.1023      298.20554      0.21746836     0.10193716   
   2260000  -179.48392      1817.1323      1637.6484      300.15275      1.4432862      0.10193716   
   2270000  -101.20239      1794.909       1693.7066      296.48192      0.25579617     0.10193716   
   2280000  -207.87509      1803.3694      1595.4943      297.8794       2.6733698      0.10193716   
   2290000  -114.96996      1840.7613      1725.7914      304.05578      6.1352161      0.10193716   
   2300000  -130.68304      1827.4954      1696.8124      301.86452      1.8359215      0.10193716   
   2310000  -178.93259      1801.7904      1622.8578      297.61858     -0.066677915    0.10193716   
   2320000  -106.43753      1799.6285      1693.191       297.26148     -2.8681474      0.10193716   
   2330000  -178.08323      1837.8661      1659.7828      303.57754      4.3435422      0.10193716   
   2340000  -167.33141      1823.151       1655.8196      301.14692      0.89847577     0.10193716   
   2350000  -157.73322      1858.0092      1700.276       306.90476     -0.38065261     0.10193716   
   2360000  -98.611369      1778.7491      1680.1377      293.81264     -2.918918       0.10193716   
   2370000  -117.5142       1808.2487      1690.7345      298.68536      2.4833384      0.10193716   
   2380000  -167.72837      1798.7969      1631.0686      297.12412     -1.2697543      0.10193716   
   2390000  -143.42701      1848.4786      1705.0516      305.33051     -1.2807133      0.10193716   
   2400000  -151.70435      1807.5098      1655.8054      298.56331      0.12822014     0.10193716   
   2410000  -91.663896      1786.5559      1694.892       295.10216      2.2648178      0.10193716   
   2420000  -149.16091      1861.0403      1711.8794      307.40545     -0.46413309     0.10193716   
   2430000  -178.18747      1833.2439      1655.0564      302.81405      0.36793621     0.10193716   
   2440000  -113.91306      1741.4649      1627.5518      287.65405     -2.3575374      0.10193716   
   2450000  -70.459157      1767.8221      1697.363       292.00773      1.15683        0.10193716   
   2460000  -103.83787      1825.1251      1721.2872      301.47299      0.75769456     0.10193716   
   2470000  -100.91212      1822.1488      1721.2367      300.98138     -1.4342653      0.10193716   
   2480000  -16.415172      1834.9387      1818.5235      303.094        1.2335793      0.10193716   
   2490000   30.425185      1875.4508      1905.876       309.78575     -3.5889631      0.10193716   
   2500000  -151.00423      1815.5867      1664.5825      299.89744     -0.18502284     0.10193716   
   2510000  -70.293508      1794.7654      1724.4719      296.4582      -0.10616729     0.10193716   
   2520000  -173.8816       1897.6228      1723.7412      313.44811      1.7249434      0.10193716   
   2530000  -203.83288      1801.8299      1597.997       297.62511      2.1848816      0.10193716   
   2540000  -201.53359      1852.3242      1650.7907      305.96573      1.4056346      0.10193716   
   2550000  -122.65934      1829.0409      1706.3816      302.11981     -0.91064195     0.10193716   
   2560000  -156.48809      1843.2653      1686.7772      304.46938      0.77136742     0.10193716   
   2570000  -111.66149      1803.8411      1692.1796      297.95731      0.40239112     0.10193716   
   2580000  -131.92423      1822.9892      1691.065       301.12019     -2.9746738      0.10193716   
   2590000  -136.47439      1798.7109      1662.2365      297.10992      2.1592258      0.10193716   
   2600000  -145.47211      1812.995       1667.5229      299.46935     -0.50592207     0.10193716   
   2610000  -157.25476      1822.894       1665.6393      301.10447      1.82596        0.10193716   
   2620000  -94.377779      1842.2549      1747.8771      304.30248      0.53461536     0.10193716   
   2630000  -131.66798      1866.4423      1734.7743      308.29774      1.8992352      0.10193716   
   2640000  -146.71987      1756.4098      1609.69        290.12265      0.89348561     0.10193716   
   2650000  -166.06636      1794.2395      1628.1731      296.37133      2.3192565      0.10193716   
   2660000  -162.51885      1824.3961      1661.8773      301.35258     -0.11701735     0.10193716   
   2670000  -115.97612      1807.6657      1691.6896      298.58907     -0.15515504     0.10193716   
   2680000  -118.26786      1801.3754      1683.1076      297.55004     -0.4081447      0.10193716   
   2690000  -182.255        1847.6514      1665.3964      305.19387      2.9667891      0.10193716   
   2700000  -171.79645      1798.4119      1626.6154      297.06052     -0.85948256     0.10193716   
   2710000  -142.36328      1843.1297      1700.7664      304.44698      2.7966969      0.10193716   
   2720000  -132.88563      1850.1471      1717.2614      305.60611     -0.028510135    0.10193716   
   2730000  -150.37429      1782.4966      1632.1223      294.43165      1.2367078      0.10193716   
   2740000  -177.38413      1852.3268      1674.9427      305.96615      3.0569806      0.10193716   
   2750000  -146.33734      1825.6934      1679.3561      301.56687     -1.4123782      0.10193716   
   2760000  -147.28564      1822.1223      1674.8367      300.977        3.1115776      0.10193716   
   2770000  -169.06284      1847.4925      1678.4297      305.16763      0.17949964     0.10193716   
   2780000  -135.05035      1805.9909      1670.9405      298.31242      2.7361244      0.10193716   
   2790000  -229.45544      1814.3326      1584.8772      299.6903       4.3230156      0.10193716   
   2800000  -112.77125      1838.6486      1725.8774      303.7068      -0.7121475      0.10193716   
   2810000  -89.928173      1784.4577      1694.5295      294.75557     -0.51661148     0.10193716   
   2820000  -165.05432      1843.0012      1677.9469      304.42576     -1.8007588      0.10193716   
   2830000  -108.23572      1798.5329      1690.2971      297.0805       0.45921644     0.10193716   
   2840000  -37.509765      1859.3329      1821.8231      307.12341      0.62132761     0.10193716   
   2850000  -90.527011      1859.7909      1769.2639      307.19908      0.73291292     0.10193716   
   2860000  -85.108184      1813.1256      1728.0174      299.49093     -2.6049873      0.10193716   
   2870000  -118.96565      1823.5899      1704.6243      301.21942      2.1409739      0.10193716   
   2880000  -80.047409      1827.6033      1747.5559      301.88235      5.1035251      0.10193716   
   2890000  -26.504638      1811.8308      1785.3261      299.27704     -0.67383845     0.10193716   
   2900000  -130.31673      1787.771       1657.4543      295.30287      6.8494504      0.10193716   
   2910000  -82.691937      1799.4763      1716.7844      297.23634     -3.8958427      0.10193716   
   2920000  -95.232288      1780.0515      1684.8192      294.02777      0.023521415    0.10193716   
   2930000  -52.162538      1825.7985      1773.636       301.58422      0.58684557     0.10193716   
   2940000  -109.10744      1822.1004      1712.993       300.97338     -1.8742717      0.10193716   
   2950000  -41.932147      1830.1313      1788.1992      302.29992     -0.36225475     0.10193716   
   2960000  -44.731176      1816.0815      1771.3504      299.97918      0.30358381     0.10193716   
   2970000  -88.058836      1885.8189      1797.7601      311.49836      2.0808618      0.10193716   
   2980000  -26.686093      1787.6846      1760.9985      295.28859      1.1918204      0.10193716   
   2990000  -123.26653      1840.5976      1717.331       304.02873      1.8355648      0.10193716   
   3000000  -114.05846      1831.6463      1717.5878      302.55016     -0.23433216     0.10193716   
   3010000  -111.53263      1833.6672      1722.1346      302.88397      3.6161099      0.10193716   
   3020000  -78.782697      1821.5792      1742.7965      300.88729      1.2030157      0.10193716   
   3030000  -88.717573      1816.3088      1727.5913      300.01673      1.2383722      0.10193716   
   3040000  -33.429104      1893.6937      1860.2646      312.79911      4.9748304      0.10193716   
   3050000  -75.72853       1837.0361      1761.3076      303.44045     -4.1000633      0.10193716   
   3060000   8.4027064      1850.765       1859.1677      305.70818      2.5125259      0.10193716   
   3070000  -37.378015      1851.6112      1814.2332      305.84795     -1.0118504      0.10193716   
   3080000  -50.618298      1830.2102      1779.5919      302.31294     -1.2773933      0.10193716   
   3090000  -58.489014      1838.2005      1779.7115      303.63278      0.39354098     0.10193716   
   3100000  -50.424691      1825.6889      1775.2642      301.56612      2.2099272      0.10193716   
   3110000  -64.380039      1809.2753      1744.8952      298.85493      0.27162937     0.10193716   
   3120000  -0.24301024     1762.7267      1762.4836      291.16606     -0.5621137      0.10193716   
   3130000  -62.523094      1775.9679      1713.4448      293.35324      0.72244494     0.10193716   
   3140000  -29.99857       1801.4285      1771.43        297.55881      0.50323035     0.10193716   
   3150000  -52.858501      1821.4888      1768.6303      300.87235     -3.5547155      0.10193716   
   3160000  -74.180892      1886.2683      1812.0874      311.57259      2.4409565      0.10193716   
   3170000  -22.448531      1783.3573      1760.9088      294.57382      1.3119004      0.10193716   
   3180000  -80.603034      1867.5007      1786.8977      308.47257      1.7476537      0.10193716   
   3190000  -41.69409       1847.2807      1805.5866      305.13264     -0.39358176     0.10193716   
   3200000  -61.664729      1810.3949      1748.7301      299.03986      1.5429576      0.10193716   
   3210000   1.6792923      1907.8407      1909.52        315.13591      1.1399558      0.10193716   
   3220000  -18.362186      1784.8322      1766.47        294.81743     -0.30670704     0.10193716   
   3230000  -86.619624      1785.5567      1698.9371      294.93711      3.3631172      0.10193716   
   3240000  -38.285327      1864.1504      1825.8651      307.91916     -2.5351078      0.10193716   
   3250000  -23.83958       1832.2871      1808.4475      302.656        1.8839883      0.10193716   
   3260000  -56.792551      1858.5167      1801.7241      306.9886      -0.58638978     0.10193716   
   3270000  -31.779419      1765.6463      1733.8668      291.64832      2.1511465      0.10193716   
   3280000  -69.941235      1838.608       1768.6667      303.70008      0.68114716     0.10193716   
   3290000  -95.959698      1783.9241      1687.9644      294.66744      3.7779257      0.10193716   
   3300000  -54.323616      1791.4694      1737.1458      295.91376      2.8793024      0.10193716   
   3310000  -18.078923      1790.6969      1772.6179      295.78616     -2.5710753      0.10193716   
   3320000  -70.741515      1782.8628      1712.1213      294.49213     -0.25090776     0.10193716   
   3330000  -52.332832      1817.2774      1764.9446      300.17672      3.7952904      0.10193716   
   3340000  -54.215831      1836.8438      1782.628       303.40869      3.5674263      0.10193716   
   3350000  -25.889145      1816.1599      1790.2708      299.99213      2.2656003      0.10193716   
   3360000  -39.218483      1787.8271      1748.6086      295.31214      1.4383691      0.10193716   
   3370000  -68.507512      1779.4852      1710.9777      293.93422     -0.36393714     0.10193716   
   3380000  -45.529042      1797.2674      1751.7384      296.87148      5.3092457      0.10193716   
   3390000  -24.138856      1818.7154      1794.5766      300.41425      3.6729105      0.10193716   
   3400000  -111.61033      1861.1462      1749.5359      307.42294     -2.2099445      0.10193716   
   3410000  -48.117024      1810.2902      1762.1732      299.02257      1.5537363      0.10193716   
   3420000  -40.52898       1900.2351      1859.7061      313.87961     -1.9110871      0.10193716   
   3430000  -65.842307      1792.2306      1726.3883      296.03951      3.2521452      0.10193716   
   3440000  -56.021999      1819.4284      1763.4064      300.53201      0.2382679      0.10193716   
   3450000  -22.953775      1712.6799      1689.7261      282.89936     -1.550415       0.10193716   
   3460000  -53.660096      1791.356       1737.6959      295.89504      1.6862813      0.10193716   
   3470000  -88.777655      1785.5343      1696.7566      294.9334      -1.8229054      0.10193716   
   3480000  -81.917146      1797.6135      1715.6964      296.92865      2.9729265      0.10193716   
   3490000  -45.141179      1818.3272      1773.186       300.35012     -0.83061996     0.10193716   
   3500000  -66.721058      1833.2777      1766.5566      302.81963      0.21218644     0.10193716   
   3510000  -96.241261      1784.3954      1688.1541      294.74528     -3.8143918      0.10193716   
   3520000  -61.877541      1808.8169      1746.9394      298.77922     -1.0039195      0.10193716   
   3530000  -139.23134      1855.7129      1716.4816      306.52547     -0.68762924     0.10193716   
   3540000  -74.831442      1832.0782      1757.2468      302.62151      2.267652       0.10193716   
   3550000  -131.95696      1782.5218      1650.5649      294.43581     -2.8628781      0.10193716   
   3560000  -153.43414      1868.6987      1715.2646      308.67046      2.1857853      0.10193716   
   3570000  -100.11044      1826.1765      1726.0661      301.64667      3.4443675      0.10193716   
   3580000  -93.422975      1842.9769      1749.5539      304.42175      0.79688078     0.10193716   
   3590000  -146.62096      1795.6127      1648.9917      296.59815     -2.0226562      0.10193716   
   3600000  -89.234944      1794.939       1705.704       296.48686      0.46877476     0.10193716   
   3610000  -42.938194      1767.2146      1724.2765      291.90738      0.79118613     0.10193716   
   3620000  -26.784118      1830.5287      1803.7446      302.36555     -1.6649126      0.10193716   
   3630000  -103.00806      1807.8812      1704.8731      298.62466      1.8101361      0.10193716   
   3640000  -188.31257      1735.4828      1547.1702      286.66593      1.0185753      0.10193716   
   3650000  -61.737363      1829.9707      1768.2334      302.27339      5.1359892      0.10193716   
   3660000  -77.558594      1799.0994      1721.5408      297.17409     -2.2445156      0.10193716   
   3670000  -105.6809       1801.6795      1695.9986      297.60026     -3.828429       0.10193716   
   3680000  -60.188494      1799.2273      1739.0388      297.19521      0.0956136      0.10193716   
   3690000  -184.61601      1793.3716      1608.7556      296.22798      3.2534235      0.10193716   
   3700000  -45.094592      1779.5725      1734.4779      293.94864      1.8523582      0.10193716   
   3710000  -70.455239      1841.8463      1771.391       304.23498     -2.4844198      0.10193716   
   3720000  -111.65962      1753.5298      1641.8702      289.64693     -3.3085365      0.10193716   
   3730000  -79.639381      1799.9742      1720.3348      297.31858      2.4347875      0.10193716   
   3740000  -99.624338      1784.3878      1684.7635      294.74404     -0.41884107     0.10193716   
   3750000  -52.433579      1796.38        1743.9464      296.72489      2.5527993      0.10193716   
   3760000  -91.794028      1774.6189      1682.8249      293.13042      2.6296891      0.10193716   
   3770000  -114.8435       1887.5474      1772.7039      311.78387      2.4754025      0.10193716   
   3780000  -194.53787      1865.772       1671.2342      308.18703      1.7432427      0.10193716   
   3790000  -161.76137      1781.8912      1620.1299      294.33165      2.1207458      0.10193716   
   3800000  -170.32242      1820.6479      1650.3255      300.73345      1.3157191      0.10193716   
   3810000  -178.00462      1807.0261      1629.0215      298.48341      4.6618423      0.10193716   
   3820000  -167.78246      1771.1048      1603.3224      292.54996      0.77705971     0.10193716   
   3830000  -182.27045      1864.7355      1682.465       308.01581      5.890998       0.10193716   
   3840000  -173.99468      1821.5564      1647.5617      300.88351     -0.016278787    0.10193716   
   3850000  -153.82461      1756.1641      1602.3395      290.08206     -0.56284366     0.10193716   
   3860000  -134.90763      1814.0415      1679.1339      299.64222      2.5830724      0.10193716   
   3870000  -199.64024      1863.2224      1663.5821      307.76587      5.819537       0.10193716   
   3880000  -175.81516      1854.5929      1678.7777      306.34046      2.6102343      0.10193716   
   3890000  -82.721453      1778.4341      1695.7127      293.76061      1.9527874      0.10193716   
   3900000  -109.72687      1832.4145      1722.6876      302.67705     -4.0603028      0.10193716   
   3910000  -134.26685      1760.4544      1626.1875      290.79073     -0.61656817     0.10193716   
   3920000  -155.90614      1800.9755      1645.0693      297.48397     -1.5766634      0.10193716   
   3930000  -132.20321      1779.7496      1647.5464      293.97789     -0.56439458     0.10193716   
   3940000  -172.99375      1807.1001      1634.1064      298.49564      3.7684011      0.10193716   
   3950000  -84.060936      1755.2773      1671.2163      289.93557      0.25507495     0.10193716   
   3960000  -187.1874       1856.6121      1669.4247      306.67399      1.0406563      0.10193716   
   3970000  -83.222226      1867.2125      1783.9903      308.42497      3.844302       0.10193716   
   3980000  -78.177633      1796.4442      1718.2666      296.73551     -0.40381398     0.10193716   
   3990000  -60.645549      1896.0255      1835.3799      313.18427     -0.29875131     0.10193716   
   4000000  -50.438921      1787.0876      1736.6487      295.18999      0.67117524     0.10193716   
   4010000  -71.740505      1805.9236      1734.183       298.30129     -0.84674241     0.10193716   
   4020000   11.158409      1843.9259      1855.0843      304.5785       5.7390336      0.10193716   
   4030000  -44.584957      1811.5501      1766.9652      299.23069     -0.21345985     0.10193716   
   4040000  -37.958951      1799.7359      1761.777       297.27922     -0.3795367      0.10193716   
   4050000   17.101918      1811.5669      1828.6689      299.23347     -1.7698717      0.10193716   
   4060000  -59.286381      1768.0853      1708.7989      292.0512       1.214802       0.10193716   
   4070000  -56.956489      1838.6365      1781.68        303.70479      1.2992522      0.10193716   
   4080000  -73.701757      1774.7178      1701.016       293.14674     -0.69075484     0.10193716   
   4090000  -10.225599      1822.4616      1812.236       301.03304     -0.18962299     0.10193716   
   4100000  -131.89702      1839.4501      1707.5531      303.83919     -0.90467695     0.10193716   
   4110000  -112.76805      1740.6834      1627.9154      287.52497      3.046801       0.10193716   
   4120000  -105.73087      1825.8897      1720.1589      301.59929      1.3499669      0.10193716   
   4130000  -69.28715       1881.9401      1812.653       310.85766      1.35559        0.10193716   
   4140000  -103.19471      1789.1411      1685.9464      295.52918      4.2203666      0.10193716   
   4150000  -144.15688      1841.4259      1697.269       304.16554      0.21561286     0.10193716   
   4160000  -91.714673      1824.7097      1732.995       301.40438     -1.4982168      0.10193716   
   4170000  -99.584363      1842.4542      1742.8698      304.3354       3.1780339      0.10193716   
   4180000  -36.912991      1855.7242      1818.8112      306.52734      0.80522015     0.10193716   
   4190000  -43.972673      1845.3566      1801.384       304.81483      3.05957        0.10193716   
   4200000  -111.54894      1797.7362      1686.1873      296.94891     -2.7871472      0.10193716   
   4210000  -78.304722      1819.1687      1740.864       300.48911      1.9423224      0.10193716   
   4220000   1.8417883      1817.4246      1819.2664      300.20103      3.4007702      0.10193716   
   4230000   16.128836      1772.4717      1788.6005      292.77574     -3.3925608      0.10193716   
   4240000   26.463261      1890.5657      1917.0289      312.28243      0.96486566     0.10193716   
   4250000   6.3679795      1848.6703      1855.0383      305.36217     -2.7344134      0.10193716   
   4260000  -15.139473      1796.6244      1781.4849      296.76527      1.9011099      0.10193716   
   4270000  -28.762692      1781.3911      1752.6284      294.24905      0.61562454     0.10193716   
   4280000  -23.122409      1797.0502      1773.9278      296.83559     -0.55561133     0.10193716   
   4290000  -100.43333      1808.2025      1707.7691      298.67772     -0.16388148     0.10193716   
   4300000  -85.551276      1778.3258      1692.7745      293.74272      4.0089993      0.10193716   
   4310000  -39.687982      1813.2218      1773.5338      299.50682     -0.73273682     0.10193716   
   4320000  -139.71626      1858.7035      1718.9872      307.01945      3.5109216      0.10193716   
   4330000  -224.88666      1870.8522      1645.9655      309.02617     -0.22187037     0.10193716   
   4340000  -205.70563      1862.0798      1656.3741      307.57714      2.2328018      0.10193716   
   4350000  -108.30791      1825.2547      1716.9468      301.4944       2.8215083      0.10193716   
   4360000  -134.64331      1819.9919      1685.3486      300.6251       0.61528879     0.10193716   
   4370000  -213.08679      1849.74        1636.6532      305.53886      1.6807865      0.10193716   
   4380000  -127.85706      1822.233       1694.376       300.99528     -1.2854784      0.10193716   
   4390000  -60.41218       1828.9882      1768.576       302.11109     -1.9173501      0.10193716   
   4400000  -76.531192      1737.8816      1661.3504      287.06217      2.1857167      0.10193716   
   4410000  -28.356709      1814.5446      1786.1879      299.72531      0.51760826     0.10193716   
   4420000  -79.653481      1809.6681      1730.0147      298.91982      0.95589985     0.10193716   
   4430000  -51.897714      1837.5862      1785.6885      303.5313       2.4581251      0.10193716   
   4440000  -75.644055      1833.0068      1757.3627      302.77489      2.1401647      0.10193716   
   4450000  -44.311074      1747.226       1702.9149      288.60567      1.5051279      0.10193716   
   4460000  -63.025428      1816.7054      1753.68        300.08223      2.1701108      0.10193716   
   4470000  -56.994979      1797.1255      1740.1305      296.84804      6.52758        0.10193716   
   4480000  -161.71197      1740.1497      1578.4378      287.43682      1.9039716      0.10193716   
   4490000  -121.16224      1839.514       1718.3517      303.84974      2.5933108      0.10193716   
   4500000  -126.96787      1784.1598      1657.1919      294.70636      0.45327887     0.10193716   
   4510000  -58.477937      1817.3435      1758.8656      300.18763      0.63318006     0.10193716   
   4520000  -88.912843      1804.1183      1715.2055      298.00311      1.1771069      0.10193716   
   4530000  -84.564937      1814.4601      1729.8952      299.71136      4.0052804      0.10193716   
   4540000  -22.01259       1846.0221      1824.0095      304.92474      2.9911726      0.10193716   
   4550000  -50.441085      1784.0533      1733.6122      294.68878     -1.5410036      0.10193716   
   4560000  -36.473471      1787.4672      1750.9937      295.25269      0.71140844     0.10193716   
   4570000   28.799947      1828.5848      1857.3847      302.04446     -0.92571559     0.10193716   
   4580000   31.831527      1769.2985      1801.1301      292.2516      -0.68919353     0.10193716   
   4590000  -23.912962      1812.3815      1788.4685      299.36801      0.12013959     0.10193716   
   4600000  -90.024907      1829.0492      1739.0243      302.12117      0.43547868     0.10193716   
   4610000  -65.420761      1830.3379      1764.9172      302.33404     -1.0061081      0.10193716   
   4620000  -59.061464      1799.6948      1740.6334      297.27244      1.850859       0.10193716   
   4630000  -95.546786      1801.4911      1705.9443      297.56915      1.7404687      0.10193716   
   4640000  -73.772485      1810.1876      1736.4151      299.00563     -1.8696408      0.10193716   
   4650000  -43.717457      1753.3935      1709.676       289.62441     -2.1079931      0.10193716   
   4660000  -21.87554       1805.8787      1784.0032      298.29389     -0.076989026    0.10193716   
   4670000  -78.433901      1749.6232      1671.1893      289.00164      0.55157373     0.10193716   
   4680000  -35.907742      1774.6993      1738.7916      293.14369     -0.31109206     0.10193716   
   4690000  -33.841785      1810.7081      1776.8663      299.09159     -1.1553946      0.10193716   
   4700000  -136.97966      1840.1981      1703.2185      303.96275      0.69268365     0.10193716   
   4710000  -86.936036      1833.6974      1746.7614      302.88896     -1.8168021      0.10193716   
   4720000  -60.553217      1790.9786      1730.4253      295.83269      1.9451336      0.10193716   
   4730000  -48.572359      1843.876       1795.3036      304.57026      0.83922106     0.10193716   
   4740000  -104.68865      1846.5251      1741.8365      305.00784      2.1297332      0.10193716   
   4750000  -28.202358      1802.3022      1774.0999      297.70313     -1.5960285      0.10193716   
   4760000  -116.77905      1823.1788      1706.3997      301.1515       1.5320083      0.10193716   
   4770000  -81.723925      1819.866       1738.1421      300.60431     -1.6241346      0.10193716   
   4780000  -104.42658      1805.7663      1701.3397      298.27532     -2.101481       0.10193716   
   4790000  -80.149818      1847.611       1767.4611      305.18719     -3.514092       0.10193716   
   4800000  -115.68329      1876.0248      1760.3415      309.88058      5.4750131      0.10193716   
   4810000  -155.66982      1809.079       1653.4092      298.82252      0.25079807     0.10193716   
   4820000  -151.79836      1772.3282      1620.5298      292.75203     -2.0375272      0.10193716   
   4830000  -108.65492      1840.899       1732.244       304.07851     -0.13665361     0.10193716   
   4840000  -161.75329      1815.1783      1653.425       299.82999      1.531691       0.10193716   
   4850000  -147.609        1808.5204      1660.9114      298.73024     -1.369116       0.10193716   
   4860000  -197.75233      1835.1676      1637.4153      303.13181      2.7216033      0.10193716   
   4870000  -123.80097      1839.7524      1715.9515      303.88913     -1.2645576      0.10193716   
   4880000  -98.964838      1843.2329      1744.2681      304.46403      1.4787061      0.10193716   
   4890000  -105.91727      1794.6532      1688.7359      296.43966      1.0684408      0.10193716   
   4900000  -173.63791      1768.2894      1594.6515      292.0849       0.16759622     0.10193716   
   4910000  -141.79414      1789.7462      1647.952       295.62912     -1.745229       0.10193716   
   4920000  -48.071701      1877.6679      1829.5962      310.15198      1.3442588      0.10193716   
   4930000  -129.74932      1811.6345      1681.8852      299.24462      1.6276519      0.10193716   
   4940000  -154.64888      1823.0782      1668.4293      301.13489     -0.2407241      0.10193716   
   4950000  -103.37234      1800.2258      1696.8534      297.36014      0.051287968    0.10193716   
   4960000  -98.175273      1864.0476      1765.8723      307.90218     -1.5277506      0.10193716   
   4970000  -167.89673      1857.6937      1689.797       306.85266      2.9165845      0.10193716   
   4980000  -121.81417      1745.1629      1623.3488      288.2649       2.7472814      0.10193716   
   4990000  -134.21137      1861.3279      1727.1165      307.45294      1.0012045      0.10193716   
   5000000  -180.05251      1804.0422      1623.9897      297.99054      1.1094166      0.10193716   
Loop time of 1772.3 on 8 procs for 5000000 steps with 2032 atoms

Performance: 2437.513 ns/day, 0.010 hours/ns, 2821.195 timesteps/s, 5.733 Matom-step/s
99.7% CPU use with 8 MPI tasks x 1 OpenMP threads

MPI task timing breakdown:
Section |  min time  |  avg time  |  max time  |%varavg| %total
---------------------------------------------------------------
Pair    | 953.48     | 1059.6     | 1172.1     | 277.3 | 59.79
Bond    | 71.673     | 75.957     | 80.985     |  34.2 |  4.29
Neigh   | 4.846      | 4.8636     | 4.8748     |   0.4 |  0.27
Comm    | 473.89     | 593.99     | 706.75     | 385.7 | 33.52
Output  | 0.08787    | 0.10088    | 0.1646     |   7.6 |  0.01
Modify  | 30.622     | 33.165     | 35.874     |  33.3 |  1.87
Other   |            | 4.652      |            |       |  0.26

Nlocal:            254 ave         280 max         231 min
Histogram: 3 0 0 0 1 0 1 2 0 1
Nghost:        836.375 ave         872 max         791 min
Histogram: 1 0 0 1 1 2 0 2 0 1
Neighs:        2232.12 ave        2604 max        1859 min
Histogram: 2 0 0 1 0 1 2 1 0 1

Total # of neighbors = 17857
Ave neighs/atom = 8.7878937
Ave special neighs/atom = 4.8129921
Neighbor list builds = 11420
Dangerous builds = 0

# ===============================
# 4. PRODUCTION
# ===============================
# Reset averages for production
unfix favg
fix favg all ave/time 10000 10 100000 v_vpe v_vke v_vT v_vE v_vRg     file outputs/thermo_${tag}_production.dat
fix favg all ave/time 10000 10 100000 v_vpe v_vke v_vT v_vE v_vRg     file outputs/thermo_200ASO_unmod_production.dat

restart 10000000 outputs/backup_${tag}.*.restart
restart 10000000 outputs/backup_200ASO_unmod.*.restart
run 100000000
Generated 0 of 6 mixed pair_coeff terms from geometric mixing rule
Per MPI rank memory allocation (min/avg/max) = 8.612 | 8.646 | 8.883 Mbytes
   Step         PotEng         KinEng         TotEng          Temp          Press         Density    
   5000000  -180.05251      1804.0422      1623.9897      297.99054      1.1094166      0.10193716   
   5010000  -111.53411      1752.5501      1641.016       289.4851       2.7936394      0.10193716   
   5020000  -129.96887      1786.1755      1656.2066      295.03932      0.28717756     0.10193716   
   5030000  -17.007404      1759.49        1742.4826      290.63143      5.3902287      0.10193716   
   5040000  -60.688651      1842.6355      1781.9468      304.36535      1.0363349      0.10193716   
   5050000  -45.645799      1806.8192      1761.1734      298.44924      0.34170893     0.10193716   
   5060000  -40.446206      1849.7895      1809.3433      305.54704     -4.3006067      0.10193716   
   5070000  -79.367377      1812.7746      1733.4072      299.43294      3.3151184      0.10193716   
   5080000   78.336433      1837.2645      1915.6009      303.47817      2.1428227      0.10193716   
   5090000  -119.72773      1811.6945      1691.9668      299.25454     -1.8210725      0.10193716   
   5100000  -60.15629       1800.4179      1740.2616      297.39187      1.8133262      0.10193716   
   5110000  -115.07426      1818.9654      1703.8911      300.45553      1.9049622      0.10193716   
   5120000  -25.070797      1748.9405      1723.8697      288.88887      1.3606333      0.10193716   
   5130000  -55.294057      1799.9041      1744.6101      297.30701     -0.6495852      0.10193716   
   5140000  -136.62509      1827.8353      1691.2102      301.92066     -2.2176338      0.10193716   
   5150000  -111.0949       1839.3054      1728.2105      303.81528      4.196626       0.10193716   
   5160000  -124.02638      1815.2962      1691.2699      299.84947     -1.7645559      0.10193716   
   5170000  -147.74154      1827.1093      1679.3678      301.80074      2.8866953      0.10193716   
   5180000  -188.54325      1830.5304      1641.9872      302.36584      2.7441324      0.10193716   
   5190000  -143.06604      1786.5146      1643.4486      295.09534      3.2384759      0.10193716   
   5200000  -94.995393      1777.2461      1682.2507      293.56437     -0.028898353    0.10193716   
   5210000  -63.541219      1750.5376      1686.9964      289.15268      1.0098255      0.10193716   
   5220000  -124.89908      1849.7877      1724.8886      305.54675      2.5569509      0.10193716   
   5230000  -199.79909      1817.9238      1618.1248      300.28349     -0.53620081     0.10193716   
   5240000  -151.79782      1789.2421      1637.4443      295.54586     -0.81633059     0.10193716   
   5250000  -128.4247       1802.7893      1674.3646      297.78358      4.2366056      0.10193716   
   5260000  -172.78265      1804.1747      1631.3921      298.01242      2.1969038      0.10193716   
   5270000  -114.72092      1849.8829      1735.1619      305.56247     -2.0871         0.10193716   
   5280000  -148.22966      1829.0735      1680.8438      302.12518     -1.8077069      0.10193716   
   5290000  -111.17061      1804.2086      1693.038       298.01801      1.9177678      0.10193716   
   5300000  -23.070884      1832.1868      1809.1159      302.63943     -3.7208704      0.10193716   
   5310000  -71.253592      1778.5259      1707.2723      293.77577      1.634099       0.10193716   
   5320000  -3.3014067      1833.0876      1829.7862      302.78824     -3.4487858      0.10193716   
   5330000   25.723958      1821.9368      1847.6608      300.94636      2.6406092      0.10193716   
   5340000  -20.279904      1850.8896      1830.6097      305.72876     -0.99061666     0.10193716   
   5350000  -70.740419      1863.2211      1792.4807      307.76567     -0.82755694     0.10193716   
   5360000  -49.499495      1789.002       1739.5025      295.5062       0.22496532     0.10193716   
   5370000   49.942328      1829.6312      1879.5736      302.21731      2.1865561      0.10193716   
   5380000  -29.554713      1834.0166      1804.4619      302.94168      1.529131       0.10193716   
   5390000  -81.019614      1784.5283      1703.5087      294.76724     -0.24221237     0.10193716   
   5400000  -96.805628      1874.865       1778.0593      309.68899      1.6382994      0.10193716   
   5410000  -143.12946      1892.0551      1748.9257      312.52845      0.19712592     0.10193716   
   5420000  -105.44611      1869.9005      1764.4544      308.86896      2.0207545      0.10193716   
   5430000  -40.05371       1759.9036      1719.8499      290.69975     -1.5806764      0.10193716   
   5440000  -98.926833      1766.197       1667.2702      291.73929     -2.197992       0.10193716   
   5450000   18.717743      1816.4863      1835.2041      300.04604      2.9337697      0.10193716   
   5460000  -75.973612      1836.8074      1760.8338      303.40267      0.61628281     0.10193716   
   5470000  -144.80281      1790.0151      1645.2123      295.67355      4.9058086      0.10193716   
   5480000  -60.569942      1828.1296      1767.5597      301.96927      4.1118419      0.10193716   
   5490000  -3.8626605      1826.4666      1822.6039      301.69457      1.2555885      0.10193716   
   5500000  -81.235434      1828.1708      1746.9354      301.97609      2.8449674      0.10193716   
   5510000  -75.1738        1802.0616      1726.8878      297.66338      2.1751203      0.10193716   
   5520000  -85.866075      1879.5248      1793.6587      310.4587       3.8244958      0.10193716   
   5530000  -200.77133      1765.6634      1564.8921      291.65114      0.26097315     0.10193716   
   5540000  -32.377532      1792.5425      1760.165       296.09103     -4.4146805      0.10193716   
   5550000  -113.28888      1825.3709      1712.082       301.51359      5.5272857      0.10193716   
   5560000  -92.531278      1844.7064      1752.1751      304.70742      4.6762345      0.10193716   
   5570000  -170.81439      1829.9625      1659.1481      302.27204     -1.1089101      0.10193716   
   5580000  -36.159148      1799.8889      1763.7298      297.3045      -1.8171082      0.10193716   
   5590000  -139.99314      1862.0228      1722.0297      307.56774      2.0851896      0.10193716   
   5600000  -80.992417      1820.1788      1739.1864      300.65597      3.6176886      0.10193716   
   5610000  -164.03485      1866.4138      1702.3789      308.29303     -3.2427255      0.10193716   
   5620000  -103.86385      1778.4811      1674.6173      293.76837      2.4447437      0.10193716   
   5630000  -100.21392      1851.7477      1751.5338      305.8705       3.2079013      0.10193716   
   5640000  -18.013364      1851.0431      1833.0297      305.7541       0.32336864     0.10193716   
   5650000  -23.519702      1759.7123      1736.1926      290.66814     -0.0065178267   0.10193716   
   5660000  -41.457614      1830.9463      1789.4886      302.43453     -0.64003161     0.10193716   
   5670000  -84.398095      1788.2369      1703.8388      295.37982     -0.61387008     0.10193716   
   5680000  -110.38461      1824.8935      1714.5089      301.43474     -3.6257706      0.10193716   
   5690000  -103.21962      1812.9951      1709.7755      299.46936      3.5091023      0.10193716   
   5700000  -87.319428      1850.8534      1763.5339      305.72277      0.32670683     0.10193716   
   5710000  -147.15072      1835.2282      1688.0775      303.14182     -5.1160185      0.10193716   
   5720000  -142.2449       1793.1533      1650.9084      296.19192      4.2672776      0.10193716   
   5730000  -118.10553      1802.661       1684.5555      297.76238      2.2039297      0.10193716   
   5740000  -153.44799      1761.9726      1608.5246      291.0415       0.089578687    0.10193716   
   5750000  -205.74196      1888.0212      1682.2793      311.86214      4.0835587      0.10193716   
   5760000  -166.85314      1815.1953      1648.3422      299.8328       0.16696393     0.10193716   
   5770000  -102.11035      1872.0286      1769.9182      309.22048      1.6699182      0.10193716   
   5780000  -132.15524      1845.2285      1713.0733      304.79366      2.6911167      0.10193716   
   5790000  -92.869915      1875.6103      1782.7404      309.81211      3.682298       0.10193716   
   5800000  -117.64511      1746.0512      1628.4061      288.41162      2.1107463      0.10193716   
   5810000  -103.16474      1795.7966      1692.6318      296.62852     -0.34470094     0.10193716   
   5820000  -31.854562      1811.8458      1779.9912      299.27953      1.5950356      0.10193716   
   5830000  -106.47571      1794.803       1688.3273      296.46441     -0.11327644     0.10193716   
   5840000  -88.475828      1840.7387      1752.2629      304.05204      1.4402563      0.10193716   
   5850000  -90.383881      1819.7314      1729.3475      300.58206      1.2636097      0.10193716   
   5860000  -44.853969      1820.0505      1775.1965      300.63478      1.2050836      0.10193716   
   5870000  -95.078997      1802.3189      1707.2399      297.70588      0.46443269     0.10193716   
   5880000  -147.12854      1821.6322      1674.5036      300.89604     -1.2429269      0.10193716   
   5890000  -93.92387       1792.3024      1698.3786      296.05137      0.27008042     0.10193716   
   5900000  -34.313327      1808.2613      1773.948       298.68744     -2.1398023      0.10193716   
   5910000  -26.456225      1840.3127      1813.8564      303.98167     -3.6223842      0.10193716   
   5920000  -162.89347      1776.3377      1613.4442      293.41432      2.0600111      0.10193716   
   5930000  -141.90795      1784.9754      1643.0674      294.84109      3.7076317      0.10193716   
   5940000  -95.496107      1833.6645      1738.1684      302.88352     -0.6598311      0.10193716   
   5950000  -164.49442      1856.9564      1692.462       306.73087      2.0136516      0.10193716   
   5960000  -107.18485      1768.0024      1660.8175      292.0375       3.0054454      0.10193716   
   5970000  -51.022551      1777.8076      1726.7851      293.65712      0.96630283     0.10193716   
   5980000  -68.688142      1804.6582      1735.97        298.09228      3.8517124      0.10193716   
   5990000  -153.95873      1796.3767      1642.418       296.72436      4.1374081      0.10193716   
   6000000  -110.44385      1777.4016      1666.9577      293.59006      0.99059034     0.10193716   
   6010000  -99.523043      1847.2865      1747.7635      305.1336       3.7789836      0.10193716   
   6020000  -124.80703      1848.7755      1723.9685      305.37956     -1.968242       0.10193716   
   6030000  -40.833867      1812.9366      1772.1027      299.4597       5.7669846      0.10193716   
   6040000  -37.063482      1799.6242      1762.5608      297.26078     -0.5134277      0.10193716   
   6050000  -117.80394      1789.8204      1672.0164      295.64138     -0.84227645     0.10193716   
   6060000  -106.11575      1815.1368      1709.021       299.82313     -0.68373064     0.10193716   
   6070000  -112.49914      1870.9987      1758.4996      309.05037      0.45409986     0.10193716   
   6080000  -64.164034      1837.1176      1772.9535      303.4539       1.8621131      0.10193716   
   6090000  -104.3762       1809.2983      1704.9221      298.85874     -0.27052845     0.10193716   
   6100000  -51.899096      1842.5976      1790.6985      304.35908     -0.46475141     0.10193716   
   6110000  -58.414769      1827.5848      1769.17        301.87928      4.5185327      0.10193716   
   6120000  -95.310732      1835.4408      1740.1301      303.17694     -0.7283173      0.10193716   
   6130000  -125.85847      1822.2446      1696.3861      300.99719     -0.078859054    0.10193716   
   6140000  -74.496546      1834.9627      1760.4662      303.09797      0.64736455     0.10193716   
   6150000  -115.32122      1784.6872      1669.366       294.79349      2.0022666      0.10193716   
   6160000  -135.78718      1871.4101      1735.6229      309.11831     -3.0244261      0.10193716   
   6170000  -73.611484      1776.7514      1703.1399      293.48266     -1.2005578      0.10193716   
   6180000  -85.556918      1823.8467      1738.2898      301.26183      2.11223        0.10193716   
   6190000  -93.651004      1811.4386      1717.7876      299.21226      1.6625485      0.10193716   
   6200000  -104.57637      1843.4292      1738.8528      304.49644      2.5890735      0.10193716   
   6210000  -76.136142      1823.7681      1747.632       301.24885      2.2897919      0.10193716   
   6220000  -144.05448      1844.2255      1700.171       304.62799      0.72996062     0.10193716   
   6230000  -149.57821      1788.8459      1639.2677      295.48042      0.83396208     0.10193716   
   6240000  -123.77349      1729.8266      1606.0531      285.73165      3.8493153      0.10193716   
   6250000  -125.64302      1830.5803      1704.9373      302.37408      1.9050117      0.10193716   
   6260000  -125.78521      1805.9945      1680.2093      298.31301      1.0073386      0.10193716   
   6270000  -111.947        1819.8532      1707.9062      300.60219     -3.6808785      0.10193716   
   6280000  -209.22404      1887.3447      1678.1207      311.75039      2.1257733      0.10193716   
   6290000  -124.64024      1868.6597      1744.0195      308.66401     -1.0904597      0.10193716   
   6300000  -107.203        1815.6781      1708.4751      299.91254      3.4547504      0.10193716   
   6310000  -92.841478      1833.2049      1740.3634      302.8076      -0.47924893     0.10193716   
   6320000  -192.9558       1816.4962      1623.5404      300.04768     -1.5053143      0.10193716   
   6330000  -232.97779      1835.0896      1602.1118      303.11892     -0.8681307      0.10193716   
   6340000  -122.28947      1857.4444      1735.155       306.81148      1.4232052      0.10193716   
   6350000  -104.60948      1842.5845      1737.9751      304.35693     -1.281134       0.10193716   
   6360000  -147.34487      1833.5372      1686.1923      302.8625       3.5529853      0.10193716   
   6370000  -101.24605      1799.4096      1698.1636      297.22533      5.810851       0.10193716   
   6380000  -96.52433       1903.4405      1806.9161      314.40908     -0.55621121     0.10193716   
   6390000  -178.6712       1814.3635      1635.6923      299.6954       1.7233395      0.10193716   
   6400000  -160.55625      1780.7791      1620.2228      294.14795     -1.6318069      0.10193716   
   6410000  -194.07976      1817.8155      1623.7357      300.26559     -2.6982318      0.10193716   
   6420000  -178.77505      1789.6904      1610.9153      295.61991     -0.83824952     0.10193716   
   6430000  -182.06975      1806.5448      1624.4751      298.40391      1.0875993      0.10193716   
   6440000  -147.07591      1813.3824      1666.3065      299.53334      2.8900827      0.10193716   
   6450000  -143.20627      1798.6855      1655.4792      297.10571      0.38126007     0.10193716   
   6460000  -142.76055      1783.5507      1640.7902      294.60576      0.049237946    0.10193716   
   6470000  -192.27789      1860.0126      1667.7347      307.23569      2.2811389      0.10193716   
   6480000  -155.46047      1792.5383      1637.0778      296.09032     -0.020867903    0.10193716   
   6490000  -157.45168      1785.4268      1627.9751      294.91565      0.93700432     0.10193716   
   6500000  -124.88378      1828.6977      1703.814       302.06312      2.7587506      0.10193716   
   6510000  -65.113099      1786.646       1721.5329      295.11704      2.091479       0.10193716   
   6520000  -149.906        1826.5382      1676.6322      301.7064       2.6247431      0.10193716   
   6530000  -139.63308      1792.8148      1653.1817      296.13599     -0.64697002     0.10193716   
   6540000  -163.5285       1822.0008      1658.4723      300.95692     -0.15289755     0.10193716   
   6550000  -113.05317      1790.1773      1677.1241      295.70033      5.5683319      0.10193716   
   6560000  -127.93726      1839.3643      1711.4271      303.82502      0.14172239     0.10193716   
   6570000  -155.24378      1780.5148      1625.2711      294.1043       0.38350937     0.10193716   
   6580000  -58.397863      1819.2459      1760.848       300.50187     -1.3553058      0.10193716   
   6590000  -133.83922      1846.5097      1712.6705      305.00529     -1.0413258      0.10193716   
   6600000  -156.64706      1869.9755      1713.3284      308.88135      0.77016644     0.10193716   
   6610000  -64.084617      1879.5532      1815.4686      310.46339     -1.9631381      0.10193716   
   6620000  -154.24591      1861.8647      1707.6188      307.54162     -2.554064       0.10193716   
   6630000  -102.6367       1828.3035      1725.6668      301.998        0.9441366      0.10193716   
   6640000  -158.91543      1794.4776      1635.5622      296.41066      2.7764985      0.10193716   
   6650000  -189.00536      1867.9337      1678.9283      308.54409      0.87027176     0.10193716   
   6660000  -211.13095      1806.5858      1595.4548      298.41068      2.3532338      0.10193716   
   6670000  -186.37121      1830.9604      1644.5892      302.43686     -0.46724988     0.10193716   
   6680000  -139.20316      1830.8355      1691.6323      302.41623      1.8571307      0.10193716   
   6690000  -103.36063      1805.621       1702.2604      298.25132      0.29703658     0.10193716   
   6700000  -121.00762      1855.937       1734.9294      306.56249      6.4947785      0.10193716   
   6710000  -138.95234      1793.9848      1655.0324      296.32925      0.24700176     0.10193716   
   6720000  -133.16447      1778.4225      1645.2581      293.75869     -5.2764002      0.10193716   
   6730000  -146.1523       1798.327       1652.1747      297.0465       0.91901778     0.10193716   
   6740000  -117.74436      1823.1867      1705.4423      301.1528       1.3673037      0.10193716   
   6750000  -166.79738      1825.217       1658.4196      301.48817     -0.56827718     0.10193716   
   6760000  -138.67412      1806.0078      1667.3337      298.31521     -0.3600643      0.10193716   
   6770000  -181.01535      1799.12        1618.1046      297.17748     -0.71371879     0.10193716   
   6780000  -106.4806       1798.0657      1691.5851      297.00333      2.1579453      0.10193716   
   6790000  -167.86503      1793.5458      1625.6808      296.25675      1.9472999      0.10193716   
   6800000  -171.98091      1886.0205      1714.0396      311.53165      1.1904237      0.10193716   
   6810000  -193.94333      1818.6269      1624.6836      300.39963      4.1022448      0.10193716   
   6820000  -211.65397      1773.4585      1561.8045      292.93873      1.8200291      0.10193716   
   6830000  -186.78582      1813.5985      1626.8127      299.56903     -2.2346022      0.10193716   
   6840000  -188.08429      1848.4807      1660.3964      305.33085     -0.12966684     0.10193716   
   6850000  -195.20455      1758.8047      1563.6002      290.51824      2.1790537      0.10193716   
   6860000  -110.00375      1850.7178      1740.7141      305.70039      3.2215443      0.10193716   
   6870000  -151.50927      1799.461       1647.9518      297.23382     -0.33170462     0.10193716   
   6880000  -152.57871      1842.2061      1689.6274      304.29442     -0.52433773     0.10193716   
   6890000  -120.78881      1823.1413      1702.3525      301.14531     -1.3879044      0.10193716   
   6900000  -55.267599      1862.4957      1807.2281      307.64584     -5.8015137      0.10193716   
   6910000  -152.54044      1788.4011      1635.8607      295.40695     -0.39963351     0.10193716   
   6920000  -164.26006      1728.7055      1564.4454      285.54646     -0.37578327     0.10193716   
   6930000  -82.459155      1819.2122      1736.753       300.4963      -2.4649978      0.10193716   
   6940000  -144.70241      1737.2572      1592.5548      286.95903     -0.37267061     0.10193716   
   6950000  -177.81002      1899.1377      1721.3276      313.69834      0.25380356     0.10193716   
   6960000  -152.00074      1838.3319      1686.3312      303.65448     -2.9682859      0.10193716   
   6970000  -147.84566      1789.4195      1641.5739      295.57517      1.2500112      0.10193716   
   6980000  -49.217996      1839.3252      1790.1072      303.81855     -1.7027226      0.10193716   
   6990000  -103.08231      1782.8206      1679.7383      294.48516     -4.510699       0.10193716   
   7000000  -67.102201      1832.2415      1765.1393      302.64848     -0.46265615     0.10193716   
   7010000  -157.36415      1792.0526      1634.6885      296.0101       2.8427676      0.10193716   
[...]
 103190000  -160.86162      1870.3112      1709.4496      308.93681      3.9632944      0.10193716   
 103200000  -210.74477      1866.4224      1655.6777      308.29446     -3.599212       0.10193716   
 103210000  -128.44533      1808.6691      1680.2238      298.7548       0.96609795     0.10193716   
 103220000  -138.47989      1843.9989      1705.519       304.59056      0.32457662     0.10193716   
 103230000  -115.38429      1800.5815      1685.1972      297.4189       1.1715903      0.10193716   
 103240000  -164.54134      1794.0493      1629.5079      296.33991     -0.29978198     0.10193716   
 103250000  -126.98303      1773.3874      1646.4044      292.92699      1.9553585      0.10193716   
 103260000  -154.55395      1767.8025      1613.2485      292.00448     -3.6856616      0.10193716   
 103270000  -100.88947      1762.4475      1661.558       291.11994      1.3853526      0.10193716   
 103280000  -119.23384      1783.0986      1663.8648      294.53108      1.3942958      0.10193716   
 103290000  -98.319585      1801.3383      1703.0187      297.54391      0.31211858     0.10193716   
 103300000  -113.65982      1820.1519      1706.4921      300.65153      1.8285344      0.10193716   
 103310000  -80.195432      1851.0552      1770.8598      305.75612      0.19446772     0.10193716   
 103320000  -44.261455      1822.3242      1778.0627      301.01034     -3.9303212      0.10193716   
 103330000  -78.519117      1792.5496      1714.0305      296.0922       3.2433922      0.10193716   
 103340000  -21.743062      1766.1437      1744.4007      291.73049      1.0489262      0.10193716   
 103350000  -56.310787      1793.4136      1737.1028      296.23491      1.7409681      0.10193716   
 103360000  -69.445519      1875.6979      1806.2524      309.82658     -0.4079122      0.10193716   
 103370000  -107.37627      1828.2669      1720.8906      301.99195     -1.02505        0.10193716   
 103380000  -66.398434      1800.087       1733.6886      297.33722     -0.79621925     0.10193716   
 103390000  -108.98224      1789.0279      1680.0457      295.51049      5.3536071      0.10193716   
 103400000  -175.37439      1825.2525      1649.8781      301.49403     -0.080964493    0.10193716   
 103410000  -74.054208      1788.97        1714.9158      295.50092     -0.29202114     0.10193716   
 103420000  -118.49938      1879.6395      1761.1401      310.47764     -0.5062623      0.10193716   
 103430000  -197.32942      1806.2832      1608.9538      298.36071      1.9797875      0.10193716   
 103440000  -89.399882      1808.1404      1718.7405      298.66747     -0.85790059     0.10193716   
 103450000  -61.17472       1859.0647      1797.8899      307.07911      0.45219706     0.10193716   
 103460000  -57.09041       1800.4554      1743.365       297.39807      0.81071578     0.10193716   
 103470000  -60.998228      1879.2774      1818.2792      310.41784      0.43688358     0.10193716   
 103480000  -27.751641      1815.4141      1787.6625      299.86894      0.76668091     0.10193716   
 103490000  -107.88104      1821.4924      1713.6114      300.87295      3.0827422      0.10193716   
 103500000  -70.608877      1800.0013      1729.3924      297.32305      3.5767208      0.10193716   
 103510000  -78.815523      1868.0778      1789.2623      308.56789     -2.7151826      0.10193716   
 103520000  -11.256583      1859.304       1848.0474      307.11864     -1.2219838      0.10193716   
 103530000  -119.40346      1861.7063      1742.3028      307.51545      1.795989       0.10193716   
 103540000  -147.5367       1859.1455      1711.6088      307.09246     -1.1223593      0.10193716   
 103550000  -98.659147      1793.3812      1694.722       296.22955      1.6370783      0.10193716   
 103560000  -158.75832      1814.9336      1656.1753      299.78957      3.2340019      0.10193716   
 103570000  -92.711633      1887.4771      1794.7655      311.77226      1.4351487      0.10193716   
 103580000  -135.72287      1799.0241      1663.3012      297.16164      1.7882296      0.10193716   
 103590000  -76.980346      1845.8232      1768.8428      304.89189      0.46215998     0.10193716   
 103600000  -142.75495      1831.0483      1688.2933      302.45138      5.2465165      0.10193716   
 103610000  -99.506125      1845.9415      1746.4354      304.91143     -0.53515893     0.10193716   
 103620000  -82.025287      1752.0237      1669.9984      289.39815     -1.3175979      0.10193716   
 103630000  -221.11747      1841.8491      1620.7317      304.23546      0.85411043     0.10193716   
 103640000  -59.210123      1866.3413      1807.1312      308.28106     -3.7649542      0.10193716   
 103650000  -90.904043      1817.5273      1726.6233      300.218        5.1347602      0.10193716   
 103660000  -101.40917      1864.4365      1763.0274      307.96643      1.4220119      0.10193716   
 103670000  -101.71059      1795.8806      1694.17        296.6424       3.4006973      0.10193716   
 103680000  -59.44559       1784.0434      1724.5978      294.68714     -3.674605       0.10193716   
 103690000  -93.414002      1853.0805      1759.6665      306.09065      0.74361644     0.10193716   
 103700000  -106.95114      1752.3405      1645.3894      289.45049      3.6456543      0.10193716   
 103710000  -120.47842      1823.2504      1702.772       301.16333     -0.80581107     0.10193716   
 103720000  -112.89929      1795.5929      1682.6936      296.59488      2.2643237      0.10193716   
 103730000  -157.1498       1813.5897      1656.4399      299.56759     -0.070418946    0.10193716   
 103740000  -138.69213      1885.7599      1747.0677      311.48861      2.6001794      0.10193716   
 103750000  -109.53248      1818.1605      1708.628       300.32258     -0.47212652     0.10193716   
 103760000  -76.836276      1827.552       1750.7157      301.87387     -0.99988691     0.10193716   
 103770000  -133.17615      1835.2592      1702.083       303.14693     -0.5259476      0.10193716   
 103780000  -152.54739      1754.8312      1602.2838      289.86189      5.6500254      0.10193716   
 103790000  -122.45341      1793.6358      1671.1824      296.27161      3.4175521      0.10193716   
 103800000  -207.69447      1815.8416      1608.1472      299.93955     -0.5850751      0.10193716   
 103810000  -114.66955      1810.5656      1695.896       299.06806     -1.7969402      0.10193716   
 103820000  -140.57251      1794.8813      1654.3088      296.47733      0.98568518     0.10193716   
 103830000  -140.93305      1814.4009      1673.4679      299.70158      0.83016205     0.10193716   
 103840000  -139.27186      1779.3437      1640.0718      293.91085      2.3186841      0.10193716   
 103850000  -135.73697      1805.3519      1669.615       298.20687     -0.88554831     0.10193716   
 103860000  -203.14926      1799.4329      1596.2836      297.22917      0.69198837     0.10193716   
 103870000  -164.63905      1777.0992      1612.4602      293.54011      0.47738021     0.10193716   
 103880000  -173.96186      1831.81        1657.8481      302.57719      0.14694196     0.10193716   
 103890000  -154.68797      1776.2418      1621.5538      293.39848      1.4101921      0.10193716   
 103900000  -156.82052      1788.518       1631.6975      295.42625      2.2678195      0.10193716   
 103910000  -157.7758       1812.2868      1654.511       299.35237     -2.3151926      0.10193716   
 103920000  -179.26999      1767.9237      1588.6537      292.02451     -2.8036017      0.10193716   
 103930000  -100.56267      1785.8822      1685.3196      294.99088     -1.8244061      0.10193716   
 103940000  -171.33007      1784.6455      1613.3154      294.7866       0.53707888     0.10193716   
 103950000  -110.60551      1759.2196      1648.6141      290.58677      1.9347903      0.10193716   
 103960000  -107.70446      1850.5403      1742.8358      305.67105      1.0667982      0.10193716   
 103970000  -194.19127      1895.5938      1701.4026      313.11297     -1.5507183      0.10193716   
 103980000  -200.60773      1843.0291      1642.4214      304.43037      2.6387469      0.10193716   
 103990000  -171.71769      1833.8453      1662.1276      302.91338      2.1204909      0.10193716   
 104000000  -127.50151      1765.1695      1637.668       291.56956      2.2315919      0.10193716   
 104010000  -146.20211      1844.3641      1698.162       304.65088      2.737633       0.10193716   
 104020000  -150.2302       1781.0512      1630.821       294.19289      0.33292064     0.10193716   
 104030000  -191.44527      1883.3574      1691.9121      311.09177     -1.5591032      0.10193716   
 104040000  -157.00437      1831.5149      1674.5105      302.52845     -0.40492194     0.10193716   
 104050000  -181.61142      1883.8941      1702.2827      311.18043     -0.89126534     0.10193716   
 104060000  -239.44089      1828.5314      1589.0905      302.03564      2.8191044      0.10193716   
 104070000  -137.81658      1835.5914      1697.7748      303.2018      -1.6680637      0.10193716   
 104080000  -224.48626      1756.126       1531.6398      290.07577     -0.53875713     0.10193716   
 104090000  -218.84653      1866.5395      1647.693       308.3138       0.30632163     0.10193716   
 104100000  -179.356        1818.8617      1639.5057      300.43842      1.736951       0.10193716   
 104110000  -178.46153      1801.3917      1622.9302      297.55273     -2.9787641      0.10193716   
 104120000  -171.38166      1809.0379      1637.6562      298.81571     -1.0998052      0.10193716   
 104130000  -172.02822      1779.3482      1607.32        293.91159      4.6344768      0.10193716   
 104140000  -205.68148      1847.7822      1642.1008      305.21548     -0.76527022     0.10193716   
 104150000  -132.36646      1828.2886      1695.9221      301.99554      1.992681       0.10193716   
 104160000  -165.17919      1825.5079      1660.3287      301.53623     -0.93193941     0.10193716   
 104170000  -133.7637       1843.0028      1709.2391      304.42602      3.1926172      0.10193716   
 104180000  -96.806362      1775.3423      1678.5359      293.2499      -0.51303922     0.10193716   
 104190000  -111.30713      1845.9844      1734.6772      304.91851      1.2368036      0.10193716   
 104200000  -116.65764      1795.7686      1679.1109      296.6239      -0.40979626     0.10193716   
 104210000  -130.89491      1788.3127      1657.4177      295.39234      0.44072956     0.10193716   
 104220000  -105.74561      1782.6642      1676.9186      294.45933      2.1612441      0.10193716   
 104230000  -44.821661      1841.5053      1796.6836      304.17867      0.6544971      0.10193716   
 104240000  -91.369433      1752.3173      1660.9479      289.44665      3.959771       0.10193716   
 104250000  -134.13072      1842.2696      1708.1389      304.30491     -0.49137322     0.10193716   
 104260000  -111.28083      1829.2891      1718.0083      302.16081      4.316188       0.10193716   
 104270000  -46.633326      1839.5037      1792.8703      303.84803      5.1809968      0.10193716   
 104280000  -104.46086      1806.8792      1702.4184      298.45915      2.017561       0.10193716   
 104290000  -90.33847       1796.2604      1705.9219      296.70513      4.7310975      0.10193716   
 104300000  -73.682905      1804.1388      1730.4559      298.00649      1.2758785      0.10193716   
 104310000  -161.67975      1848.2364      1686.5566      305.2905       1.6753317      0.10193716   
 104320000  -97.565496      1797.889       1700.3235      296.97415     -1.2264258      0.10193716   
 104330000  -62.999159      1796.4501      1733.451       296.73648      1.3889079      0.10193716   
 104340000   9.1282799      1750.049       1759.1773      289.07197      0.3063449      0.10193716   
 104350000  -137.33189      1772.935       1635.6031      292.85227     -0.41527832     0.10193716   
 104360000  -98.223637      1805.0666      1706.8429      298.15974     -1.8150418      0.10193716   
 104370000  -134.0964       1798.8655      1664.7691      297.13545      5.1632783      0.10193716   
 104380000  -88.657117      1784.7696      1696.1125      294.80709     -0.7871933      0.10193716   
 104390000  -152.38395      1789.374       1636.99        295.56765     -0.27538494     0.10193716   
 104400000  -220.26121      1833.4771      1613.2159      302.85257     -0.72517048     0.10193716   
 104410000  -144.12659      1816.4256      1672.299       300.03601     -2.0856665      0.10193716   
 104420000  -137.55836      1836.0664      1698.5081      303.28028      0.12131656     0.10193716   
 104430000  -187.09735      1878.087       1690.9897      310.22121      2.7331257      0.10193716   
 104440000  -145.49127      1821.9961      1676.5048      300.95614     -2.6633512      0.10193716   
 104450000  -143.735        1877.3762      1733.6412      310.1038      -3.5748237      0.10193716   
 104460000  -136.95528      1789.0709      1652.1156      295.51759     -0.65856587     0.10193716   
 104470000  -172.52868      1850.0329      1677.5042      305.58725      0.042634126    0.10193716   
 104480000  -115.47881      1837.322       1721.8432      303.48767      3.8320596      0.10193716   
 104490000  -178.40198      1782.8874      1604.4854      294.49619      1.6015667      0.10193716   
 104500000  -130.40946      1769.1666      1638.7572      292.22981      4.1721797      0.10193716   
 104510000  -191.10822      1824.4751      1633.3669      301.36563      1.8031158      0.10193716   
 104520000  -126.85067      1813.975       1687.1244      299.63123      1.4121904      0.10193716   
 104530000  -129.26216      1846.7559      1717.4937      305.04595      1.5497929      0.10193716   
 104540000  -114.7756       1826.8628      1712.0872      301.76003      2.5882348      0.10193716   
 104550000  -80.906181      1825.2738      1744.3676      301.49756     -1.7253357      0.10193716   
 104560000  -134.31326      1837.1952      1702.8819      303.46673      2.9884562      0.10193716   
 104570000  -71.091971      1838.4299      1767.3379      303.67066      1.3297553      0.10193716   
 104580000  -131.88238      1841.9732      1710.0908      304.25595      6.0222833      0.10193716   
 104590000  -113.93916      1859.8666      1745.9275      307.21158     -2.2019609      0.10193716   
 104600000  -149.99466      1844.8139      1694.8193      304.72518      0.14412859     0.10193716   
 104610000  -195.6324       1832.5404      1636.908       302.69784      0.61569848     0.10193716   
 104620000  -167.63276      1832.2241      1664.5914      302.64561      5.9735309      0.10193716   
 104630000  -234.9358       1833.4044      1598.4686      302.84057     -0.60909798     0.10193716   
 104640000  -119.10632      1834.0857      1714.9794      302.95311      0.24359104     0.10193716   
 104650000  -207.78522      1864.1895      1656.4043      307.92562     -1.2696648      0.10193716   
 104660000  -188.5755       1820.6256      1632.0501      300.72977      0.041869588    0.10193716   
 104670000  -81.633254      1850.2421      1768.6089      305.6218       0.56253649     0.10193716   
 104680000  -210.12391      1802.6838      1592.5599      297.76616     -0.31699267     0.10193716   
 104690000  -137.80895      1822.5365      1684.7275      301.04541     -0.79479794     0.10193716   
 104700000  -117.14116      1857.0124      1739.8713      306.74012     -1.7350905      0.10193716   
 104710000  -228.01704      1843.7364      1615.7193      304.54719      0.082482183    0.10193716   
 104720000  -187.70675      1818.1226      1630.4158      300.31632      1.3257009      0.10193716   
 104730000  -191.83859      1794.7365      1602.8979      296.45343      2.6424944      0.10193716   
 104740000  -167.69775      1842.8037      1675.106       304.39314     -1.7157376      0.10193716   
 104750000  -165.95078      1818.4213      1652.4705      300.36566      1.5692211      0.10193716   
 104760000  -92.498961      1806.2442      1713.7452      298.35425      1.1125421      0.10193716   
 104770000  -153.37452      1794.0641      1640.6896      296.34236      0.14658183     0.10193716   
 104780000  -238.84329      1836.0118      1597.1685      303.27125      0.29027674     0.10193716   
 104790000  -119.43602      1786.7369      1667.3009      295.13206      0.66509021     0.10193716   
 104800000  -122.11413      1825.427       1703.3128      301.52286     -1.6972411      0.10193716   
 104810000  -179.82271      1779.4256      1599.6029      293.92438     -0.50595899     0.10193716   
 104820000  -85.646182      1788.953       1703.3068      295.49811      2.7321998      0.10193716   
 104830000  -102.41855      1826.3234      1723.9049      301.67093      4.5733442      0.10193716   
 104840000  -102.00216      1841.3467      1739.3446      304.15247     -1.260912       0.10193716   
 104850000  -35.087155      1759.1403      1724.0531      290.57366      4.2650369      0.10193716   
 104860000  -47.24541       1785.6531      1738.4077      294.95304     -0.88134908     0.10193716   
 104870000  -148.70712      1872.2616      1723.5545      309.25898      3.2861275      0.10193716   
 104880000  -80.848531      1777.4831      1696.6346      293.60352      0.56253201     0.10193716   
 104890000  -29.571363      1829.4181      1799.8467      302.18211      0.90434736     0.10193716   
 104900000  -126.73292      1813.6172      1686.8843      299.57212     -3.8528093      0.10193716   
 104910000  -137.21202      1817.6602      1680.4481      300.23994     -1.7558002      0.10193716   
 104920000  -116.64726      1858.1192      1741.4719      306.92294      2.0930923      0.10193716   
 104930000  -64.566698      1834.0672      1769.5005      302.95004      3.6323258      0.10193716   
 104940000  -24.941417      1769.5097      1744.5683      292.28648      2.7684696      0.10193716   
 104950000  -46.82042       1756.6745      1709.854       290.16636     -0.75786716     0.10193716   
 104960000  -68.040845      1778.2557      1710.2149      293.73114      7.0623548      0.10193716   
 104970000  -31.165366      1840.2978      1809.1324      303.97921      0.91974216     0.10193716   
 104980000  -138.80986      1795.2445      1656.4347      296.53734      0.65464749     0.10193716   
 104990000  -5.1137224      1810.7179      1805.6041      299.09321      0.60878605     0.10193716   
 105000000  -39.579984      1812.3393      1772.7593      299.36104      1.460287       0.10193716   
Loop time of 33918.4 on 8 procs for 100000000 steps with 2032 atoms

Performance: 2547.289 ns/day, 0.009 hours/ns, 2948.252 timesteps/s, 5.991 Matom-step/s
99.7% CPU use with 8 MPI tasks x 1 OpenMP threads

MPI task timing breakdown:
Section |  min time  |  avg time  |  max time  |%varavg| %total
---------------------------------------------------------------
Pair    | 20225      | 20877      | 21943      | 368.8 | 61.55
Bond    | 1686.5     | 1765.9     | 1847.1     | 109.2 |  5.21
Neigh   | 90.466     | 90.525     | 90.576     |   0.3 |  0.27
Comm    | 9272.6     | 10459      | 11148      | 573.5 | 30.84
Output  | 1.8988     | 2.2061     | 3.6672     |  37.4 |  0.01
Modify  | 614.43     | 637.14     | 680.44     |  81.8 |  1.88
Other   |            | 86.34      |            |       |  0.25

Nlocal:            254 ave         318 max         193 min
Histogram: 2 0 0 2 0 0 1 1 1 1
Nghost:            786 ave         847 max         717 min
Histogram: 1 1 0 1 1 1 1 0 0 2
Neighs:        2084.25 ave        3137 max        1263 min
Histogram: 1 2 1 0 1 0 0 2 0 1

Total # of neighbors = 16674
Ave neighs/atom = 8.2057087
Ave special neighs/atom = 4.8129921
Neighbor list builds = 227702
Dangerous builds = 0

write_data outputs/${tag}_final.data
write_data outputs/200ASO_unmod_final.data
System init for write_data ...
Generated 0 of 6 mixed pair_coeff terms from geometric mixing rule
Total wall time: 9:54:51
