
# ===============================
# FORCE FIELD (same as original)
# ===============================
bond_style harmonic
bond_coeff 1 7.5 5.9

angle_style harmonic
angle_coeff 1 5.0 150.0

pair_style hybrid/overlay lj/cut 10.0 base/rna 18.0
pair_modify shift yes
pair_coeff * * lj/cut 2.0 8.9089871814

pair_coeff 1 1 base/rna 0.00000 3.0 13.8 1.5 0.5 1.8326 0.9425 1.8326 1.1345
pair_coeff 1 2 base/rna 0.00000 3.0 13.8 1.5 0.5 1.8326 0.9425 1.8326 1.1345
pair_coeff 1 3 base/rna 0.00000 3.0 13.8 1.5 0.5 1.8326 0.9425 1.8326 1.1345
pair_coeff 1 4 base/rna 3.33333 3.0 13.8 1.5 0.5 1.8326 0.9425 1.8326 1.1345
pair_coeff 2 2 base/rna 0.00000 3.0 13.8 1.5 0.5 1.8326 0.9425 1.8326 1.1345
pair_coeff 2 3 base/rna 5.00000 3.0 13.8 1.5 0.5 1.8326 0.9425 1.8326 1.1345
pair_coeff 2 4 base/rna 0.00000 3.0 13.8 1.5 0.5 1.8326 0.9425 1.8326 1.1345
pair_coeff 3 3 base/rna 0.00000 3.0 13.8 1.5 0.5 1.8326 0.9425 1.8326 1.1345
pair_coeff 3 4 base/rna 3.33333 3.0 13.8 1.5 0.5 1.8326 0.9425 1.8326 1.1345
pair_coeff 4 4 base/rna 0.00000 3.0 13.8 1.5 0.5 1.8326 0.9425 1.8326 1.1345

special_bonds lj 0.0 0.0 1.0
Finding 1-2 1-3 1-4 neighbors ...
  special bond factors lj:    0        0        1       
  special bond factors coul:  0        0        0       
     2 = max # of 1-2 neighbors
     2 = max # of 1-3 neighbors
     4 = max # of 1-4 neighbors
     6 = max # of special neighbors
  special bonds CPU = 0.000 seconds
neighbor 15.0 bin
neigh_modify every 10 delay 0
comm_style tiled
timestep 10

# ===============================
# 1. MINIMIZATION
# ===============================
minimize 1.0e-4 1.0e-6 1000 10000

CITE-CITE-CITE-CITE-CITE-CITE-CITE-CITE-CITE-CITE-CITE-CITE-CITE

Your simulation uses code contributions which should be cited:

- Type Label Framework: https://doi.org/10.1021/acs.jpcb.3c08419

@Article{Gissinger24,
 author = {Jacob R. Gissinger, Ilia Nikiforov, Yaser Afshar, Brendon Waters, Moon-ki Choi, Daniel S. Karls, Alexander Stukowski, Wonpil Im, Hendrik Heinz, Axel Kohlmeyer, and Ellad B. Tadmor},
 title = {Type Label Framework for Bonded Force Fields in LAMMPS},
 journal = {J. Phys. Chem. B},
 year =    2024,
 volume =  128,
 number =  13,
 pages =   {3282–-3297}
}

CITE-CITE-CITE-CITE-CITE-CITE-CITE-CITE-CITE-CITE-CITE-CITE-CITE

Switching to 'neigh_modify every 1 delay 0 check yes' setting during minimization
Generated 0 of 6 mixed pair_coeff terms from geometric mixing rule
Neighbor list info ...
  update: every = 1 steps, delay = 0 steps, check = yes
  max neighbors/atom: 2000, page size: 100000
  master list distance cutoff = 33
  ghost atom cutoff = 33
  binsize = 16.5, bins = 10 10 10
  2 neighbor lists, perpetual/occasional/extra = 2 0 0
  (1) pair lj/cut, perpetual, trim from (2)
      attributes: half, newton on, cut 25
      pair build: trim
      stencil: none
      bin: none
  (2) pair base/rna, perpetual
      attributes: half, newton on
      pair build: half/bin/newton
      stencil: half/bin/3d
      bin: standard
Per MPI rank memory allocation (min/avg/max) = 8.438 | 8.439 | 8.439 Mbytes
   Step          Temp          E_pair         E_mol          TotEng         Press     
         0   0              1.1865864e+13  3545.4522      1.1865864e+13  7.9455469e+11
      1000   0             -778.2247       35.809021     -742.41567     -2.5913474    
Loop time of 1.29634 on 4 procs for 1000 steps with 1432 atoms

99.4% CPU use with 4 MPI tasks x 1 OpenMP threads

Minimization stats:
  Stopping criterion = max iterations
  Energy initial, next-to-last, final = 
      11865863881165.7  -742.017926377678  -742.415674811747
  Force two-norm initial, final = 1.6976285e+14 2.4692579
  Force max component initial, final = 1.0728427e+14 0.44126249
  Final line search alpha, max atom move = 0.035116224 0.015495473
  Iterations, force evaluations = 1000 1416

MPI task timing breakdown:
Section |  min time  |  avg time  |  max time  |%varavg| %total
---------------------------------------------------------------
Pair    | 0.5568     | 0.85905    | 1.1928     |  26.5 | 66.27
Bond    | 0.028157   | 0.033471   | 0.037934   |   2.1 |  2.58
Neigh   | 0.0050262  | 0.0050298  | 0.0050321  |   0.0 |  0.39
Comm    | 0.044129   | 0.38207    | 0.68894    |  40.2 | 29.47
Output  | 4.7583e-05 | 4.8924e-05 | 5.2274e-05 |   0.0 |  0.00
Modify  | 0          | 0          | 0          |   0.0 |  0.00
Other   |            | 0.01667    |            |       |  1.29

Nlocal:            358 ave         419 max         299 min
Histogram: 1 0 1 0 0 0 0 1 0 1
Nghost:        1288.75 ave        1318 max        1261 min
Histogram: 2 0 0 0 0 0 0 0 1 1
Neighs:        4940.25 ave        6967 max        3337 min
Histogram: 1 1 0 0 0 1 0 0 0 1

Total # of neighbors = 19761
Ave neighs/atom = 13.799581
Ave special neighs/atom = 5.1536313
Neighbor list builds = 6
Dangerous builds = 0
reset_timestep 0

# ===============================
# 2. OUTPUTS
# ===============================
dump d1 all custom 50000 outputs/${tag}.lammpstrj id mol type q xu yu zu
dump d1 all custom 50000 outputs/100ASO_extended_14mer_unmodified.lammpstrj id mol type q xu yu zu
dump_modify d1 sort id

thermo_style custom step pe ke etotal temp press density
thermo 10000
thermo_modify flush yes

variable vpe equal pe
variable vke equal ke
variable vT  equal temp
variable vE  equal etotal
variable vRg equal gyration(all)

fix favg all ave/time 10000 10 100000 v_vpe v_vke v_vT v_vE v_vRg     file outputs/thermo_${tag}_averaged.dat
fix favg all ave/time 10000 10 100000 v_vpe v_vke v_vT v_vE v_vRg     file outputs/thermo_100ASO_extended_14mer_unmodified_averaged.dat

# ===============================
# 3. EQUILIBRATION (NVT)
# ===============================
velocity all create ${T_target} 46822 rot yes dist gaussian
velocity all create 300 46822 rot yes dist gaussian

# Langevin thermostat for equilibration
fix fxlang all langevin ${T_target} ${T_target} 1000.0 17679
fix fxlang all langevin 300 ${T_target} 1000.0 17679
fix fxlang all langevin 300 300 1000.0 17679
fix fxnve  all nve
fix recenter all momentum 1000 linear 1 1 1

# Equilibration run
run 5000000
Generated 0 of 6 mixed pair_coeff terms from geometric mixing rule
Per MPI rank memory allocation (min/avg/max) = 7.329 | 7.329 | 7.33 Mbytes
   Step         PotEng         KinEng         TotEng          Temp          Press         Density    
         0  -742.41567      1279.6618      537.24608      300            11.689964      0.18767795   
     10000   343.0316       1255.6338      1598.6654      294.36696     -1.2739705      0.18767795   
     20000   336.0297       1265.539       1601.5687      296.6891       2.8375272      0.18767795   
     30000   366.2024       1280.9184      1647.1208      300.29461      2.8560628      0.18767795   
     40000   330.00789      1280.0623      1610.0702      300.09391      6.1174542      0.18767795   
     50000   328.83356      1250.0346      1578.8681      293.05429      1.6258336      0.18767795   
     60000   341.79093      1312.181       1653.972       307.62372      7.8900524      0.18767795   
     70000   399.70582      1283.8545      1683.5603      300.98294      5.0619112      0.18767795   
     80000   294.00953      1314.5767      1608.5862      308.18535      6.8849762      0.18767795   
     90000   291.5946       1255.5454      1547.14        294.34624     -1.5953758      0.18767795   
    100000   324.01647      1356.3649      1680.3813      317.98204      3.6612307      0.18767795   
    110000   246.62719      1298.4817      1545.1089      304.4121       4.5665698      0.18767795   
    120000   212.18502      1267.7451      1479.9301      297.20629      9.7117298      0.18767795   
    130000   213.41572      1311.4005      1524.8162      307.44074      4.0258427      0.18767795   
    140000   207.73371      1291.9757      1499.7094      302.88684      1.2691758      0.18767795   
    150000   176.10595      1285.3078      1461.4138      301.32364      3.791127       0.18767795   
    160000   106.41759      1266.5908      1373.0084      296.93568      0.60474372     0.18767795   
    170000   1.0749654      1283.2603      1284.3353      300.84364      4.518724       0.18767795   
    180000   64.864152      1279.3716      1344.2357      299.93197      2.4303309      0.18767795   
    190000   84.870021      1272.5283      1357.3984      298.32767      1.2234068      0.18767795   
    200000   31.039929      1317.0791      1348.1191      308.77202     -0.36941534     0.18767795   
    210000   13.178566      1256.4888      1269.6673      294.5674      -5.939891       0.18767795   
    220000   59.042044      1300.1172      1359.1593      304.79552      9.2301527      0.18767795   
    230000   42.725544      1231.0097      1273.7353      288.59417      9.3858065      0.18767795   
    240000   26.430674      1283.137       1309.5677      300.81473      1.0877779      0.18767795   
    250000  -25.264412      1252.245       1226.9805      293.57249      1.077397       0.18767795   
    260000  -39.556947      1248.4013      1208.8443      292.67138      9.3495612      0.18767795   
    270000   22.202565      1278.0232      1300.2258      299.61586     -4.5064591      0.18767795   
    280000  -73.38053       1265.9754      1192.5948      296.79141      0.28748066     0.18767795   
    290000  -57.84726       1300.0577      1242.2104      304.78156      0.12403308     0.18767795   
    300000  -132.84156      1338.7893      1205.9478      313.86169     -2.3643622      0.18767795   
    310000  -111.61326      1274.7221      1163.1089      298.84197      10.878986      0.18767795   
    320000  -68.432891      1325.0198      1256.5869      310.63359     -7.4215235      0.18767795   
    330000  -125.01072      1275.9943      1150.9835      299.1402      -11.583523      0.18767795   
    340000  -162.34997      1243.6066      1081.2566      291.54733      4.6062222      0.18767795   
    350000  -87.70733       1271.5068      1183.7995      298.08819     -3.4836302      0.18767795   
    360000  -92.538744      1305.2438      1212.7051      305.99739      5.6012072      0.18767795   
    370000  -107.08267      1258.6422      1151.5595      295.07224      5.9955287      0.18767795   
    380000  -146.65161      1238.402       1091.7503      290.32718      12.99321       0.18767795   
    390000  -152.10956      1331.7073      1179.5977      312.20139     -2.0586033      0.18767795   
    400000  -190.38213      1278.6414      1088.2593      299.7608       2.1433446      0.18767795   
    410000  -115.37231      1206.8403      1091.468       282.92796      7.2290643      0.18767795   
    420000  -61.629851      1276.1136      1214.4837      299.16817      2.3492604      0.18767795   
    430000  -87.7232        1272.8993      1185.1761      298.41464      3.847578       0.18767795   
    440000  -134.25435      1245.8703      1111.6159      292.07803      0.97735969     0.18767795   
    450000  -162.84431      1317.8569      1155.0126      308.95436      2.6505132      0.18767795   
    460000  -147.87645      1306.6889      1158.8124      306.33616     -8.3182592      0.18767795   
    470000  -164.60844      1312.073       1147.4645      307.59839      0.41401413     0.18767795   
    480000  -176.56662      1282.0076      1105.441       300.54996      3.4516173      0.18767795   
    490000  -151.09983      1254.2797      1103.1799      294.04952      3.0794316      0.18767795   
    500000  -160.78419      1263.9335      1103.1493      296.31272     -13.075753      0.18767795   
    510000  -167.87287      1236.422       1068.5491      289.863       -4.9767977      0.18767795   
    520000  -142.96389      1256.8149      1113.851       294.64384      3.9390794      0.18767795   
    530000  -129.5909       1302.2441      1172.6532      305.29414     -0.88471326     0.18767795   
    540000  -158.03027      1261.815       1103.7847      295.81607      6.3977609      0.18767795   
    550000  -115.06955      1231.4044      1116.3348      288.68668      3.7562265      0.18767795   
    560000  -134.8027       1275.2655      1140.4628      298.96936      2.544394       0.18767795   
    570000  -204.50585      1250.3995      1045.8936      293.13984      8.4737969      0.18767795   
    580000  -182.58438      1281.2309      1098.6465      300.36786     -1.4193464      0.18767795   
    590000  -148.3404       1305.5534      1157.213       306.06995     -4.3807952      0.18767795   
    600000  -137.84452      1264.5981      1126.7535      296.46851     -4.2878674      0.18767795   
    610000  -161.6643       1293.286       1131.6217      303.19404     -0.71941298     0.18767795   
    620000  -151.00827      1288.7227      1137.7144      302.12422      0.21845079     0.18767795   
    630000  -189.16709      1289.8858      1100.7187      302.39689      3.7931444      0.18767795   
    640000  -237.08743      1255.5358      1018.4483      294.34398     -3.6225445      0.18767795   
    650000  -180.11957      1287.8146      1107.6951      301.91134     -3.8917656      0.18767795   
    660000  -168.82716      1231.0663      1062.2392      288.60744      2.3718141      0.18767795   
    670000  -193.0193       1309.377       1116.3577      306.96636     -9.409737       0.18767795   
    680000  -203.82965      1246.5601      1042.7305      292.23976     -9.5403336      0.18767795   
    690000  -241.92202      1262.9705      1021.0485      296.08696      10.444977      0.18767795   
    700000  -204.79253      1347.6802      1142.8877      315.94604     -1.2536731      0.18767795   
    710000  -195.65466      1269.1732      1073.5185      297.54109     -1.4440955      0.18767795   
    720000  -240.52497      1222.5279      982.00288      286.6057       1.3636703      0.18767795   
    730000  -186.08445      1323.3107      1137.2263      310.23294     -1.8342936      0.18767795   
    740000  -242.99311      1336.7205      1093.7274      313.37669     -1.3163112      0.18767795   
    750000  -215.56879      1267.3208      1051.752       297.10682      1.5247505      0.18767795   
    760000  -216.74941      1257.2704      1040.5209      294.75063      3.4116515      0.18767795   
    770000  -182.84159      1282.3491      1099.5075      300.63001     -1.5229619      0.18767795   
    780000  -250.09883      1283.639       1033.5402      300.93242      5.8572624      0.18767795   
    790000  -260.35559      1232.225       971.86942      288.87907     -2.0086451      0.18767795   
    800000  -196.48187      1269.5907      1073.1088      297.63897      0.513835       0.18767795   
    810000  -257.90938      1303.2932      1045.3839      305.54009      1.6370923      0.18767795   
    820000  -205.26548      1279.6872      1074.4217      300.00595     -1.6999355      0.18767795   
    830000  -258.19213      1259.0964      1000.9043      295.17873      3.9409052      0.18767795   
    840000  -221.74256      1296.5572      1074.8146      303.96091     -1.8095567      0.18767795   
    850000  -197.13814      1237.048       1039.9098      290.00976     -3.8980943      0.18767795   
    860000  -210.16192      1278.6528      1068.4908      299.76345      1.4544037      0.18767795   
    870000  -209.09131      1266.3831      1057.2918      296.88699      0.3990004      0.18767795   
    880000  -174.68383      1294.9522      1120.2684      303.58465     -0.2614007      0.18767795   
    890000  -156.91831      1287.0646      1130.1463      301.73551     -8.7542195      0.18767795   
    900000  -210.33445      1315.6982      1105.3638      308.44828     -0.44424986     0.18767795   
    910000  -247.76101      1250.9402      1003.1792      293.26661     -0.89905047     0.18767795   
    920000  -197.21138      1287.8417      1090.6303      301.91768      4.9297005      0.18767795   
    930000  -215.73604      1310.9693      1095.2333      307.33965      0.87236748     0.18767795   
    940000  -216.99993      1271.1029      1054.103       297.99349      5.3134763      0.18767795   
    950000  -235.73649      1297.1669      1061.4304      304.10384      0.23375264     0.18767795   
    960000  -252.86747      1254.2776      1001.4101      294.04901     -1.2340754      0.18767795   
    970000  -178.91374      1267.758       1088.8443      297.20932      3.1274235      0.18767795   
    980000  -259.66052      1279.3059      1019.6454      299.91659      7.0206582      0.18767795   
    990000  -221.4091       1305.5186      1084.1095      306.0618      -2.3598426      0.18767795   
   1000000  -219.93695      1261.5413      1041.6043      295.75189     -0.94354182     0.18767795   
   1010000  -229.19072      1307.697       1078.5063      306.57249     -3.2833084      0.18767795   
   1020000  -171.49057      1262.2214      1090.7308      295.91133     -7.042648       0.18767795   
   1030000  -258.82947      1277.6742      1018.8447      299.53404     -5.6910871      0.18767795   
   1040000  -164.01713      1280.4172      1116.4         300.1771       2.6650684      0.18767795   
   1050000  -164.79929      1288.7155      1123.9162      302.12252      6.3297868      0.18767795   
   1060000  -122.90701      1216.3899      1093.4829      285.16674      9.0224616      0.18767795   
   1070000  -184.13072      1264.6725      1080.5418      296.48597     -3.8871008      0.18767795   
   1080000  -214.51216      1283.1449      1068.6328      300.81659      1.9586919      0.18767795   
   1090000  -138.03068      1290.2162      1152.1855      302.47436      8.7502419      0.18767795   
   1100000  -137.51028      1287.1698      1149.6596      301.76017      3.3799142      0.18767795   
   1110000  -213.89446      1244.5285      1030.6341      291.76347      7.1898629      0.18767795   
   1120000  -166.98708      1260.1597      1093.1727      295.42801     -1.2662119      0.18767795   
   1130000  -229.28895      1283.83        1054.5411      300.9772       0.49235413     0.18767795   
   1140000  -139.1993       1308.6279      1169.4286      306.79074     -1.2716925      0.18767795   
   1150000  -230.60368      1288.4289      1057.8252      302.05535      6.3550965      0.18767795   
   1160000  -208.18478      1324.5698      1116.385       310.5281      -0.88073579     0.18767795   
   1170000  -150.96733      1283.9665      1132.9992      301.00919      0.74269975     0.18767795   
   1180000  -177.82697      1267.6834      1089.8564      297.19183     -4.3328641      0.18767795   
   1190000  -222.36363      1264.7319      1042.3682      296.49988     -0.20485381     0.18767795   
   1200000  -234.57719      1249.3662      1014.789       292.8976       4.715767       0.18767795   
   1210000  -298.81031      1303.8339      1005.0236      305.66684      1.5580188      0.18767795   
   1220000  -199.59983      1232.3234      1032.7236      288.90214     -4.0365091      0.18767795   
   1230000  -128.87662      1270.1965      1141.3199      297.781        0.16389342     0.18767795   
   1240000  -147.88412      1254.4494      1106.5653      294.08929      2.5762562      0.18767795   
   1250000  -184.25861      1277.9027      1093.6441      299.58762     -12.222766      0.18767795   
   1260000  -166.05839      1290.4536      1124.3952      302.53        -1.389057       0.18767795   
   1270000  -179.64035      1293.765       1114.1247      303.30633      3.8238191      0.18767795   
   1280000  -175.70152      1297.5435      1121.842       304.19215     -2.604408       0.18767795   
   1290000  -249.22069      1288.3324      1039.1117      302.03272      0.010363377    0.18767795   
   1300000  -155.84374      1261.8826      1106.0389      295.83192      3.3181897      0.18767795   
   1310000  -262.73727      1249.5083      986.77108      292.93093     -13.498212      0.18767795   
   1320000  -256.15863      1279.1043      1022.9457      299.86932     -1.0821387      0.18767795   
   1330000  -225.12317      1326.0228      1100.8996      310.86874     -3.6647846      0.18767795   
   1340000  -180.0936       1238.2772      1058.1836      290.29793      2.2159786      0.18767795   
   1350000  -285.07601      1281.3688      996.29277      300.40019     -8.7186383      0.18767795   
   1360000  -227.30684      1256.4213      1029.1144      294.55157     -3.5637593      0.18767795   
   1370000  -214.703        1237.681       1022.978       290.15816      6.9646096      0.18767795   
   1380000  -178.73847      1273.9469      1095.2084      298.66022     -0.34227635     0.18767795   
   1390000  -243.47986      1309.7048      1066.225       307.04321     -5.4630465      0.18767795   
   1400000  -202.81327      1249.6884      1046.8752      292.97315     -11.724947      0.18767795   
   1410000  -206.08697      1327.6418      1121.5548      311.24829      1.2985832      0.18767795   
   1420000  -217.30812      1300.5539      1083.2457      304.89788      4.570127       0.18767795   
   1430000  -236.71886      1265.2467      1028.5279      296.62058     -5.5809224      0.18767795   
   1440000  -218.45645      1308.6705      1090.214       306.80072      4.7033762      0.18767795   
   1450000  -145.64035      1304.6374      1158.997       305.85521     -3.8219729      0.18767795   
   1460000  -198.41835      1278.8937      1080.4754      299.81994      0.045048851    0.18767795   
   1470000  -202.45473      1292.7386      1090.2839      303.06571      6.7511954      0.18767795   
   1480000  -177.51686      1302.4541      1124.9372      305.34336      7.6210653      0.18767795   
   1490000  -235.82506      1211.6035      975.7784       284.04462      2.7557694      0.18767795   
   1500000  -224.68984      1271.6152      1046.9253      298.11358     -12.719131      0.18767795   
   1510000  -229.36066      1323.2324      1093.8718      310.21457     -10.889169      0.18767795   
   1520000  -275.29738      1259.9697      984.6723       295.38345     -1.8883435      0.18767795   
   1530000  -211.215        1267.1942      1055.9792      297.07715     -1.459732       0.18767795   
   1540000  -238.05893      1292.0561      1053.9971      302.90568      2.1431181      0.18767795   
   1550000  -233.51393      1298.9385      1065.4246      304.51919     -0.90785533     0.18767795   
   1560000  -224.00344      1335.3592      1111.3558      313.05754     -6.3664104      0.18767795   
   1570000  -275.50801      1225.4788      949.97075      287.2975      -3.3646741      0.18767795   
   1580000  -187.39833      1239.1516      1051.7533      290.50293     -1.7946065      0.18767795   
   1590000  -237.50353      1275.7137      1038.2102      299.07444     -4.9032554      0.18767795   
   1600000  -232.49724      1250.1272      1017.63        293.07601     -4.9732572      0.18767795   
   1610000  -251.0771       1268.023       1016.9459      297.27145      2.1278339      0.18767795   
   1620000  -281.4777       1265.3937      983.91604      296.65505      0.41879175     0.18767795   
   1630000  -241.85391      1249.9676      1008.1137      293.0386      -6.1350566      0.18767795   
   1640000  -198.12006      1300.7104      1102.5904      304.93458     -4.9093648      0.18767795   
   1650000  -219.95807      1302.2567      1082.2987      305.2971      -4.5448502      0.18767795   
   1660000  -236.13752      1294.2639      1058.1264      303.42328      0.61743209     0.18767795   
   1670000  -216.72854      1305.3533      1088.6248      306.02306      2.8719931      0.18767795   
   1680000  -170.07346      1363.4805      1193.407       319.65021     -3.5480491      0.18767795   
   1690000  -259.96489      1296.3353      1036.3704      303.9089      -1.266872       0.18767795   
   1700000  -203.92269      1238.9313      1035.0086      290.45128      7.6754722      0.18767795   
   1710000  -91.352612      1254.6089      1163.2562      294.12667     -9.1137749      0.18767795   
   1720000  -212.88712      1264.2052      1051.3181      296.37642     -1.4049645      0.18767795   
   1730000  -151.70207      1283.7737      1132.0716      300.96398     -0.0095499227   0.18767795   
   1740000  -166.96544      1278.7136      1111.7481      299.77771     -7.6267292      0.18767795   
   1750000  -215.38461      1260.1237      1044.7391      295.41955      8.5599118      0.18767795   
   1760000  -246.68263      1296.2893      1049.6067      303.89811     -0.00086099662  0.18767795   
   1770000  -198.00113      1298.9771      1100.976       304.52823     -0.45882184     0.18767795   
   1780000  -186.90805      1280.5801      1093.6721      300.2153      -4.0436738      0.18767795   
   1790000  -199.2602       1257.5285      1058.2683      294.81115      0.80641185     0.18767795   
   1800000  -178.0006       1283.1722      1105.1717      300.82299      4.9682042      0.18767795   
   1810000  -227.25855      1353.1345      1125.8759      317.22472     -5.6168223      0.18767795   
   1820000  -190.38483      1308.514       1118.1292      306.76404      3.5613633      0.18767795   
   1830000  -223.13535      1294.6974      1071.5621      303.52492      12.399012      0.18767795   
   1840000  -155.08551      1251.3696      1096.2841      293.36728     -0.52544281     0.18767795   
   1850000  -222.11316      1297.9302      1075.817       304.28279      11.505148      0.18767795   
   1860000  -287.43338      1298.3408      1010.9074      304.37906      11.710011      0.18767795   
   1870000  -223.3751       1268.7275      1045.3524      297.43661      1.6868451      0.18767795   
   1880000  -184.2026       1294.3215      1110.1189      303.43678      4.9664578      0.18767795   
   1890000  -227.19011      1265.8497      1038.6596      296.76195     -3.084672       0.18767795   
   1900000  -177.25813      1286.2997      1109.0416      301.55618     -1.3835265      0.18767795   
   1910000  -136.5472       1306.721       1170.1738      306.34368      10.952891      0.18767795   
   1920000  -208.37616      1278.4245      1070.0484      299.70995     -0.99330866     0.18767795   
   1930000  -222.91005      1316.3038      1093.3938      308.59025      2.0318982      0.18767795   
   1940000  -166.94788      1319.3506      1152.4028      309.30454     -7.7529389      0.18767795   
   1950000  -216.82089      1299.6774      1082.8565      304.6924      -3.7703789      0.18767795   
   1960000  -233.79873      1316.2626      1082.4639      308.5806      -1.4964871      0.18767795   
   1970000  -164.06081      1307.2482      1143.1874      306.46729      1.4564787      0.18767795   
   1980000  -234.14388      1311.6266      1077.4827      307.49374     -2.970676       0.18767795   
   1990000  -199.05613      1297.9408      1098.8846      304.28527      2.954513       0.18767795   
   2000000  -239.26753      1231.7871      992.51956      288.77641     -0.87961133     0.18767795   
   2010000  -161.32835      1267.7267      1106.3984      297.20199      7.6551844      0.18767795   
   2020000  -229.61427      1332.7398      1103.1256      312.44346     -1.5972565      0.18767795   
   2030000  -226.29967      1251.9         1025.6004      293.49163      0.91936286     0.18767795   
   2040000  -214.32736      1266.7516      1052.4243      296.97339      2.6986668      0.18767795   
   2050000  -193.03172      1306.9633      1113.9316      306.40049      7.1880739      0.18767795   
   2060000  -282.03634      1243.9308      961.89444      291.62334      0.50567753     0.18767795   
   2070000  -251.04712      1303.5839      1052.5368      305.60824     -2.709865       0.18767795   
   2080000  -226.57189      1347.3344      1120.7625      315.86497      2.3328823      0.18767795   
   2090000  -289.36874      1252.9712      963.6025       293.74276     -0.19809877     0.18767795   
   2100000  -292.17933      1330.1926      1038.0133      311.8463       3.6654434      0.18767795   
   2110000  -333.546        1251.8784      918.33239      293.48655      2.2831124      0.18767795   
   2120000  -211.41508      1250.1502      1038.7351      293.08139      0.31462345     0.18767795   
   2130000  -175.28153      1215.6117      1040.3302      284.9843      -0.73521206     0.18767795   
   2140000  -297.20096      1290.2522      993.05119      302.48278      0.52260217     0.18767795   
   2150000  -242.98593      1339.1076      1096.1217      313.93631     -1.6879912      0.18767795   
   2160000  -266.24304      1248.1337      981.8907       292.60867      2.4246967      0.18767795   
   2170000  -225.5468       1294.7574      1069.2106      303.53897     -1.4273711      0.18767795   
   2180000  -126.66376      1270.5546      1143.8909      297.86495      3.8101252      0.18767795   
   2190000  -145.39281      1246.1274      1100.7346      292.13832      8.4547302      0.18767795   
   2200000  -173.26774      1291.0021      1117.7344      302.6586       2.7332562      0.18767795   
   2210000  -170.27954      1256.2079      1085.9284      294.50155      0.73126629     0.18767795   
   2220000  -243.81614      1286.2629      1042.4468      301.54755     -4.6334209      0.18767795   
   2230000  -195.33308      1334.2429      1138.9099      312.79585     -1.475294       0.18767795   
   2240000  -182.30115      1280.9413      1098.6401      300.29997      4.3180698      0.18767795   
   2250000  -212.99755      1295.2162      1082.2187      303.64654     -1.2276361      0.18767795   
   2260000  -283.23403      1273.2291      989.99506      298.49195      7.6859969      0.18767795   
   2270000  -260.15335      1233.2292      973.07585      289.1145       7.7104528      0.18767795   
   2280000  -247.72621      1259.7892      1012.063       295.34113      5.4203401      0.18767795   
   2290000  -270.85135      1288.1232      1017.2719      301.98369     -0.62296096     0.18767795   
   2300000  -171.80375      1301.5711      1129.7674      305.13636      6.2550306      0.18767795   
   2310000  -150.40315      1252.7473      1102.3441      293.69025     -1.3560415      0.18767795   
   2320000  -206.52562      1283.3509      1076.8252      300.86486      2.3208849      0.18767795   
   2330000  -253.72045      1253.9905      1000.27        293.98171      1.3659607      0.18767795   
   2340000  -269.14283      1320.3442      1051.2014      309.53747      4.4981631      0.18767795   
   2350000  -261.78356      1314.2738      1052.4903      308.11435     -0.10209947     0.18767795   
   2360000  -219.39588      1270.0397      1050.6438      297.74424      7.9607938      0.18767795   
   2370000  -201.77201      1315.6072      1113.8352      308.42695     -4.9156389      0.18767795   
   2380000  -206.42893      1277.3016      1070.8727      299.4467       7.5202402      0.18767795   
   2390000  -245.85429      1250.1594      1004.3052      293.08357      3.7138092      0.18767795   
   2400000  -237.83321      1263.245       1025.4118      296.1513       3.6500043      0.18767795   
   2410000  -234.34313      1243.5549      1009.2118      291.53522      3.6972197      0.18767795   
   2420000  -225.67513      1273.7757      1048.1006      298.6201       3.8600033      0.18767795   
   2430000  -177.88133      1339.3142      1161.4328      313.98473     -5.4085089      0.18767795   
   2440000  -217.97085      1278.9235      1060.9526      299.82692      1.8122097      0.18767795   
   2450000  -228.48139      1214.1583      985.67692      284.64357      1.3036616      0.18767795   
   2460000  -184.77971      1281.8956      1097.1159      300.52371     -2.9376238      0.18767795   
   2470000  -151.23507      1337.7425      1186.5075      313.61628      6.8726022      0.18767795   
   2480000  -208.49701      1263.7772      1055.2801      296.27606     -4.1446773      0.18767795   
   2490000  -208.67289      1285.2181      1076.5452      301.30262     -9.9048957      0.18767795   
   2500000  -180.80309      1330.9581      1150.155       312.02575      2.519842       0.18767795   
   2510000  -257.6523       1293.7784      1036.1261      303.30947     -9.2209151      0.18767795   
   2520000  -150.56197      1272.1143      1121.5523      298.23059     -3.5656178      0.18767795   
   2530000  -277.74926      1267.1148      989.36555      297.05853      1.657672       0.18767795   
   2540000  -281.171        1260.3042      979.13321      295.46188      1.1521301      0.18767795   
   2550000  -116.67753      1278.0287      1161.3512      299.61716      3.140369       0.18767795   
   2560000  -212.59561      1220.9623      1008.3667      286.23868      4.7625397      0.18767795   
   2570000  -177.94588      1296.948       1119.0021      304.05253     -7.1864559      0.18767795   
   2580000  -180.86187      1290.6276      1109.7657      302.5708       0.16831059     0.18767795   
   2590000  -155.81231      1298.7421      1142.9298      304.47313     -5.0401494      0.18767795   
   2600000  -127.92061      1276.0422      1148.1216      299.15144     -3.1976745      0.18767795   
   2610000  -142.08925      1220.9849      1078.8957      286.24399     -6.7817339      0.18767795   
   2620000  -222.43522      1324.9272      1102.492       310.61189     -4.1101596      0.18767795   
   2630000  -186.1499       1284.8056      1098.6557      301.20591     -4.3779387      0.18767795   
   2640000  -149.50793      1255.9338      1106.4259      294.4373       9.6007404      0.18767795   
   2650000  -182.84148      1264.7828      1081.9414      296.51183     -0.82170433     0.18767795   
   2660000  -202.68492      1314.8436      1112.1587      308.24793     -6.1226918      0.18767795   
   2670000  -172.0018       1304.5607      1132.5589      305.83723      1.6223796      0.18767795   
   2680000  -141.18576      1249.2659      1108.0802      292.8741      -5.7806385      0.18767795   
   2690000  -186.96743      1266.2664      1079.299       296.85964     -1.3739266      0.18767795   
   2700000  -146.51747      1249.9004      1103.3829      293.02284     -2.1633129      0.18767795   
   2710000  -207.9237       1322.2799      1114.3562      309.99126      0.38875927     0.18767795   
   2720000  -257.57206      1309.8923      1052.3203      307.08716      1.6218194      0.18767795   
   2730000  -208.18286      1331.3446      1123.1617      312.11636     -4.4394434      0.18767795   
   2740000  -220.38899      1279.3124      1058.9234      299.9181      -1.7385813      0.18767795   
   2750000  -216.91702      1303.9085      1086.9915      305.68434      5.9155925      0.18767795   
   2760000  -171.79753      1268.3249      1096.5274      297.34223     -13.290503      0.18767795   
   2770000  -239.30456      1215.7019      976.39729      285.00544     -5.9621629      0.18767795   
   2780000  -185.4488       1287.3748      1101.926       301.80823     -4.9361582      0.18767795   
   2790000  -226.90699      1265.395       1038.488       296.65535      6.3986362      0.18767795   
   2800000  -253.6127       1290.3595      1036.7468      302.50795     -1.3761748      0.18767795   
   2810000  -248.05444      1297.4504      1049.396       304.17032     -4.7441243      0.18767795   
   2820000  -281.95897      1285.9458      1003.9868      301.4732       2.644637       0.18767795   
   2830000  -232.59255      1255.7962      1023.2036      294.40502     -14.57529       0.18767795   
   2840000  -205.03057      1283.5603      1078.5297      300.91396      5.0979347      0.18767795   
   2850000  -166.00496      1246.7349      1080.7299      292.28072     -0.31600004     0.18767795   
   2860000  -237.78961      1282.465       1044.6753      300.65717      3.1698203      0.18767795   
   2870000  -226.76341      1294.3843      1067.6209      303.45151      0.13111615     0.18767795   
   2880000  -211.32149      1306.6956      1095.3741      306.33773      3.9373317      0.18767795   
   2890000  -257.60326      1330.7957      1073.1925      311.9877      -5.1411415      0.18767795   
   2900000  -201.93585      1282.9633      1081.0275      300.774       -3.1123192      0.18767795   
   2910000  -170.7181       1287.583       1116.8649      301.85702      7.7329141      0.18767795   
   2920000  -210.20446      1255.427       1045.2225      294.31847     -0.52584248     0.18767795   
   2930000  -261.77016      1251.2064      989.4362       293.32901     -7.7119617      0.18767795   
   2940000  -185.06989      1251.9361      1066.8662      293.50009      7.1195242      0.18767795   
   2950000  -214.89411      1257.593       1042.6989      294.82628     -2.3895271      0.18767795   
   2960000  -259.02013      1276.2203      1017.2001      299.19319      5.2009048      0.18767795   
   2970000  -254.61325      1308.6314      1054.0181      306.79155      6.9262754      0.18767795   
   2980000  -263.42265      1265.0625      1001.6398      296.57739     -3.7280345      0.18767795   
   2990000  -217.63618      1261.9495      1044.3133      295.84758     -1.5244646      0.18767795   
   3000000  -228.48762      1284.446       1055.9584      301.1216       8.212467       0.18767795   
   3010000  -239.73376      1324.8105      1085.0768      310.58454      5.7018009      0.18767795   
   3020000  -286.92523      1260.0172      973.09199      295.39459     -3.4481726      0.18767795   
   3030000  -236.27895      1253.5186      1017.2397      293.87109     -1.2664644      0.18767795   
   3040000  -231.59474      1267.8995      1036.3048      297.2425      -2.0963843      0.18767795   
   3050000  -265.10048      1250.9592      985.85871      293.27106      0.94687961     0.18767795   
   3060000  -270.00699      1266.1594      996.1524       296.83455     -3.7063356      0.18767795   
   3070000  -234.88633      1288.1157      1053.2293      301.98191     -4.8305177      0.18767795   
   3080000  -239.09031      1299.4234      1060.3331      304.63286      14.622311      0.18767795   
   3090000  -237.74548      1272.8353      1035.0899      298.39963     -15.955132      0.18767795   
   3100000  -245.59684      1287.3657      1041.7689      301.80609      2.9590435      0.18767795   
   3110000  -234.40353      1323.173       1088.7695      310.20065      3.7220664      0.18767795   
   3120000  -225.82981      1319.7605      1093.9307      309.40063      4.0829893      0.18767795   
   3130000  -272.69005      1251.9503      979.26028      293.50342     -6.0137158      0.18767795   
   3140000  -219.56757      1273.859       1054.2915      298.63962      10.248349      0.18767795   
   3150000  -206.94126      1270.3592      1063.4179      297.81913      3.2990817      0.18767795   
   3160000  -170.63669      1258.4555      1087.8188      295.02846      4.6441178      0.18767795   
   3170000  -262.27188      1261.2976      999.02574      295.69477      0.77585421     0.18767795   
   3180000  -276.2795       1313.4457      1037.1662      307.92021      0.47099974     0.18767795   
   3190000  -126.88398      1276.3597      1149.4757      299.22588     -1.8934905      0.18767795   
   3200000  -217.72831      1302.3121      1084.5838      305.31008      0.70877877     0.18767795   
   3210000  -246.79577      1305.9879      1059.1921      306.17182      6.113377       0.18767795   
   3220000  -240.98379      1303.4002      1062.4165      305.56518     -0.80825269     0.18767795   
   3230000  -171.58448      1290.1733      1118.5888      302.4643       3.4372489      0.18767795   
   3240000  -232.85061      1325.422       1092.5714      310.7279       8.0084579      0.18767795   
   3250000  -204.66797      1242.4526      1037.7846      291.27679     -5.4455867      0.18767795   
   3260000  -235.46646      1250.2126      1014.7461      293.09602      5.2163628      0.18767795   
   3270000  -254.71679      1287.4817      1032.7649      301.83328     -3.2004538      0.18767795   
   3280000  -238.06869      1317.0089      1078.9402      308.75555      1.5982629      0.18767795   
   3290000  -147.4302       1315.257       1167.8268      308.34484      6.2716463      0.18767795   
   3300000  -164.82718      1298.0515      1133.2243      304.31123     -0.80122112     0.18767795   
   3310000  -257.75654      1327.9085      1070.152       311.31082     -2.6043689      0.18767795   
   3320000  -262.58036      1268.1528      1005.5725      297.30188      1.062884       0.18767795   
   3330000  -220.00515      1326.7755      1106.7704      311.04521      4.7671228      0.18767795   
   3340000  -255.95318      1276.3097      1020.3566      299.21417      9.1247602      0.18767795   
   3350000  -178.26038      1275.9743      1097.7139      299.13553     -0.67298173     0.18767795   
   3360000  -249.21312      1300.6906      1051.4775      304.92994     -1.9741117      0.18767795   
   3370000  -213.0704       1287.931       1074.8606      301.93861     -1.330988       0.18767795   
   3380000  -190.09895      1305.501       1115.4021      306.05767      1.9947723      0.18767795   
   3390000  -211.50698      1298.4946      1086.9877      304.41513     -1.0207529      0.18767795   
   3400000  -177.10431      1284.1307      1107.0264      301.04768      2.8442859      0.18767795   
   3410000  -240.27213      1293.8223      1053.5501      303.31974     -7.2087744      0.18767795   
   3420000  -207.42115      1252.1487      1044.7276      293.54993      0.64678002     0.18767795   
   3430000  -218.68371      1287.0925      1068.4088      301.74204     -3.2993467      0.18767795   
   3440000  -225.25271      1292.0846      1066.8319      302.91238      6.0062447      0.18767795   
   3450000  -273.49098      1303.268       1029.777       305.53418      2.5876238      0.18767795   
   3460000  -228.5839       1249.1334      1020.5495      292.84302     -0.86373636     0.18767795   
   3470000  -209.17503      1255.1786      1046.0036      294.26024     -2.587179       0.18767795   
   3480000  -232.86525      1312.7295      1079.8642      307.7523      -4.2110179      0.18767795   
   3490000  -204.64069      1246.533       1041.8924      292.23341     -5.1958624      0.18767795   
   3500000  -173.60133      1267.0231      1093.4218      297.03703      9.8327668      0.18767795   
   3510000  -134.46599      1245.2531      1110.7871      291.93335     -4.3020889      0.18767795   
   3520000  -226.72349      1340.3092      1113.5857      314.218        3.1494738      0.18767795   
   3530000  -182.3592       1253.4693      1071.1101      293.85952      4.9266397      0.18767795   
   3540000  -166.70847      1250.0882      1083.3797      293.06687      0.35520246     0.18767795   
   3550000  -116.96738      1277.9724      1161.005       299.60394     -2.3415184      0.18767795   
   3560000  -208.40076      1337.3703      1128.9695      313.52901     -2.302383       0.18767795   
   3570000  -159.88108      1266.6788      1106.7978      296.95633      2.9080026      0.18767795   
   3580000  -186.2824       1244.1127      1057.8303      291.66598      4.668562       0.18767795   
   3590000  -181.03652      1289.4168      1108.3803      302.28694     -2.1185715      0.18767795   
   3600000  -130.06946      1270.7629      1140.6935      297.91379     -4.05327        0.18767795   
   3610000  -158.24501      1269.4701      1111.2251      297.6107      -1.448109       0.18767795   
   3620000  -202.54378      1253.9312      1051.3874      293.9678       2.1413944      0.18767795   
   3630000  -148.21869      1259.0961      1110.8774      295.17865     -1.5585511      0.18767795   
   3640000  -197.5572       1295.9434      1098.3862      303.81702     -0.85645651     0.18767795   
   3650000  -150.386        1235.7608      1085.3748      289.70799     -1.3102562      0.18767795   
   3660000  -170.91316      1300.7881      1129.875       304.9528       3.203529       0.18767795   
   3670000  -120.55583      1264.7334      1144.1775      296.50024      1.7074562      0.18767795   
   3680000  -201.54927      1243.6128      1042.0635      291.5488      -0.70931588     0.18767795   
   3690000  -243.65401      1313.7005      1070.0465      307.97994      4.1287625      0.18767795   
   3700000  -192.0977       1262.5278      1070.4301      295.98317      5.6481362      0.18767795   
   3710000  -235.03378      1310.4504      1075.4167      307.21801      8.6009965      0.18767795   
   3720000  -190.09795      1290.4357      1100.3378      302.52582      0.35638696     0.18767795   
   3730000  -161.83783      1275.3374      1113.4996      298.98622      1.6811458      0.18767795   
   3740000  -138.94998      1259.488       1120.538       295.27053     -2.1332814      0.18767795   
   3750000  -119.17336      1255.3828      1136.2095      294.30813     -2.5724492      0.18767795   
   3760000  -130.11604      1288.0744      1157.9584      301.97223     -6.2935606      0.18767795   
   3770000  -177.73711      1263.9455      1086.2084      296.31553     -1.4435641      0.18767795   
   3780000  -131.86027      1281.3851      1149.5248      300.40401      3.6314681      0.18767795   
   3790000  -121.59787      1312.6255      1191.0276      307.72792      1.8925364      0.18767795   
   3800000  -133.60974      1288.9155      1155.3057      302.16942      2.2171682      0.18767795   
   3810000  -102.21279      1272.6775      1170.4647      298.36263      12.554688      0.18767795   
   3820000  -90.212881      1238.8451      1148.6322      290.43107     -1.1390317      0.18767795   
   3830000  -126.45269      1253.8126      1127.3599      293.93999      2.0117486      0.18767795   
   3840000  -171.74991      1294.5643      1122.8144      303.4937      -2.468299       0.18767795   
   3850000  -117.59128      1349.4638      1231.8725      316.36417      2.3007029      0.18767795   
   3860000  -144.2548       1294.903       1150.6482      303.57312      13.104051      0.18767795   
   3870000  -116.60584      1269.6268      1153.0209      297.64742     -10.002885      0.18767795   
   3880000  -191.31797      1248.9187      1057.6007      292.79269      5.1025006      0.18767795   
   3890000  -128.63251      1300.7613      1172.1288      304.94651     -4.0706885      0.18767795   
   3900000  -144.01714      1292.1536      1148.1365      302.92855      7.6792979      0.18767795   
   3910000  -167.07364      1252.6302      1085.5565      293.6628      -2.7208105      0.18767795   
   3920000  -184.13376      1227.9828      1043.849       287.88454     -2.0722015      0.18767795   
   3930000  -115.89065      1267.6604      1151.7697      297.18644      0.67550089     0.18767795   
   3940000  -174.94765      1287.1908      1112.2431      301.76509      0.75683497     0.18767795   
   3950000  -155.97507      1299.6952      1143.7201      304.69658     -3.6395787      0.18767795   
   3960000  -194.49842      1287.5469      1093.0484      301.84856      2.988488       0.18767795   
   3970000  -136.99231      1285.1987      1148.2064      301.29806      1.1618563      0.18767795   
   3980000  -161.27263      1249.456       1088.1834      292.91866     -0.25503242     0.18767795   
   3990000  -201.27108      1303.8342      1102.5632      305.66692      1.8249852      0.18767795   
   4000000  -220.08237      1314.3008      1094.2185      308.12068      9.5661033      0.18767795   
   4010000  -145.05384      1279.4972      1134.4434      299.96143      9.9284949      0.18767795   
   4020000  -218.99136      1258.6334      1039.642       295.07017     -0.9817954      0.18767795   
   4030000  -180.80764      1308.3665      1127.5589      306.72945      5.7470582      0.18767795   
   4040000  -241.34369      1257.2637      1015.92        294.74907      1.565302       0.18767795   
   4050000  -92.650104      1267.0481      1174.398       297.0429       8.7654165      0.18767795   
   4060000  -139.93466      1280.0451      1140.1105      300.08987     -3.5531451      0.18767795   
   4070000  -157.58807      1325.6308      1168.0428      310.77685      2.9554734      0.18767795   
   4080000  -279.1151       1312.0136      1032.8985      307.58448      1.6882648      0.18767795   
   4090000  -245.25449      1277.7698      1032.5153      299.55646      5.3985563      0.18767795   
   4100000  -250.27949      1296.7875      1046.508       304.01491      7.0789145      0.18767795   
   4110000  -202.20896      1301.977       1099.7681      305.23152      6.527114       0.18767795   
   4120000  -181.82694      1223.4149      1041.5879      286.81365     -5.7643968      0.18767795   
   4130000  -149.03884      1341.541       1192.5022      314.50678      9.3178283      0.18767795   
   4140000  -222.14766      1271.5317      1049.384       298.09401     -7.9681178      0.18767795   
   4150000  -157.47463      1286.5188      1129.0442      301.60755      2.912434       0.18767795   
   4160000  -205.76176      1238.8322      1033.0705      290.42805      0.59226964     0.18767795   
   4170000  -201.95861      1295.7324      1093.7738      303.76756      4.9173342      0.18767795   
   4180000  -78.995291      1324.8566      1245.8613      310.59534     -4.4572655      0.18767795   
   4190000  -182.30575      1292.8557      1110.55        303.09316     -0.25254093     0.18767795   
   4200000  -176.99597      1259.426       1082.43        295.25599      10.218208      0.18767795   
   4210000  -200.40856      1196.7037      996.29516      280.55157     -2.5466656      0.18767795   
   4220000  -210.15665      1305.7292      1095.5726      306.11118      1.5290038      0.18767795   
   4230000  -286.57171      1277.9408      991.36906      299.59654      14.758283      0.18767795   
   4240000  -283.05324      1293.9639      1010.9106      303.35294     -2.5003548      0.18767795   
   4250000  -312.29685      1296.4489      984.15208      303.93554      0.32470945     0.18767795   
   4260000  -292.70665      1285.0109      992.30423      301.25403     -4.5237646      0.18767795   
   4270000  -265.58122      1304.3693      1038.788       305.79235      4.9791876      0.18767795   
   4280000  -218.51818      1274.6115      1056.0933      298.81603     -2.5105618      0.18767795   
   4290000  -221.34518      1279.1665      1057.8214      299.8839       8.028434       0.18767795   
   4300000  -193.64579      1286.5552      1092.9094      301.61607     -4.4296562      0.18767795   
   4310000  -199.11726      1334.535       1135.4177      312.86432      5.0357366      0.18767795   
   4320000  -244.27089      1228.6469      984.37603      288.04024      7.4730636      0.18767795   
   4330000  -245.72681      1284.987       1039.2602      301.24843      0.53473241     0.18767795   
   4340000  -223.88478      1260.5467      1036.6619      295.51873      5.4680307      0.18767795   
   4350000  -274.92422      1298.2312      1023.307       304.35337     -4.8188398      0.18767795   
   4360000  -225.89157      1305.4154      1079.5239      306.03761     -0.31480168     0.18767795   
   4370000  -272.47734      1277.005       1004.5276      299.37716      9.8129488      0.18767795   
   4380000  -265.97316      1300.145       1034.1718      304.80203     -0.40944233     0.18767795   
   4390000  -263.91799      1367.6624      1103.7444      320.63061      6.0957145      0.18767795   
   4400000  -305.97663      1266.5788      960.60213      296.93286     -0.7470827      0.18767795   
   4410000  -290.61185      1308.4747      1017.8629      306.75482     -0.0088226058   0.18767795   
   4420000  -271.21986      1263.9352      992.71538      296.31312     -6.5507523      0.18767795   
   4430000  -274.18147      1302.3237      1028.1423      305.3128       8.9445501      0.18767795   
   4440000  -246.26589      1322.3219      1076.056       310.00111     -9.586321       0.18767795   
   4450000  -206.93737      1270.2437      1063.3064      297.79207      6.6644656      0.18767795   
   4460000  -310.13892      1288.1445      978.00559      301.98867     -10.569877      0.18767795   
   4470000  -315.44776      1275.9393      960.49152      299.12731      8.8508402      0.18767795   
   4480000  -212.98393      1321.3046      1108.3206      309.76261     -7.7595628      0.18767795   
   4490000  -259.36344      1313.651       1054.2876      307.96834     -14.415695      0.18767795   
   4500000  -243.59828      1323.5488      1079.9506      310.28876      4.29194        0.18767795   
   4510000  -252.45205      1316.1462      1063.6941      308.55329      3.1531425      0.18767795   
   4520000  -288.97951      1281.615       992.63553      300.45792     -0.18676958     0.18767795   
   4530000  -243.51679      1293.2667      1049.7499      303.1895      -0.77120877     0.18767795   
   4540000  -224.47909      1258.7692      1034.2901      295.10201      3.4143647      0.18767795   
   4550000  -267.02518      1305.6159      1038.5907      306.08461      10.722837      0.18767795   
   4560000  -230.38875      1276.4894      1046.1006      299.25627     -10.253409      0.18767795   
   4570000  -263.59878      1320.2161      1056.6173      309.50744     -3.1905953      0.18767795   
   4580000  -244.12857      1271.3934      1027.2648      298.06159      0.7664133      0.18767795   
   4590000  -266.71621      1270.7048      1003.9886      297.90016     -1.1938573      0.18767795   
   4600000  -204.52133      1257.0218      1052.5005      294.69236      0.41011827     0.18767795   
   4610000  -242.52574      1271.1384      1028.6127      298.00181      5.7618896      0.18767795   
   4620000  -256.40193      1319.9216      1063.5197      309.4384       8.1968065      0.18767795   
   4630000  -154.78934      1262.4511      1107.6618      295.96519     -7.686439       0.18767795   
   4640000  -176.64514      1297.0614      1120.4162      304.07912     -3.5514192      0.18767795   
   4650000  -213.6921       1277.3405      1063.6484      299.45582     -11.742192      0.18767795   
   4660000  -272.30776      1283.3368      1011.029       300.86156     -8.2741802      0.18767795   
   4670000  -240.58826      1269.5676      1028.9793      297.63355     -0.99938768     0.18767795   
   4680000  -170.19222      1297.8669      1127.6746      304.26795      0.093425959    0.18767795   
   4690000  -241.29364      1283.7894      1042.4958      300.96768      0.49433356     0.18767795   
   4700000  -190.32287      1256.9255      1066.6026      294.66977      0.81992384     0.18767795   
   4710000  -153.73259      1242.193       1088.4604      291.21595      6.7087749      0.18767795   
   4720000  -144.06354      1325.517       1181.4535      310.75016     -2.6825003      0.18767795   
   4730000  -120.3368       1286.9367      1166.5999      301.70552      10.047804      0.18767795   
   4740000  -183.1607       1261.6151      1078.4544      295.76919      2.0398708      0.18767795   
   4750000  -175.80591      1244.0871      1068.2811      291.65998      2.8101259      0.18767795   
   4760000  -240.93007      1257.6734      1016.7434      294.84513      2.11716        0.18767795   
   4770000  -174.21635      1290.0196      1115.8032      302.42826      8.1530998      0.18767795   
   4780000  -244.95951      1326.9114      1081.9519      311.07707     -0.33430988     0.18767795   
   4790000  -256.04473      1308.7783      1052.7335      306.82599     -0.26924051     0.18767795   
   4800000  -219.46458      1289.1536      1069.689       302.22523     -3.4286165      0.18767795   
   4810000  -193.12173      1281.1119      1087.9902      300.33998     -6.710907       0.18767795   
   4820000  -214.32706      1301.1527      1086.8256      305.03826      6.2588033      0.18767795   
   4830000  -245.97631      1320.8058      1074.8294      309.64567     -11.899892      0.18767795   
   4840000  -166.90007      1301.3266      1134.4266      305.07905      7.9616944      0.18767795   
   4850000  -244.09906      1259.3667      1015.2676      295.24209     -9.5068479      0.18767795   
   4860000  -192.47586      1270.4496      1077.9737      297.84032      2.739359       0.18767795   
   4870000  -302.26553      1281.2303      978.96475      300.36772     -2.0151688      0.18767795   
   4880000  -233.29022      1304.2054      1070.9152      305.75394     -0.83021097     0.18767795   
   4890000  -219.99645      1237.7501      1017.7536      290.17436     -4.1753751      0.18767795   
   4900000  -197.02611      1250.6556      1053.6295      293.19989     -2.2762927      0.18767795   
   4910000  -209.04599      1284.2744      1075.2284      301.08137     -5.0290015      0.18767795   
   4920000  -264.91099      1290.4264      1025.5154      302.52362      2.6340462      0.18767795   
   4930000  -231.71674      1295.3046      1063.5878      303.66726      3.1937372      0.18767795   
   4940000  -225.98759      1275.9554      1049.9678      299.13108      1.6150955      0.18767795   
   4950000  -261.28181      1317.6679      1056.3861      308.91004      3.4090041      0.18767795   
   4960000  -151.7011       1294.6189      1142.9178      303.5065      -4.3094225      0.18767795   
   4970000  -200.02524      1256.3464      1056.3212      294.53402      5.6072953      0.18767795   
   4980000  -211.78106      1236.0911      1024.31        289.78542      12.871018      0.18767795   
   4990000  -182.72946      1284.7626      1102.0331      301.19583      3.8280494      0.18767795   
   5000000  -168.19852      1314.448       1146.2495      308.15518      1.7853391      0.18767795   
Loop time of 3811.99 on 4 procs for 5000000 steps with 1432 atoms

Performance: 1133.265 ns/day, 0.021 hours/ns, 1311.650 timesteps/s, 1.878 Matom-step/s
99.6% CPU use with 4 MPI tasks x 1 OpenMP threads

MPI task timing breakdown:
Section |  min time  |  avg time  |  max time  |%varavg| %total
---------------------------------------------------------------
Pair    | 2529.1     | 2805.2     | 3185.8     | 483.1 | 73.59
Bond    | 100.1      | 108.03     | 117.76     |  61.2 |  2.83
Neigh   | 7.3693     | 7.3771     | 7.3866     |   0.3 |  0.19
Comm    | 444.17     | 836.71     | 1115.9     | 909.0 | 21.95
Output  | 0.15248    | 0.23676    | 0.36563    |  16.2 |  0.01
Modify  | 44.889     | 46.99      | 49.985     |  29.3 |  1.23
Other   |            | 7.403      |            |       |  0.19

Nlocal:            358 ave         437 max         286 min
Histogram: 1 0 0 0 2 0 0 0 0 1
Nghost:        1397.25 ave        1452 max        1305 min
Histogram: 1 0 0 0 0 0 1 0 1 1
Neighs:        4380.75 ave        5641 max        2970 min
Histogram: 1 0 0 0 1 0 1 0 0 1

Total # of neighbors = 17523
Ave neighs/atom = 12.236732
Ave special neighs/atom = 5.1536313
Neighbor list builds = 9943
Dangerous builds = 0

# ===============================
# 4. PRODUCTION
# ===============================
# Reset averages for production
unfix favg
fix favg all ave/time 10000 10 100000 v_vpe v_vke v_vT v_vE v_vRg     file outputs/thermo_${tag}_production.dat
fix favg all ave/time 10000 10 100000 v_vpe v_vke v_vT v_vE v_vRg     file outputs/thermo_100ASO_extended_14mer_unmodified_production.dat

restart 10000000 outputs/backup_${tag}.*.restart
restart 10000000 outputs/backup_100ASO_extended_14mer_unmodified.*.restart
run 100000000
Generated 0 of 6 mixed pair_coeff terms from geometric mixing rule
Per MPI rank memory allocation (min/avg/max) = 8.638 | 8.639 | 8.64 Mbytes
   Step         PotEng         KinEng         TotEng          Temp          Press         Density    
   5000000  -168.19852      1314.448       1146.2495      308.15518      1.7853391      0.18767795   
   5010000  -176.11227      1266.8212      1090.709       296.98971     -1.5575538      0.18767795   
   5020000  -198.93336      1272.5608      1073.6275      298.33528      8.4877305      0.18767795   
   5030000  -225.36269      1312.148       1086.7853      307.61598     -1.1953077      0.18767795   
   5040000  -134.74366      1291.8079      1157.0642      302.8475      -2.2774826      0.18767795   
   5050000  -148.7278       1277.7566      1129.0288      299.55336      5.4630262      0.18767795   
   5060000  -139.14744      1261.0778      1121.9304      295.64324      8.1356935      0.18767795   
   5070000  -119.81992      1349.9015      1230.0816      316.46679      6.0892757      0.18767795   
   5080000  -150.69455      1268.7479      1118.0534      297.4414      -2.6814493      0.18767795   
   5090000  -214.01122      1261.2118      1047.2006      295.67465      6.593892       0.18767795   
   5100000  -174.62914      1294.6023      1119.9732      303.50262      2.6492116      0.18767795   
   5110000  -144.84797      1260.6769      1115.8289      295.54924      1.222224       0.18767795   
   5120000  -184.29607      1264.1097      1079.8136      296.35403     -3.6658755      0.18767795   
   5130000  -176.13654      1257.5876      1081.4511      294.82501      2.4304684      0.18767795   
   5140000  -171.93958      1264.5423      1092.6028      296.45545      4.4954239      0.18767795   
   5150000  -173.56043      1273.7807      1100.2203      298.62127     -0.91734554     0.18767795   
   5160000  -231.48268      1194.6885      963.20585      280.07913      0.83769744     0.18767795   
   5170000  -153.45783      1286.2732      1132.8154      301.54997      7.6569258      0.18767795   
   5180000  -178.85151      1292.2561      1113.4046      302.95258     -0.15289078     0.18767795   
   5190000  -230.56856      1229.1481      998.57956      288.15774     -3.3701346      0.18767795   
   5200000  -158.89327      1284.189       1125.2958      301.06137     -1.0686192      0.18767795   
   5210000  -146.63651      1263.8889      1117.2523      296.30225      9.6370978      0.18767795   
   5220000  -178.23848      1307.2233      1128.9848      306.46144     -2.3206371      0.18767795   
   5230000  -101.55285      1260.163       1158.6102      295.42877      8.9911974      0.18767795   
   5240000  -199.41996      1274.6591      1075.2392      298.8272      -0.22981528     0.18767795   
   5250000  -136.38209      1332.2767      1195.8947      312.3349       5.7693262      0.18767795   
   5260000  -194.53848      1253.745       1059.2065      293.92415      4.1761199      0.18767795   
   5270000  -240.6303       1262.1782      1021.5479      295.90121     -0.74446125     0.18767795   
   5280000  -213.11366      1261.8355      1048.7218      295.82086     -5.785414       0.18767795   
   5290000  -169.43485      1272.2399      1102.805       298.26004      3.7445038      0.18767795   
   5300000  -247.84079      1243.5418      995.701        291.53215      7.2831633      0.18767795   
   5310000  -171.8848       1269.9546      1098.0698      297.7243      -4.0104865      0.18767795   
   5320000  -229.11294      1297.7156      1068.6027      304.2325       3.3901388      0.18767795   
   5330000  -191.86207      1289.6861      1097.8241      302.35008     -0.23729416     0.18767795   
   5340000  -195.69745      1256.8505      1061.153       294.65219     -0.44355073     0.18767795   
   5350000  -148.9098       1296.1873      1147.2775      303.87421      2.1792495      0.18767795   
   5360000  -196.87705      1314.1076      1117.2306      308.07538     -2.3185076      0.18767795   
   5370000  -222.99453      1248.0252      1025.0306      292.58321     -1.7443998      0.18767795   
   5380000  -245.74914      1229.3166      983.56746      288.19724      0.8887697      0.18767795   
   5390000  -272.15522      1243.3096      971.15435      291.4777       0.96128154     0.18767795   
   5400000  -232.32947      1269.0197      1036.6902      297.50511     -1.6834416      0.18767795   
   5410000  -181.54443      1287.2004      1105.6559      301.76733     -1.0291499      0.18767795   
   5420000  -227.7668       1279.5369      1051.7701      299.97073     -1.0344557      0.18767795   
   5430000  -182.06008      1290.0569      1107.9968      302.437       -0.65614895     0.18767795   
   5440000  -209.84632      1247.8219      1037.9756      292.53557     -7.1290288      0.18767795   
   5450000  -290.90525      1251.8743      960.96908      293.4856       15.916137      0.18767795   
   5460000  -202.37872      1257.3107      1054.932       294.76009     -2.918394       0.18767795   
   5470000  -207.94037      1309.2421      1101.3018      306.93474      2.0575203      0.18767795   
   5480000  -228.22975      1276.7641      1048.5344      299.32069      4.0348036      0.18767795   
   5490000  -261.61783      1303.0717      1041.4538      305.48815     -8.5528034      0.18767795   
   5500000  -225.04655      1279.4164      1054.3698      299.94248     -0.28941667     0.18767795   
   5510000  -252.69964      1321.905       1069.2054      309.90339     -2.6353212      0.18767795   
   5520000  -301.28224      1283.271       981.98879      300.84615      6.7428954      0.18767795   
   5530000  -221.32054      1307.981       1086.6604      306.63907     -0.27430612     0.18767795   
   5540000  -158.4692       1228.3094      1069.8402      287.96112      5.7279148      0.18767795   
   5550000  -179.20038      1290.2733      1111.0729      302.48774     -2.5212839      0.18767795   
   5560000  -196.70108      1284.0188      1087.3177      301.02145     -4.7533579      0.18767795   
   5570000  -149.29184      1305.7502      1156.4584      306.1161      -2.5148837      0.18767795   
   5580000  -178.53865      1259.8365      1081.2978      295.35222      6.0797254      0.18767795   
   5590000  -231.25474      1279.7101      1048.4554      300.01134     -0.097959165    0.18767795   
   5600000  -226.29619      1242.2129      1015.9168      291.22062     -5.1414804      0.18767795   
   5610000  -165.13334      1283.915       1118.7816      300.99711      4.3390237      0.18767795   
   5620000  -234.84604      1303.9575      1069.1115      305.69583      0.63964947     0.18767795   
   5630000  -176.05261      1254.3998      1078.3472      294.07766      3.4279209      0.18767795   
   5640000  -195.71493      1215.0292      1019.3143      284.84774     -1.1485273      0.18767795   
   5650000  -150.71781      1334.0322      1183.3144      312.74645      3.1272206      0.18767795   
   5660000  -163.02026      1256.4129      1093.3926      294.5496       1.2774829      0.18767795   
   5670000  -160.38973      1345.034       1184.6442      315.32566      14.358592      0.18767795   
   5680000  -107.06434      1275.1544      1168.0901      298.94331     -0.97086884     0.18767795   
   5690000  -120.67319      1257.065       1136.3918      294.70248      3.2826741      0.18767795   
   5700000  -210.20387      1304.1682      1093.9643      305.74521     -6.5778316      0.18767795   
   5710000  -150.107        1238.8025      1088.6955      290.42108     -7.2363092      0.18767795   
   5720000  -175.16615      1311.6665      1136.5004      307.5031       5.4504241      0.18767795   
   5730000  -152.03873      1241.7382      1089.6995      291.10933      4.9410948      0.18767795   
   5740000  -184.70518      1266.0322      1081.327       296.80472      4.3170827      0.18767795   
   5750000  -201.40006      1255.2361      1053.836       294.27372     -4.4200124      0.18767795   
   5760000  -235.66162      1266.1515      1030.4899      296.8327      -7.7501256      0.18767795   
   5770000  -195.48326      1316.5328      1121.0496      308.64394     -1.0652711      0.18767795   
   5780000  -200.42064      1328.7026      1128.282       311.49699     -1.2433814      0.18767795   
   5790000  -141.32246      1284.7482      1143.4258      301.19245      5.4895942      0.18767795   
   5800000  -201.75079      1251.8997      1050.1489      293.49155     -3.8023142      0.18767795   
   5810000  -165.94387      1241.4272      1075.4834      291.03642     -11.325792      0.18767795   
   5820000  -203.17928      1227.4148      1024.2356      287.7514      -10.06932       0.18767795   
   5830000  -156.26605      1323.2908      1167.0247      310.22826      3.6544442      0.18767795   
   5840000  -125.60167      1248.1456      1122.5439      292.61145      6.2964237      0.18767795   
   5850000  -230.23013      1290.5673      1060.3372      302.55667     -7.3930784      0.18767795   
   5860000  -152.33987      1215.7758      1063.4359      285.02277      2.2052552      0.18767795   
   5870000  -232.15286      1282.2535      1050.1006      300.6076      -1.4142727      0.18767795   
   5880000  -121.05068      1219.4982      1098.4476      285.89545      2.5279664      0.18767795   
   5890000  -113.16475      1272.2121      1159.0473      298.25352      1.132027       0.18767795   
   5900000  -161.27078      1303.0596      1141.7888      305.48531      1.2255761      0.18767795   
   5910000  -211.37369      1284.3321      1072.9584      301.0949       1.8362773      0.18767795   
   5920000  -186.10808      1213.8062      1027.6981      284.56102     -5.5309063      0.18767795   
   5930000  -211.70274      1290.7802      1079.0775      302.60658      2.0559472      0.18767795   
   5940000  -182.11101      1302.6668      1120.5558      305.39324      0.84712469     0.18767795   
   5950000  -137.50985      1264.6884      1127.1785      296.48968     -0.25370279     0.18767795   
   5960000  -148.846        1301.8348      1152.9888      305.19819      6.0459745      0.18767795   
   5970000  -160.7444       1249.3763      1088.6319      292.89996     -8.65358        0.18767795   
   5980000  -204.32946      1261.2903      1056.9608      295.69305     -3.415609       0.18767795   
   5990000  -229.93723      1271.9549      1042.0177      298.19323      8.1000641      0.18767795   
   6000000  -255.92872      1277.4389      1021.5102      299.47888     -10.850776      0.18767795   
   6010000  -246.90523      1243.0234      996.1182       291.41062      2.5927642      0.18767795   
   6020000  -289.99626      1284.3617      994.36548      301.10185      7.2076889      0.18767795   
   6030000  -246.29408      1281.3633      1035.0692      300.39891     -7.6959487      0.18767795   
   6040000  -233.52476      1344.8061      1111.2813      315.27223     -0.58473807     0.18767795   
   6050000  -281.11502      1325.9839      1044.8689      310.85963      3.3952286      0.18767795   
   6060000  -215.90503      1275.4467      1059.5417      299.01184     -1.1547642      0.18767795   
   6070000  -199.28482      1270.5725      1071.2877      297.86915      7.6838934      0.18767795   
   6080000  -251.21599      1272.4046      1021.1886      298.29864      0.27194047     0.18767795   
   6090000  -177.37401      1260.924       1083.55        295.60719     -3.001905       0.18767795   
   6100000  -232.25925      1310.748       1078.4887      307.28776     -0.47978771     0.18767795   
   6110000  -280.02669      1265.4033      985.37665      296.6573      -0.32120089     0.18767795   
   6120000  -246.70929      1257.6837      1010.9744      294.84753      1.6364087      0.18767795   
   6130000  -267.52068      1324.3         1056.7793      310.46485      3.10752        0.18767795   
   6140000  -196.94032      1336.8971      1139.9568      313.41808      3.4049502      0.18767795   
   6150000  -225.33876      1254.8506      1029.5118      294.18334      4.0040157      0.18767795   
   6160000  -222.95135      1251.8279      1028.8765      293.47471     -5.4930364      0.18767795   
   6170000  -243.57575      1267.1827      1023.607       297.07446     -4.2965422      0.18767795   
   6180000  -219.88294      1287.9886      1068.1057      301.95213     -3.2110985      0.18767795   
   6190000  -185.96269      1327.0352      1141.0725      311.10609      9.9763441      0.18767795   
   6200000  -220.04801      1316.606       1096.558       308.6611      -5.3696874      0.18767795   
   6210000  -240.93135      1278.7896      1037.8582      299.79553     -3.0956386      0.18767795   
   6220000  -274.88676      1276.321       1001.4343      299.21681      2.5123973      0.18767795   
   6230000  -239.03776      1280.912       1041.8743      300.29311      4.6484203      0.18767795   
   6240000  -171.87655      1275.0339      1103.1574      298.91507      9.7725228      0.18767795   
   6250000  -249.71098      1326.828       1077.1171      311.05752      5.1056286      0.18767795   
   6260000  -173.92737      1289.7844      1115.857       302.37312     -6.0720897      0.18767795   
   6270000  -300.61926      1307.9305      1007.3112      306.62723     -0.42345659     0.18767795   
   6280000  -206.79454      1314.0884      1107.2938      308.07087      6.8650021      0.18767795   
   6290000  -191.68703      1229.7435      1038.0565      288.29733      3.4239317      0.18767795   
   6300000  -239.29572      1266.24        1026.9443      296.85344      5.9399869      0.18767795   
   6310000  -238.38879      1275.5943      1037.2055      299.04643      9.7047272      0.18767795   
   6320000  -276.82232      1251.8489      975.02657      293.47964      9.7703157      0.18767795   
   6330000  -309.79661      1287.2657      977.46911      301.78265     -2.406245       0.18767795   
   6340000  -293.71066      1272.1083      978.39763      298.22919     -1.0986634      0.18767795   
   6350000  -227.61336      1308.2809      1080.6675      306.70937      1.4218736      0.18767795   
   6360000  -256.37562      1295.0847      1038.7091      303.61571      10.123859      0.18767795   
   6370000  -314.36064      1259.923       945.56232      295.3725       3.0137196      0.18767795   
   6380000  -253.10334      1245.5472      992.44384      292.00228     -5.2837012      0.18767795   
   6390000  -320.68806      1272.4103      951.72224      298.29999      5.1640826      0.18767795   
   6400000  -275.9072       1286.3697      1010.4625      301.57259      4.1390471      0.18767795   
   6410000  -357.64441      1284.13        926.48556      301.04751     -2.5982236      0.18767795   
   6420000  -282.44809      1277.5563      995.10822      299.50641      3.273451       0.18767795   
   6430000  -263.62407      1315.6572      1052.0331      308.43865     -2.7119324      0.18767795   
   6440000  -253.27671      1330.1808      1076.9041      311.84354      1.5264654      0.18767795   
   6450000  -293.14992      1280.2057      987.05574      300.12751     -1.652436       0.18767795   
   6460000  -255.84383      1334.6253      1078.7815      312.88549     -1.967543       0.18767795   
   6470000  -281.87023      1308.1642      1026.294       306.68203     -1.0501637      0.18767795   
   6480000  -256.84899      1283.9568      1027.1078      301.00692      9.5532305      0.18767795   
   6490000  -246.11253      1273.0768      1026.9642      298.45624      2.4158525      0.18767795   
   6500000  -227.0475       1245.6261      1018.5786      292.02077      5.617757       0.18767795   
   6510000  -271.22227      1274.1202      1002.8979      298.70085     -2.0851819      0.18767795   
   6520000  -284.52558      1243.1111      958.58549      291.43117      0.89755023     0.18767795   
   6530000  -234.96052      1293.7891      1058.8286      303.31197     -3.6327657      0.18767795   
   6540000  -203.12541      1285.7687      1082.6432      301.43168     -1.2120243      0.18767795   
   6550000  -233.29734      1232.8104      999.51303      289.0163       0.11620765     0.18767795   
   6560000  -215.93214      1233.4548      1017.5226      289.16738      2.5402273      0.18767795   
   6570000  -252.12546      1277.5459      1025.4205      299.50397     -8.4095864      0.18767795   
   6580000  -236.33403      1245.1785      1008.8444      291.91584      7.1961551      0.18767795   
   6590000  -172.09944      1266.3211      1094.2216      296.87245     -2.3329112      0.18767795   
   6600000  -294.54134      1233.8547      939.31334      289.26113      9.4785386      0.18767795   
   6610000  -290.44492      1274.5711      984.12614      298.80655      3.7847466      0.18767795   
   6620000  -249.98256      1277.1711      1027.1885      299.4161       0.10089292     0.18767795   
   6630000  -274.53117      1282.5649      1008.0338      300.68061     -4.1127759      0.18767795   
   6640000  -237.70011      1270.359       1032.6589      297.81909     -5.3065896      0.18767795   
   6650000  -198.92543      1265.8953      1066.9699      296.77264      7.1871369      0.18767795   
   6660000  -256.88062      1288.6932      1031.8126      302.11731      3.4059647      0.18767795   
   6670000  -268.29157      1317.7899      1049.4983      308.93864      11.969828      0.18767795   
   6680000  -351.89808      1300.1077      948.20967      304.7933      -0.86156804     0.18767795   
   6690000  -297.43278      1260.081       962.64826      295.40956      1.950169       0.18767795   
   6700000  -256.83334      1311.4886      1054.6553      307.46139      8.6595597      0.18767795   
   6710000  -266.65147      1274.5632      1007.9117      298.8047       3.063961       0.18767795   
   6720000  -203.09852      1291.8314      1088.7328      302.85301      0.66436812     0.18767795   
   6730000  -215.96819      1286.3431      1070.3749      301.56635      1.6971629      0.18767795   
   6740000  -233.5144       1295.1748      1061.6604      303.63684     -4.4259278      0.18767795   
   6750000  -238.97898      1238.525       999.546        290.35602      5.4206107      0.18767795   
   6760000  -179.17234      1252.3343      1073.162       293.59345     -3.6286532      0.18767795   
   6770000  -225.49631      1280.192       1054.6957      300.1243      -3.0116374      0.18767795   
   6780000  -157.21216      1260.7732      1103.561       295.57182      7.4280146      0.18767795   
   6790000  -201.25134      1254.3977      1053.1463      294.07716      6.3763636      0.18767795   
   6800000  -177.4205       1307.0912      1129.6707      306.43047     -4.9668924      0.18767795   
   6810000  -217.98451      1283.5254      1065.5409      300.90578      1.1505059      0.18767795   
   6820000  -145.12883      1292.4437      1147.3148      302.99655      0.87634833     0.18767795   
   6830000  -182.36952      1265.0071      1082.6375      296.5644      -1.398865       0.18767795   
   6840000  -153.22351      1279.8101      1126.5866      300.03478      3.9788677      0.18767795   
   6850000  -216.85235      1264.1369      1047.2845      296.36039     -7.0332232      0.18767795   
   6860000  -164.76975      1269.0192      1104.2494      297.50499     -4.2424918      0.18767795   
   6870000  -189.1234       1284.1639      1095.0405      301.05548      4.2207588      0.18767795   
   6880000  -128.51296      1293.2241      1164.7112      303.17952     -3.5896051      0.18767795   
   6890000  -219.60984      1271.8857      1052.2759      298.17702      9.1164813      0.18767795   
   6900000  -250.45585      1265.7722      1015.3164      296.74378     -1.5061336      0.18767795   
   6910000  -211.01422      1292.7575      1081.7433      303.07013     -3.2372084      0.18767795   
   6920000  -236.01514      1292.145       1056.1298      302.92653      2.2398726      0.18767795   
   6930000  -214.74976      1298.247       1083.4973      304.35708      8.7397566      0.18767795   
   6940000  -276.26366      1318.654       1042.3903      309.14121     -3.8364802      0.18767795   
   6950000  -275.73835      1316.9717      1041.2333      308.74683      9.2567962      0.18767795   
   6960000  -190.53766      1322.4748      1131.9371      310.03695     -2.0166375      0.18767795   
   6970000  -195.78227      1269.4796      1073.6973      297.61292      4.3598719      0.18767795   
   6980000  -222.57617      1283.6472      1061.071       300.93434     -1.2175457      0.18767795   
   6990000  -283.42508      1268.0681      984.64301      297.28202      10.315369      0.18767795   
   7000000  -217.09724      1282.1046      1065.0073      300.57269      6.912385       0.18767795   
[...]
  62570000  -220.17256      1248.1239      1027.9513      292.60636      0.20176492     0.18767795   
  62580000  -239.99228      1270.2041      1030.2119      297.78279      6.5398282      0.18767795   
  62590000  -321.43824      1300.6418      979.20359      304.91851      1.4500063      0.18767795   
  62600000  -333.69608      1313.0262      979.33008      307.82185      1.5782436      0.18767795   
  62610000  -278.90913      1280.2502      1001.3411      300.13795      0.32435794     0.18767795   
  62620000  -291.816        1339.9293      1048.1133      314.12895      5.1230423      0.18767795   
  62630000  -217.01443      1271.4268      1054.4124      298.06942      1.7273253      0.18767795   
  62640000  -267.75884      1292.0471      1024.2882      302.90358     -1.5957366      0.18767795   
  62650000  -209.30404      1294.9624      1085.6583      303.58703     -5.8629905      0.18767795   
  62660000  -210.68086      1302.6431      1091.9622      305.38768      3.197535       0.18767795   
  62670000  -231.97736      1321.8443      1089.867       309.88915      6.6927554      0.18767795   
  62680000  -238.97647      1247.0164      1008.0399      292.34673      0.95008593     0.18767795   
  62690000  -235.76092      1296.704       1060.9431      303.99533     -3.324726       0.18767795   
  62700000  -231.62468      1274.809       1043.1843      298.86234      12.735901      0.18767795   
  62710000  -224.68908      1254.8335      1030.1444      294.17934      6.1548143      0.18767795   
  62720000  -223.14531      1280.0646      1056.9193      300.09444      8.0287729      0.18767795   
  62730000  -232.19051      1294.7353      1062.5448      303.5338       5.317783       0.18767795   
  62740000  -243.13789      1289.7678      1046.6299      302.36924     -0.82888653     0.18767795   
  62750000  -254.97457      1301.456       1046.4814      305.10937     -6.4837312      0.18767795   
  62760000  -300.27213      1295.5266      995.25448      303.71931      8.6453248      0.18767795   
  62770000  -295.91806      1253.3944      957.47633      293.84196      3.9119606      0.18767795   
  62780000  -202.01566      1286.5461      1084.5304      301.61394      5.1728757      0.18767795   
  62790000  -286.05622      1260.739       974.68276      295.5638      -1.3234187      0.18767795   
  62800000  -246.51344      1294.5346      1048.0212      303.48675     -1.2602077      0.18767795   
  62810000  -297.77976      1338.867       1041.0872      313.8799       4.1189476      0.18767795   
  62820000  -239.07996      1308.4972      1069.4173      306.7601       0.66429952     0.18767795   
  62830000  -308.68357      1238.8777      930.1941       290.4387       3.5145417      0.18767795   
  62840000  -373.38231      1263.8062      890.42394      296.28288      2.8573831      0.18767795   
  62850000  -273.26223      1318.2861      1045.0239      309.05498      1.502217       0.18767795   
  62860000  -326.75382      1308.6378      981.88399      306.79306      3.4831118      0.18767795   
  62870000  -321.95491      1319.9667      998.01176      309.44896      3.5411744      0.18767795   
  62880000  -263.64714      1302.8429      1039.1958      305.43451      1.884837       0.18767795   
  62890000  -331.91709      1297.5948      965.67773      304.20417     -2.1131958      0.18767795   
  62900000  -368.83582      1276.7823      907.94652      299.32496     -0.25307458     0.18767795   
  62910000  -341.33125      1248.067       906.73573      292.59302     -3.0379981      0.18767795   
  62920000  -343.23943      1307.2184      963.97901      306.4603       3.321256       0.18767795   
  62930000  -393.40062      1240.8423      847.4417       290.89929      8.0451744      0.18767795   
  62940000  -322.54389      1266.3773      943.83342      296.88563      3.6943493      0.18767795   
  62950000  -323.46006      1286.2979      962.83783      301.55576      7.0524457      0.18767795   
  62960000  -333.12062      1279.6351      946.51446      299.99375      1.514079       0.18767795   
  62970000  -260.53826      1290.6314      1030.0932      302.5717       4.7676136      0.18767795   
  62980000  -299.04113      1260.6188      961.57766      295.53562      0.12049417     0.18767795   
  62990000  -260.5092       1286.6715      1026.1623      301.64334     -3.7223942      0.18767795   
  63000000  -227.53633      1276.0182      1048.4819      299.14582     -1.3051956      0.18767795   
  63010000  -239.10201      1268.3391      1029.237       297.34554     -11.122223      0.18767795   
  63020000  -342.51229      1275.6251      933.11281      299.05366     -1.0023466      0.18767795   
  63030000  -195.86999      1304.2658      1108.3958      305.76809      4.3517779      0.18767795   
  63040000  -245.53674      1290.4271      1044.8904      302.5238       0.30969281     0.18767795   
  63050000  -288.6748       1282.4062      993.73139      300.6434      -8.400825       0.18767795   
  63060000  -289.69397      1295.6015      1005.9075      303.73687     -3.3075435      0.18767795   
  63070000  -313.05052      1296.1214      983.0709       303.85875     -7.8241955      0.18767795   
  63080000  -260.61767      1284.8908      1024.2732      301.22589     -3.3855399      0.18767795   
  63090000  -244.19031      1324.4724      1080.2821      310.50527     -8.5657014      0.18767795   
  63100000  -308.83531      1308.7718      999.93644      306.82446     -4.9991643      0.18767795   
  63110000  -206.04771      1213.4808      1007.4331      284.48474      10.455468      0.18767795   
  63120000  -225.39676      1267.4304      1042.0337      297.13252     -2.701823       0.18767795   
  63130000  -233.24682      1354.506       1121.2592      317.54626     -8.634817       0.18767795   
  63140000  -228.8362       1307.4331      1078.5969      306.51062      4.9937382      0.18767795   
  63150000  -273.2431       1265.1451      991.90197      296.59675      0.18756412     0.18767795   
  63160000  -261.61985      1231.2056      969.58579      288.6401       2.2594958      0.18767795   
  63170000  -155.9215       1294.9407      1139.0192      303.58196      4.3756038      0.18767795   
  63180000  -275.26341      1290.2586      1014.9952      302.48429     -0.066869566    0.18767795   
  63190000  -261.16932      1273.1277      1011.9583      298.46817     -3.9230232      0.18767795   
  63200000  -319.48476      1259.8242      940.33944      295.34934     -0.046503362    0.18767795   
  63210000  -225.16514      1280.9265      1055.7613      300.2965       3.7166679      0.18767795   
  63220000  -259.30524      1257.206       997.90075      294.73554     -3.1799806      0.18767795   
  63230000  -352.12607      1302.7789      950.65283      305.41951      7.0115411      0.18767795   
  63240000  -295.99137      1279.9601      983.96875      300.06995      10.068616      0.18767795   
  63250000  -337.13222      1279.2809      942.14867      299.91071      10.049641      0.18767795   
  63260000  -262.73122      1292.4729      1029.7417      303.00341      2.0202818      0.18767795   
  63270000  -225.65254      1228.1837      1002.5311      287.93163      2.3303358      0.18767795   
  63280000  -295.28091      1279.6326      984.35174      299.99318      4.5158777      0.18767795   
  63290000  -331.07082      1301.3231      970.25225      305.07821      4.6889647      0.18767795   
  63300000  -277.01016      1252.3026      975.29244      293.586        5.0250036      0.18767795   
  63310000  -312.34918      1301.9272      989.57807      305.21985     -0.60971316     0.18767795   
  63320000  -381.62145      1284.7263      903.10484      301.18732     -2.0762807      0.18767795   
  63330000  -329.65128      1228.9134      899.26207      288.1027      -1.6986432      0.18767795   
  63340000  -298.34519      1273.4923      975.1471       298.55365     -5.3990895      0.18767795   
  63350000  -347.9907       1288.1363      940.14561      301.98675      0.21825158     0.18767795   
  63360000  -265.09577      1265.7709      1000.6751      296.74346     -5.8442335      0.18767795   
  63370000  -285.59269      1313.9587      1028.366       308.04047     -2.0839943      0.18767795   
  63380000  -303.5859       1274.2062      970.62035      298.72103     -2.6759371      0.18767795   
  63390000  -315.72707      1247.6977      931.97062      292.50644     -5.0433158      0.18767795   
  63400000  -350.25548      1285.7394      935.4839       301.42482     -4.6394085      0.18767795   
  63410000  -376.13905      1303.8299      927.69088      305.66591     -4.553313       0.18767795   
  63420000  -323.16308      1305.0701      981.90706      305.95666     -1.4301867      0.18767795   
  63430000  -287.65292      1246.4134      958.76053      292.20537     -1.9022266      0.18767795   
  63440000  -246.06486      1316.8315      1070.7666      308.71396      2.7858551      0.18767795   
  63450000  -332.85039      1275.1501      942.29974      298.94231     -3.0849647      0.18767795   
  63460000  -285.6409       1242.7736      957.13269      291.35205     -2.6348844      0.18767795   
  63470000  -237.84016      1290.7492      1052.9091      302.59931     -1.4074375      0.18767795   
  63480000  -244.5377       1305.4314      1060.8937      306.04135     -8.8578571      0.18767795   
  63490000  -243.01619      1294.8185      1051.8023      303.55331     -4.7458481      0.18767795   
  63500000  -242.50529      1281.442       1038.9367      300.41736      5.4637919      0.18767795   
  63510000  -316.07528      1280.0205      963.94521      300.0841       0.33662916     0.18767795   
  63520000  -220.40247      1316.1336      1095.7312      308.55036     -1.117066       0.18767795   
  63530000  -231.00655      1292.8361      1061.8295      303.08854      1.3730299      0.18767795   
  63540000  -265.2439       1241.1986      975.95471      290.98282      7.3958274      0.18767795   
  63550000  -255.06848      1298.2894      1043.2209      304.367       -8.7480984      0.18767795   
  63560000  -198.39797      1287.4979      1089.0999      301.83707     -2.6422561      0.18767795   
  63570000  -229.99293      1275.9822      1045.9893      299.13739      5.4777686      0.18767795   
  63580000  -290.01971      1274.945       984.92527      298.89422      0.63350221     0.18767795   
  63590000  -163.4295       1272.3557      1108.9262      298.28718      10.486535      0.18767795   
  63600000  -198.30079      1273.0385      1074.7378      298.44728      4.4050582      0.18767795   
  63610000  -278.25898      1307.2236      1028.9646      306.46152      7.0327253      0.18767795   
  63620000  -306.16438      1314.5114      1008.3471      308.17005     -0.66232363     0.18767795   
  63630000  -269.56611      1273.3519      1003.7858      298.52073      7.0626165      0.18767795   
  63640000  -242.83405      1271.9689      1029.1348      298.19651     -10.48269       0.18767795   
  63650000  -284.69809      1294.7496      1010.0515      303.53714      5.5735526      0.18767795   
  63660000  -334.36004      1327.3445      992.9845       311.17861      3.792084       0.18767795   
  63670000  -317.24415      1224.2928      907.04865      287.01947     -3.1111871      0.18767795   
  63680000  -263.89615      1297.9435      1034.0474      304.28593      7.0654115      0.18767795   
  63690000  -263.80902      1279.1692      1015.3602      299.88453      4.8224055      0.18767795   
  63700000  -260.88842      1298.5027      1037.6143      304.41702     -2.0776416      0.18767795   
  63710000  -237.31007      1295.7663      1058.4562      303.77549      3.5324054      0.18767795   
  63720000  -272.8103       1267.4818      994.67147      297.14456     -3.4768593      0.18767795   
  63730000  -261.11527      1320.1691      1059.0538      309.49642     -2.1590556      0.18767795   
  63740000  -252.53961      1247.3753      994.83566      292.43085     -1.9913644      0.18767795   
  63750000  -256.44226      1268.2033      1011.761       297.31371      2.4170091      0.18767795   
  63760000  -224.578        1251.5783      1027.0003      293.41621     -7.3798731      0.18767795   
  63770000  -246.71239      1286.9835      1040.2711      301.71649      2.5229718      0.18767795   
  63780000  -244.7656       1262.2078      1017.4422      295.90815      2.9061304      0.18767795   
  63790000  -267.07154      1312.5667      1045.4951      307.71413     -7.6855927      0.18767795   
  63800000  -295.16879      1298.0461      1002.8773      304.30997      1.636825       0.18767795   
  63810000  -230.32456      1250.1204      1019.7959      293.07442      4.4043041      0.18767795   
  63820000  -294.70457      1310.522       1015.8174      307.23478     -4.2841483      0.18767795   
  63830000  -229.64295      1222.9284      993.28547      286.69961      3.4388531      0.18767795   
  63840000  -179.31852      1253.2385      1073.9199      293.8054      -4.5411798      0.18767795   
  63850000  -234.08987      1309.3367      1075.2468      306.95691      13.349567      0.18767795   
  63860000  -259.18601      1288.1693      1028.9832      301.99447      2.5644692      0.18767795   
  63870000  -209.79095      1313.4654      1103.6744      307.92482      1.8338037      0.18767795   
  63880000  -263.55657      1273.0555      1009.4989      298.45124      3.9626193      0.18767795   
  63890000  -309.86648      1286.2876      976.42114      301.55335      4.3902022      0.18767795   
  63900000  -316.7218       1287.5465      970.82471      301.84848      1.3120927      0.18767795   
  63910000  -278.57628      1274.6501      996.07378      298.82507     -1.7124532      0.18767795   
  63920000  -265.73873      1331.2616      1065.5229      312.09691     -0.78428202     0.18767795   
  63930000  -301.54623      1294.1603      992.61403      303.39899      13.205215      0.18767795   
  63940000  -283.93936      1255.6526      971.71321      294.37136      4.7790624      0.18767795   
  63950000  -303.83136      1323.1104      1019.279       310.18597     -7.2260935      0.18767795   
  63960000  -212.70649      1283.0849      1070.3784      300.8025      -2.4667844      0.18767795   
  63970000  -284.36225      1306.7885      1022.4263      306.35952      1.1678029      0.18767795   
  63980000  -218.38515      1291.2648      1072.8797      302.72019      0.72852437     0.18767795   
  63990000  -296.82499      1259.5456      962.72065      295.28404      0.71624722     0.18767795   
  64000000  -258.34363      1271.5754      1013.2317      298.10425      2.9543503      0.18767795   
  64010000  -285.87193      1292.6746      1006.8026      303.05068     -4.5740563      0.18767795   
  64020000  -308.64985      1287.5576      978.90775      301.85108     -0.68687429     0.18767795   
  64030000  -279.97545      1274.8288      994.85339      298.86699      6.4688095      0.18767795   
  64040000  -252.22877      1295.267       1043.0382      303.65844      4.6030596      0.18767795   
  64050000  -214.00769      1300.6584      1086.6507      304.92239      4.3362079      0.18767795   
  64060000  -283.0245       1266.3974      983.37293      296.89035      3.9184441      0.18767795   
  64070000  -285.71858      1286.0073      1000.2888      301.48764     -4.3992303      0.18767795   
  64080000  -233.45455      1257.5129      1024.0584      294.8075      -6.6804858      0.18767795   
  64090000  -263.80578      1309.8393      1046.0335      307.07472      3.7039971      0.18767795   
  64100000  -281.28784      1285.9478      1004.66        301.47369     -3.8872677      0.18767795   
  64110000  -253.76562      1255.0788      1001.3131      294.23684     -3.2499522      0.18767795   
  64120000  -302.94338      1275.1175      972.17416      298.93467     -3.2280116      0.18767795   
  64130000  -302.13334      1243.6807      941.54738      291.56472      1.370169       0.18767795   
  64140000  -289.40697      1268.4911      979.08411      297.38118      0.8416394      0.18767795   
  64150000  -232.93264      1322.2496      1089.3169      309.98415     -2.118601       0.18767795   
  64160000  -250.25652      1295.9306      1045.6741      303.81401      5.0723966      0.18767795   
  64170000  -277.9997       1258.0647      980.06496      294.93684     -5.6432466      0.18767795   
  64180000  -292.39392      1308.5987      1016.2048      306.78389     -1.5178838      0.18767795   
  64190000  -327.32873      1275.5253      948.19652      299.03025      3.3390291      0.18767795   
  64200000  -288.99828      1312.752       1023.7538      307.75758     -9.4943959      0.18767795   
  64210000  -321.24487      1285.6079      964.36303      301.394        3.5742061      0.18767795   
  64220000  -324.46158      1298.9133      974.45168      304.51326      8.3576907      0.18767795   
  64230000  -247.07003      1275.9902      1028.9201      299.13924      3.3315648      0.18767795   
  64240000  -307.80157      1306.2763      998.47472      306.23943     -3.544775       0.18767795   
  64250000  -306.54631      1229.9725      923.4262       288.351        2.0284236      0.18767795   
  64260000  -237.36174      1287.6404      1050.2787      301.87049      5.9421947      0.18767795   
  64270000  -260.40483      1295.9593      1035.5545      303.82075      2.3605607      0.18767795   
  64280000  -260.59469      1223.8705      963.27579      286.92046     -3.0569951      0.18767795   
  64290000  -246.05978      1276.8767      1030.8169      299.34708      5.3120271      0.18767795   
  64300000  -229.00066      1226.5805      997.57983      287.55579      7.2177299      0.18767795   
  64310000  -217.93633      1257.6798      1039.7435      294.84663     -1.1075681      0.18767795   
  64320000  -201.56669      1280.8388      1079.2722      300.27595      1.7962038      0.18767795   
  64330000  -235.78806      1292.5588      1056.7707      303.02354     -5.048021       0.18767795   
  64340000  -259.31606      1259.9634      1000.6474      295.38198      3.4735594      0.18767795   
  64350000  -179.51581      1244.743       1065.2272      291.81376      1.84467        0.18767795   
  64360000  -238.53751      1295.4782      1056.9407      303.70796      4.5454032      0.18767795   
  64370000  -235.85836      1305.8529      1069.9945      306.14016     -7.3923659      0.18767795   
  64380000  -259.56456      1301.5257      1041.9611      305.12571      8.068091       0.18767795   
  64390000  -193.77264      1250.3568      1056.5841      293.12983      2.6495738      0.18767795   
  64400000  -208.5113       1294.4713      1085.96        303.4719       3.2560561      0.18767795   
  64410000  -222.03789      1272.0298      1049.992       298.2108       0.52218722     0.18767795   
  64420000  -173.36847      1292.6751      1119.3067      303.05082     -3.9970308      0.18767795   
  64430000  -174.30536      1276.7582      1102.4529      299.31931      4.9737353      0.18767795   
  64440000  -185.87351      1209.4916      1023.6181      283.54952     -3.8875938      0.18767795   
  64450000  -210.45716      1269.3403      1058.8832      297.58027      9.6667578      0.18767795   
  64460000  -180.29538      1320.023       1139.7276      309.46216      5.5596822      0.18767795   
  64470000  -196.90094      1322.2009      1125.2999      309.97274      1.1922067      0.18767795   
  64480000  -237.9542       1287.391       1049.4368      301.81202     -3.4730803      0.18767795   
  64490000  -223.36509      1254.4752      1031.1102      294.09535     -4.9498446      0.18767795   
  64500000  -231.10419      1303.8441      1072.7399      305.66923      1.9981036      0.18767795   
  64510000  -215.24342      1288.6309      1073.3874      302.10269      0.29320777     0.18767795   
  64520000  -236.36858      1315.6618      1079.2932      308.43974      0.033222561    0.18767795   
