
# ===============================
# FORCE FIELD (must re-specify after restart)
# ===============================
bond_style harmonic
bond_coeff 1 7.5 5.9

angle_style harmonic
angle_coeff 1 5.0 150.0

pair_style hybrid/overlay lj/cut 10.0 base/rna 18.0
pair_modify shift yes
pair_coeff * * lj/cut 2.0 8.9089871814

pair_coeff 1 1 base/rna 0.00000 3.0 13.8 1.5 0.5 1.8326 0.9425 1.8326 1.1345
pair_coeff 1 2 base/rna 0.00000 3.0 13.8 1.5 0.5 1.8326 0.9425 1.8326 1.1345
pair_coeff 1 3 base/rna 0.00000 3.0 13.8 1.5 0.5 1.8326 0.9425 1.8326 1.1345
pair_coeff 1 4 base/rna 3.33333 3.0 13.8 1.5 0.5 1.8326 0.9425 1.8326 1.1345
pair_coeff 2 2 base/rna 0.00000 3.0 13.8 1.5 0.5 1.8326 0.9425 1.8326 1.1345
pair_coeff 2 3 base/rna 5.00000 3.0 13.8 1.5 0.5 1.8326 0.9425 1.8326 1.1345
pair_coeff 2 4 base/rna 0.00000 3.0 13.8 1.5 0.5 1.8326 0.9425 1.8326 1.1345
pair_coeff 3 3 base/rna 0.00000 3.0 13.8 1.5 0.5 1.8326 0.9425 1.8326 1.1345
pair_coeff 3 4 base/rna 3.33333 3.0 13.8 1.5 0.5 1.8326 0.9425 1.8326 1.1345
pair_coeff 4 4 base/rna 0.00000 3.0 13.8 1.5 0.5 1.8326 0.9425 1.8326 1.1345

special_bonds lj 0.0 0.0 1.0
neighbor 15.0 bin
neigh_modify every 10 delay 0
comm_style tiled
timestep 10

# ===============================
# OUTPUTS
# Separate trajectory file for restart portion
# ===============================
dump d1 all custom 50000 outputs/${tag}_restart.lammpstrj id mol type q xu yu zu
dump d1 all custom 50000 outputs/100ASO_extended_12mer_unmodified_restart.lammpstrj id mol type q xu yu zu
dump_modify d1 sort id

thermo_style custom step pe ke etotal temp press density
thermo 10000
thermo_modify flush yes

variable vpe equal pe
variable vke equal ke
variable vT  equal temp
variable vE  equal etotal
variable vRg equal gyration(all)

fix favg all ave/time 10000 10 100000 v_vpe v_vke v_vT v_vE v_vRg     file outputs/thermo_${tag}_production_restart.dat
fix favg all ave/time 10000 10 100000 v_vpe v_vke v_vT v_vE v_vRg     file outputs/thermo_100ASO_extended_12mer_unmodified_production_restart.dat

# ===============================
# PRODUCTION (continued)
# ===============================
fix fxlang all langevin ${T_target} ${T_target} 1000.0 47858
fix fxlang all langevin 300 ${T_target} 1000.0 47858
fix fxlang all langevin 300 300 1000.0 47858
fix fxnve  all nve
fix recenter all momentum 1000 linear 1 1 1

restart 10000000 outputs/backup_${tag}_restart.*.restart
restart 10000000 outputs/backup_100ASO_extended_12mer_unmodified_restart.*.restart

# UPDATE THIS: 100000000 - actual step in restart filename
run 20000000
Generated 0 of 6 mixed pair_coeff terms from geometric mixing rule
Neighbor list info ...
  update: every = 10 steps, delay = 0 steps, check = yes
  max neighbors/atom: 2000, page size: 100000
  master list distance cutoff = 33
  ghost atom cutoff = 33
  binsize = 16.5, bins = 10 10 10
  2 neighbor lists, perpetual/occasional/extra = 2 0 0
  (1) pair lj/cut, perpetual, trim from (2)
      attributes: half, newton on, cut 25
      pair build: trim
      stencil: none
      bin: none
  (2) pair base/rna, perpetual
      attributes: half, newton on
      pair build: half/bin/newton
      stencil: half/bin/3d
      bin: standard
Per MPI rank memory allocation (min/avg/max) = 7.325 | 7.325 | 7.326 Mbytes
   Step         PotEng         KinEng         TotEng          Temp          Press         Density    
  80000000  -73.20052       1085.2676      1012.0671      295.76343      4.6623626      0.16126987   
  80010000  -103.7389       1100.8175      997.07857      300.00118     -1.1836653      0.16126987   
  80020000  -111.88465      1101.4911      989.60647      300.18476      1.8143359      0.16126987   
  80030000  -150.13943      1137.2648      987.12532      309.934        9.7297909      0.16126987   
  80040000  -117.40453      1090.572       973.16745      297.20902      4.6091806      0.16126987   
  80050000  -89.666629      1097.5255      1007.8589      299.10402      8.6839883      0.16126987   
  80060000  -115.96301      1096.3404      980.37739      298.78106     -7.1739735      0.16126987   
  80070000  -74.463134      1078.9133      1004.4502      294.03173     -1.6446824      0.16126987   
  80080000  -117.60002      1128.1465      1010.5465      307.44905      0.25346269     0.16126987   
  80090000  -98.795679      1105.6197      1006.824       301.30991      9.0083087      0.16126987   
  80100000  -118.69972      1091.9252      973.22546      297.5778       0.78816519     0.16126987   
  80110000  -117.45319      1114.7506      997.29744      303.79832      0.91251519     0.16126987   
  80120000  -137.9114       1099.8197      961.90826      299.72925      0.72480186     0.16126987   
  80130000  -138.47029      1094.9649      956.49457      298.40619     -0.005572421    0.16126987   
  80140000  -133.23191      1085.7614      952.52947      295.898        0.853262       0.16126987   
  80150000  -120.22992      1122.2019      1001.9719      305.82898     -7.4907153      0.16126987   
  80160000  -139.83756      1120.5757      980.73816      305.38581      13.990459      0.16126987   
  80170000  -144.36342      1093.7489      949.38549      298.07481      5.4108204      0.16126987   
  80180000  -184.21977      1086.7147      902.4949       296.1578      -1.5494677      0.16126987   
  80190000  -115.9528       1106.4283      990.47555      301.53029     -3.7598934      0.16126987   
  80200000  -115.90138      1102.4734      986.57199      300.45245      2.3509675      0.16126987   
  80210000  -94.625284      1112.822       1018.1967      303.27272      2.4233081      0.16126987   
  80220000  -146.52678      1101.0469      954.52015      300.06371     -7.4587663      0.16126987   
  80230000  -102.72032      1131.023       1028.3027      308.23298      5.1320007      0.16126987   
  80240000  -83.558609      1103.5762      1020.0176      300.75301     -9.4767558      0.16126987   
  80250000  -120.78914      1136.6292      1015.8401      309.76081     -3.4607252      0.16126987   
  80260000  -105.08304      1101.5937      996.51062      300.21271     -0.88931336     0.16126987   
  80270000  -70.476499      1096.7519      1026.2754      298.89321     -6.4550052      0.16126987   
  80280000  -93.951496      1116.7902      1022.8387      304.35416      3.4774814      0.16126987   
  80290000  -115.21506      1058.5795      943.36445      288.49024     -0.93612845     0.16126987   
  80300000  -92.756288      1134.6107      1041.8544      309.21071     -3.2311725      0.16126987   
  80310000  -127.1048       1105.1281      978.02329      301.17593      4.2614192      0.16126987   
  80320000  -138.37823      1091.4552      953.07701      297.44973      3.4764268      0.16126987   
  80330000  -79.498176      1107.2261      1027.7279      301.7477       2.1712433      0.16126987   
  80340000  -135.76698      1099.0646      963.29764      299.52348     -4.9726739      0.16126987   
  80350000  -164.34389      1117.2252      952.88127      304.4727      -0.13539673     0.16126987   
  80360000  -135.11345      1111.9831      976.8696       303.04409     -0.69982652     0.16126987   
  80370000  -124.12675      1068.3041      944.17732      291.14044      5.8463761      0.16126987   
  80380000  -115.17374      1091.9496      976.77581      297.58444     -0.41913752     0.16126987   
  80390000  -115.8453       1158.1872      1042.3419      315.6359       4.1882867      0.16126987   
  80400000  -96.238431      1072.358       976.11958      292.24524     -2.313643       0.16126987   
  80410000  -171.43391      1091.5064      920.07249      297.46367      7.0984123      0.16126987   
  80420000  -86.911704      1081.9798      995.06807      294.86742      2.052419       0.16126987   
  80430000  -69.186664      1092.9692      1023.7825      297.86232      3.4562417      0.16126987   
  80440000  -131.27943      1060.0197      928.74024      288.88272      2.9442388      0.16126987   
  80450000  -117.94102      1099.9962      982.05517      299.77736     -9.6794936      0.16126987   
  80460000  -77.144136      1044.3359      967.19178      284.60849     -4.9131199      0.16126987   
  80470000  -95.629862      1130.8579      1035.228       308.18797      7.7690761      0.16126987   
  80480000  -75.537092      1127.1534      1051.6163      307.17841     -4.6353398      0.16126987   
  80490000  -64.42435       1135.3204      1070.896       309.40412      7.2107291      0.16126987   
  80500000  -92.242157      1093.0566      1000.8144      297.88614      4.3123536      0.16126987   
  80510000  -58.175877      1138.5292      1080.3534      310.27861      2.4329011      0.16126987   
  80520000  -111.2436       1087.3558      976.11221      296.33253     -1.6448614      0.16126987   
  80530000  -138.90195      1037.8141      898.91217      282.83114      1.6720235      0.16126987   
  80540000  -108.61431      1076.0422      967.4279       293.24928     -0.97847037     0.16126987   
  80550000  -116.87645      1071.1003      954.2238       291.90247     -0.73876203     0.16126987   
  80560000  -153.03238      1122.4076      969.37521      305.88504      0.95864792     0.16126987   
  80570000  -89.885287      1131.9988      1042.1135      308.49889     -4.2448514      0.16126987   
  80580000  -54.409192      1108.8045      1054.3953      302.17786      4.1022994      0.16126987   
  80590000  -81.134516      1086.0794      1004.9449      295.98468      6.3336475      0.16126987   
  80600000  -121.26046      1094.2247      972.96428      298.20449      1.6183794      0.16126987   
  80610000  -132.33204      1107.0468      974.7148       301.69884      7.6825871      0.16126987   
  80620000  -62.987303      1120.4657      1057.4784      305.35583      4.6237905      0.16126987   
  80630000  -57.891638      1142.0886      1084.197       311.24863     -7.6981418      0.16126987   
  80640000  -68.183658      1103.3598      1035.1761      300.69402     -0.11555143     0.16126987   
  80650000  -18.241076      1071.1846      1052.9435      291.92545      2.4692046      0.16126987   
  80660000  -30.823861      1067.3649      1036.541       290.88449     -2.2656277      0.16126987   
  80670000  -92.115991      1080.4431      988.32706      294.44862      4.3509045      0.16126987   
  80680000  -125.907        1128.1057      1002.1987      307.43793      4.4840762      0.16126987   
  80690000  -35.142454      1110.5963      1075.4539      302.66617     -4.5991331      0.16126987   
  80700000  -82.164346      1089.3075      1007.1431      296.8644       6.8419978      0.16126987   
  80710000  -92.153539      1148.3593      1056.2057      312.95754      1.196501       0.16126987   
  80720000  -64.946116      1050.1374      985.19124      286.18954      6.8506147      0.16126987   
  80730000  -77.756356      1085.3583      1007.602       295.78816     -2.4736266      0.16126987   
  80740000   25.512498      1086.3987      1111.9112      296.07169      9.4145957      0.16126987   
  80750000  -60.970417      1141.0732      1080.1028      310.9719      -1.5442079      0.16126987   
  80760000  -33.600826      1155.2756      1121.6748      314.84243     -3.0734549      0.16126987   
  80770000  -21.180103      1099.6729      1078.4927      299.68924     -3.3493286      0.16126987   
  80780000   15.829657      1161.085       1176.9146      316.42562      4.4764332      0.16126987   
  80790000  -13.601811      1127.5167      1113.9149      307.2774      -7.1613346      0.16126987   
  80800000  -52.779451      1082.4917      1029.7122      295.00693      0.52656898     0.16126987   
  80810000  -25.559921      1118.4338      1092.8739      304.80208     -0.39357104     0.16126987   
  80820000   14.053519      1045.7673      1059.8209      284.9986       2.267199       0.16126987   
  80830000  -1.4726565      1122.6967      1121.224       305.96383      5.3561157      0.16126987   
  80840000  -10.78756       1105.3231      1094.5355      301.22906      6.1150165      0.16126987   
  80850000   14.649281      1117.4117      1132.0609      304.52352      0.5293072      0.16126987   
  80860000   0.78355229     1117.3201      1118.1036      304.49856      12.92551       0.16126987   
  80870000   37.453835      1146.3651      1183.819       312.41409     -0.79859751     0.16126987   
  80880000   6.8746294      1101.9064      1108.781       300.29793      4.3399146      0.16126987   
  80890000  -58.965507      1076.5828      1017.6173      293.39661     -0.086606339    0.16126987   
  80900000  -62.201013      1129.2838      1067.0828      307.75899      0.86382446     0.16126987   
  80910000  -70.746544      1062.8222      992.07562      289.64648     -3.7133         0.16126987   
  80920000  -11.409774      1116.3211      1104.9113      304.22632     -0.84492689     0.16126987   
  80930000  -32.030618      1108.9571      1076.9265      302.21945      3.6586642      0.16126987   
  80940000  -58.404593      1109.8849      1051.4804      302.4723      -1.9487784      0.16126987   
  80950000  -64.151479      1104.3691      1040.2176      300.96908     -2.4302666      0.16126987   
  80960000  -71.242253      1110.1913      1038.949       302.55579      4.0901321      0.16126987   
  80970000  -24.922402      1123.4031      1098.4807      306.15635     -4.5604646      0.16126987   
  80980000  -28.639796      1145.3113      1116.6715      312.1269       8.7845121      0.16126987   
  80990000  -84.383973      1146.2906      1061.9066      312.39378      4.2932627      0.16126987   
  81000000  -3.3418684      1086.8684      1083.5265      296.19969      1.0790653      0.16126987   
  81010000  -24.202382      1091.2036      1067.0012      297.38114      0.89861755     0.16126987   
  81020000   66.601131      1088.9888      1155.59        296.77757     -5.6859779      0.16126987   
  81030000   28.802278      1130.8955      1159.6978      308.19821     -2.4684394      0.16126987   
  81040000  -36.873963      1087.175       1050.301       296.28325     -0.24623116     0.16126987   
  81050000   11.189821      1092.1487      1103.3385      297.63871      4.6374954      0.16126987   
  81060000  -30.865513      1142.4622      1111.5967      311.35045      2.541698       0.16126987   
  81070000  -25.215179      1097.1475      1071.9323      299.001        8.9031716      0.16126987   
  81080000  -25.792324      1146.8128      1121.0205      312.53608      6.5796945      0.16126987   
  81090000  -50.088085      1075.9226      1025.8345      293.21669      2.6788479      0.16126987   
  81100000  -70.796046      1114.9897      1044.1937      303.86349      3.1495072      0.16126987   
  81110000  -44.512734      1102.5553      1058.0426      300.47479     -0.85427626     0.16126987   
  81120000   5.6184582      1146.8604      1152.4789      312.54906     -6.4353677      0.16126987   
  81130000  -86.084159      1104.3156      1018.2315      300.95452     -1.3670828      0.16126987   
  81140000  -47.612044      1123.0687      1075.4566      306.0652       7.5103224      0.16126987   
  81150000  -53.911014      1141.6688      1087.7578      311.13421      0.98011963     0.16126987   
  81160000  -35.492618      1066.2275      1030.7348      290.57451     -0.23385936     0.16126987   
  81170000  -51.233612      1083.233       1031.9994      295.20897      2.6589786      0.16126987   
  81180000  -87.183049      1136.3667      1049.1837      309.68927      2.5354545      0.16126987   
  81190000  -9.2561227      1106.5119      1097.2558      301.55306     -0.46302443     0.16126987   
  81200000  -21.039603      1145.8489      1124.8093      312.2734       1.4688791      0.16126987   
  81210000  -98.25587       1114.3138      1016.058       303.67928     -0.35277425     0.16126987   
  81220000  -47.909636      1116.0992      1068.1896      304.16586     -4.3983273      0.16126987   
  81230000  -83.160631      1106.4847      1023.324       301.54563      0.86624825     0.16126987   
  81240000  -21.02342       1095.3868      1074.3634      298.52119      11.392308      0.16126987   
  81250000  -45.811424      1113.3046      1067.4931      303.40423      0.21998385     0.16126987   
  81260000  -23.225771      1086.909       1063.6833      296.21077     -0.66901485     0.16126987   
  81270000  -92.292769      1095.7292      1003.4365      298.6145      -3.3819443      0.16126987   
  81280000  -64.180155      1092.054       1027.8738      297.6129       4.3822407      0.16126987   
  81290000  -34.409247      1121.1412      1086.7319      305.53991      0.94341951     0.16126987   
  81300000  -64.880097      1080.7086      1015.8285      294.521        3.0539205      0.16126987   
  81310000  -58.708094      1109.5364      1050.8283      302.3773       0.68115481     0.16126987   
  81320000  -80.602214      1104.0836      1023.4813      300.89127     -2.4078611      0.16126987   
  81330000  -66.277014      1115.7184      1049.4414      304.06207     -5.6170554      0.16126987   
  81340000  -27.431011      1054.4724      1027.0414      287.37095     -9.8590441      0.16126987   
  81350000  -41.045708      1081.8176      1040.7719      294.82324      6.1134436      0.16126987   
  81360000  -102.70728      1089.8903      987.18305      297.02325     -1.325875       0.16126987   
  81370000  -68.778373      1111.8366      1043.0582      303.00417      4.790441       0.16126987   
  81380000  -73.014728      1067.8401      994.8254       291.014        3.3724912      0.16126987   
  81390000  -95.371982      1091.0454      995.67344      297.33804      11.177594      0.16126987   
  81400000  -88.318881      1076.1706      987.85169      293.28426     -5.3135832      0.16126987   
  81410000  -97.939167      1077.9878      980.04863      293.7795       8.8730298      0.16126987   
  81420000  -41.514095      1110.4434      1068.9293      302.62449      7.7483714      0.16126987   
  81430000  -80.886851      1099.9244      1019.0375      299.75779      15.503014      0.16126987   
  81440000  -111.77435      1089.555       977.78066      296.93187      4.5263261      0.16126987   
  81450000  -95.315997      1086.5407      991.22474      296.1104       7.0296739      0.16126987   
  81460000  -78.411382      1116.3689      1037.9575      304.23934     -4.0329673      0.16126987   
  81470000  -112.57761      1108.3312      995.75359      302.04886      3.2168314      0.16126987   
  81480000  -55.618391      1103.0299      1047.4115      300.60411     -3.2719173      0.16126987   
  81490000  -77.545132      1112.1649      1034.6197      303.09364      7.446141       0.16126987   
  81500000  -105.47807      1113.4887      1008.0106      303.45442      1.9872734      0.16126987   
  81510000  -120.78272      1097.3333      976.55061      299.05166      8.7782074      0.16126987   
  81520000  -166.88181      1095.8148      928.93303      298.63783      4.2924403      0.16126987   
  81530000  -119.57624      1122.8093      1003.2331      305.99452     -0.36027166     0.16126987   
  81540000  -84.671326      1121.1217      1036.4503      305.53459     -0.54061205     0.16126987   
  81550000  -63.243488      1065.6513      1002.4079      290.4175       8.9573589      0.16126987   
  81560000  -75.38967       1074.9454      999.55573      292.95037      10.094099      0.16126987   
  81570000  -74.719592      1108.1557      1033.4361      302.00104     -1.1790635      0.16126987   
  81580000  -12.710849      1081.5852      1068.8744      294.75989      3.341712       0.16126987   
  81590000  -84.788958      1156.6219      1071.8329      315.20932     -2.4814972      0.16126987   
  81600000  -69.257103      1120.9372      1051.6801      305.48432      6.1651553      0.16126987   
  81610000  -116.7108       1130.3931      1013.6823      308.06129      8.9630233      0.16126987   
  81620000  -80.450625      1087.8281      1007.3775      296.46125      7.2646003      0.16126987   
  81630000  -106.13856      1062.2825      956.14398      289.49941     -1.7585655      0.16126987   
  81640000  -102.11322      1101.164       999.05074      300.09561     -0.10476952     0.16126987   
  81650000  -12.668657      1122.5996      1109.9309      305.93736     -0.75702407     0.16126987   
  81660000  -68.103538      1152.7745      1084.671       314.16082     -2.4653106      0.16126987   
  81670000  -124.6441       1156.0964      1031.4524      315.06613      6.9638975      0.16126987   
  81680000  -23.195809      1105.1355      1081.9397      301.17795      2.8581294      0.16126987   
  81690000  -72.858959      1108.8772      1036.0183      302.19767     -4.1647839      0.16126987   
  81700000  -15.370124      1145.9712      1130.601       312.30672      3.4350917      0.16126987   
  81710000  -45.285339      1143.3022      1098.0169      311.57937      2.2809565      0.16126987   
  81720000  -14.317076      1096.6289      1082.3118      298.85967      2.2417942      0.16126987   
  81730000  -98.302042      1131.2318      1032.9297      308.28986      0.22950053     0.16126987   
  81740000  -85.629892      1106.1715      1020.5416      301.4603       0.40136032     0.16126987   
  81750000  -52.189476      1077.6137      1025.4242      293.67755     -1.466689       0.16126987   
  81760000  -73.183924      1092.5253      1019.3414      297.74134     -1.2899322      0.16126987   
  81770000  -65.984932      1107.3181      1041.3331      301.77276      3.0199991      0.16126987   
  81780000  -28.456526      1075.934       1047.4775      293.2198       2.8320715      0.16126987   
  81790000  -87.601327      1059.9755      972.37415      288.87068      2.9345995      0.16126987   
  81800000  -63.555577      1089.7543      1026.1987      296.98617     -2.6059576      0.16126987   
  81810000  -90.99429       1057.4034      966.40909      288.16972      8.8791769      0.16126987   
  81820000  -46.67156       1104.1119      1057.4403      300.89899      8.4613945      0.16126987   
  81830000  -94.094239      1077.5811      983.48689      293.66868      7.1115071      0.16126987   
  81840000  -76.695932      1116.1792      1039.4832      304.18763     -5.7945465      0.16126987   
  81850000  -45.261647      1133.7025      1088.4408      308.96319      1.8906726      0.16126987   
  81860000  -55.149275      1102.4741      1047.3248      300.45265     -2.9102407      0.16126987   
  81870000  -99.986728      1123.2927      1023.306       306.12625     -6.0837319      0.16126987   
  81880000  -83.750092      1088.5003      1004.7502      296.64444      2.7770577      0.16126987   
  81890000  -49.806517      1066.7467      1016.9402      290.71601     -4.8468133      0.16126987   
  81900000  -36.176723      1095.2652      1059.0885      298.48805      3.7279524      0.16126987   
  81910000  -71.591112      1079.9604      1008.3693      294.31708     -1.0610289      0.16126987   
  81920000  -107.8331       1101.3775      993.54445      300.15381      1.0292723      0.16126987   
  81930000  -93.34474       1069.6364      976.29168      291.50354      2.090383       0.16126987   
  81940000  -10.146623      1117.2274      1107.0808      304.47331      5.3205716      0.16126987   
  81950000  -12.236936      1053.2861      1041.0492      287.04766      3.0341453      0.16126987   
  81960000  -67.341648      1100.1878      1032.8461      299.82957     -0.24369169     0.16126987   
  81970000  -37.029063      1088.6848      1051.6557      296.6947      -3.2711914      0.16126987   
  81980000  -20.836664      1112.2266      1091.39        303.11047      10.432164      0.16126987   
  81990000  -74.291063      1109.8713      1035.5802      302.46858      3.0000576      0.16126987   
  82000000  -35.844326      1141.0495      1105.2052      310.96544     -2.3431081      0.16126987   
  82010000  -105.23187      1079.4853      974.25346      294.18762     -4.7514119      0.16126987   
  82020000  -75.128216      1107.029       1031.9008      301.69398      0.6223343      0.16126987   
  82030000  -95.275097      1090.6706      995.39546      297.23588      5.498941       0.16126987   
  82040000  -84.895813      1093.7542      1008.8584      298.07625      0.97244977     0.16126987   
  82050000  -64.693495      1033.4267      968.7332       281.63545     -1.9975385      0.16126987   
  82060000  -47.602234      1114.2118      1066.6096      303.65149     -5.0073776      0.16126987   
  82070000  -7.5628546      1135.7345      1128.1716      309.51696      6.3864854      0.16126987   
  82080000  -10.009817      1123.7265      1113.7167      306.24449      7.3665882      0.16126987   
  82090000  -50.470066      1102.0286      1051.5585      300.33124     -7.5838732      0.16126987   
  82100000   25.107314      1077.5118      1102.6192      293.64979     -0.95852986     0.16126987   
  82110000   64.882661      1097.6614      1162.544       299.14106     -5.3274788      0.16126987   
  82120000   42.173801      1190.5294      1232.7032      324.44999      2.2671436      0.16126987   
  82130000  -26.71111       1096.5838      1069.8726      298.84738      0.2207355      0.16126987   
  82140000  -37.379285      1087.9307      1050.5515      296.48921      1.127064       0.16126987   
  82150000  -0.39934036     1079.7923      1079.3929      294.27127     -0.73777346     0.16126987   
  82160000   18.530564      1123.4383      1141.9689      306.16595     -1.1464737      0.16126987   
  82170000   25.787859      1125.0031      1150.791       306.59239     -3.5362045      0.16126987   
  82180000  -5.1152387      1145.1613      1140.0461      312.08602     -5.064647       0.16126987   
  82190000  -58.235421      1140.3626      1082.1272      310.77825      7.2376561      0.16126987   
  82200000  -11.713078      1119.7922      1108.0791      305.17227      5.1262365      0.16126987   
  82210000  -53.630988      1126.0641      1072.4331      306.88153     -0.72620253     0.16126987   
  82220000  -98.793829      1084.5904      985.79662      295.57889      2.1208198      0.16126987   
  82230000   9.4739852      1127.3958      1136.8698      307.24446      1.133839       0.16126987   
  82240000  -2.7401139      1140.2661      1137.526       310.75194     -1.7890266      0.16126987   
  82250000   25.014527      1110.2589      1135.2735      302.57422      1.2836434      0.16126987   
  82260000  -96.44627       1155.1338      1058.6875      314.80377      7.179633       0.16126987   
  82270000  -17.118084      1041.5196      1024.4015      283.84098      2.0081831      0.16126987   
  82280000  -34.541578      1110.4705      1075.9289      302.63188      5.3326738      0.16126987   
  82290000  -93.163815      1080.2948      987.13101      294.40823      3.9202148      0.16126987   
  82300000  -48.204399      1078.7281      1030.5237      293.98125      2.4004118      0.16126987   
  82310000  -50.675528      1150.0705      1099.395       313.42389     -1.4148269      0.16126987   
  82320000  -93.857633      1072.1461      978.28849      292.18749      5.8745801      0.16126987   
  82330000  -60.826903      1119.1155      1058.2886      304.98786      6.3936936      0.16126987   
  82340000  -70.642908      1076.6383      1005.9954      293.41173      0.66462772     0.16126987   
  82350000  -91.714678      1081.3426      989.6279       294.69376     -6.2674531      0.16126987   
  82360000  -87.904958      1081.4366      993.5316       294.71938     -1.0150521      0.16126987   
  82370000  -45.761927      1084.9881      1039.2262      295.68727      4.1703804      0.16126987   
  82380000  -114.12213      1126.5369      1012.4148      307.01038      9.7308446      0.16126987   
  82390000  -51.634371      1054.8532      1003.2189      287.47474     -4.921093       0.16126987   
  82400000  -99.725569      1076.9789      977.25338      293.50456      0.047181211    0.16126987   
  82410000  -48.551988      1089.7583      1041.2063      296.98727     -1.8039614      0.16126987   
  82420000  -113.94491      1093.1488      979.20386      297.91126      5.6164119      0.16126987   
  82430000  -114.67892      1091.8681      977.18914      297.56223     -5.8092491      0.16126987   
  82440000  -62.632952      1124.5026      1061.8697      306.456       -0.15427376     0.16126987   
  82450000  -120.01521      1135.6531      1015.6379      309.49479      3.9444991      0.16126987   
  82460000  -97.018052      1126.2474      1029.2294      306.9315      -6.5996774      0.16126987   
  82470000  -104.41961      1108.8773      1004.4576      302.19768      9.0932465      0.16126987   
  82480000  -122.17441      1108.7758      986.60136      302.17002      8.5666906      0.16126987   
  82490000  -127.01998      1058.0789      931.05891      288.35381     -2.0743227      0.16126987   
  82500000  -49.448013      1170.0881      1120.6401      318.87921     -0.0036633903   0.16126987   
  82510000  -131.4727       1097.3662      965.89347      299.06061      10.507713      0.16126987   
  82520000  -103.95953      1082.4586      978.49902      294.9979       2.8575436      0.16126987   
  82530000  -64.529136      1098.9203      1034.3912      299.48416     -7.2077439      0.16126987   
  82540000  -64.214469      1130.4485      1066.234       308.07639      5.652386       0.16126987   
  82550000  -58.36701       1125.0585      1066.6915      306.60747      0.45135337     0.16126987   
  82560000   17.355171      1068.169       1085.5242      291.10363     -0.62897541     0.16126987   
  82570000  -12.129785      1072.3226      1060.1928      292.23559      2.5690553      0.16126987   
  82580000  -12.659684      1099.5167      1086.857       299.64669      4.9643005      0.16126987   
  82590000  -61.029138      1099.6479      1038.6188      299.68244     -0.82236259     0.16126987   
  82600000  -84.894788      1110.9662      1026.0714      302.76696     -0.04878324     0.16126987   
  82610000  -160.43657      1078.4189      917.98237      293.897        2.3232498      0.16126987   
  82620000  -108.02278      1048.6993      940.67657      285.79764      1.612917       0.16126987   
  82630000  -73.141782      1086.676       1013.5342      296.14727     -2.4832676      0.16126987   
  82640000  -59.386666      1101.3152      1041.9286      300.13683     -1.9687468      0.16126987   
  82650000  -75.484464      1109.069       1033.5846      302.24994      2.912008       0.16126987   
  82660000  -119.3338       1073.9793      954.64546      292.68707      7.0955774      0.16126987   
  82670000  -61.827707      1115.9079      1054.0802      304.11371     -0.79797809     0.16126987   
  82680000   4.8908441      1067.8872      1072.7781      291.02684     -7.851106       0.16126987   
  82690000  -46.839654      1127.1976      1080.358       307.19045      7.3868306      0.16126987   
  82700000  -10.658693      1093.1346      1082.4759      297.90739     -0.43589942     0.16126987   
  82710000  -86.649034      1072.4971      985.84803      292.28313      0.58349712     0.16126987   
  82720000  -104.36996      1084.1051      979.73519      295.44664     -0.9613653      0.16126987   
  82730000  -82.462267      1067.2226      984.76032      290.8457       8.3754039      0.16126987   
  82740000  -54.12278       1077.6885      1023.5657      293.69793      1.8898217      0.16126987   
  82750000  -63.57011       1087.3882      1023.8181      296.34136     -2.6135292      0.16126987   
  82760000   26.593668      1082.6834      1109.277       295.05916     -2.1587436      0.16126987   
  82770000  -21.555595      1137.9734      1116.4178      310.12712      10.49357       0.16126987   
  82780000  -50.214659      1144.9107      1094.696       312.01771      1.349801       0.16126987   
  82790000  -43.313515      1099.1005      1055.787       299.53327      2.3124314      0.16126987   
  82800000  -11.583424      1121.2788      1109.6954      305.57743      1.742182       0.16126987   
  82810000   2.2254367      1093.257       1095.4825      297.94076     -9.470744       0.16126987   
  82820000  -2.3186444      1112.3628      1110.0442      303.14759      0.13833712     0.16126987   
  82830000   16.271874      1057.3042      1073.5761      288.1427       0.13800946     0.16126987   
  82840000  -13.647935      1117.9217      1104.2737      304.66251     -5.8941816      0.16126987   
  82850000  -24.057576      1073.995       1049.9374      292.69135     -5.8439473      0.16126987   
  82860000   15.366711      1092.2362      1107.6029      297.66255      0.74045756     0.16126987   
  82870000  -1.1469561      1159.8174      1158.6704      316.08018      1.7462057      0.16126987   
  82880000  -60.785844      1102.2492      1041.4633      300.39135     -2.2705027      0.16126987   
  82890000  -31.340965      1158.8937      1127.5527      315.82845      0.45882627     0.16126987   
  82900000   15.356878      1081.465       1096.8219      294.72712     -9.0836465      0.16126987   
  82910000  -50.085929      1098.1315      1048.0456      299.26918     -2.5746703      0.16126987   
  82920000  -43.647575      1075.7649      1032.1173      293.17369      1.7676959      0.16126987   
  82930000  -64.178837      1095.7903      1031.6114      298.63114      8.2790161      0.16126987   
  82940000  -8.3435803      1108.3741      1100.0305      302.06056      1.7146873      0.16126987   
  82950000  -45.999255      1113.6451      1067.6459      303.49704      7.3028594      0.16126987   
  82960000  -38.577471      1078.0138      1039.4363      293.78659      3.2046534      0.16126987   
  82970000  -120.98602      1156.9561      1035.9701      315.30041     -2.1013319      0.16126987   
  82980000  -50.55608       1115.5838      1065.0277      304.02538     -3.6646806      0.16126987   
  82990000  -12.749285      1101.5718      1088.8226      300.20676      2.567256       0.16126987   
  83000000  -29.55434       1125.9467      1096.3923      306.84954      3.5553915      0.16126987   
  83010000  -24.736407      1133.0747      1108.3383      308.79209      3.9311513      0.16126987   
  83020000  -19.41511       1111.3929      1091.9778      302.88326     -1.2455933      0.16126987   
  83030000  -25.550483      1114.234       1088.6835      303.65753      2.5964399      0.16126987   
  83040000  -30.129888      1139.3685      1109.2386      310.50733      0.39110204     0.16126987   
  83050000  -5.4855443      1104.0863      1098.6008      300.89202     -4.5400729      0.16126987   
  83060000  -17.66157       1081.7763      1064.1147      294.81197      0.45563092     0.16126987   
  83070000  -80.988054      1096.6289      1015.6408      298.85968      3.4249813      0.16126987   
  83080000  -45.630249      1089.1437      1043.5135      296.81979     -1.8431896      0.16126987   
  83090000   9.6280128      1090.4032      1100.0313      297.16303      4.1769231      0.16126987   
  83100000  -55.146644      1131.4194      1076.2728      308.341        0.69854128     0.16126987   
  83110000  -54.963506      1082.2069      1027.2434      294.92933     -5.3574854      0.16126987   
  83120000  -42.344516      1090.0823      1047.7378      297.07556      3.5552876      0.16126987   
  83130000  -48.614546      1084.696       1036.0814      295.60765     -0.90817821     0.16126987   
  83140000  -78.8478        1073.6749      994.8271       292.60412      6.0928222      0.16126987   
  83150000  -40.719284      1075.8221      1035.1028      293.18929     -2.2530264      0.16126987   
  83160000  -87.153422      1136.5986      1049.4452      309.75246      12.73818       0.16126987   
  83170000  -34.513199      1087.7981      1053.2849      296.45305      1.1482271      0.16126987   
  83180000  -59.867927      1114.2793      1054.4114      303.66989     -2.3737917      0.16126987   
  83190000  -97.726018      1092.5696      994.84355      297.75341      6.8427951      0.16126987   
  83200000  -108.72079      1127.2117      1018.4909      307.19427      0.3553339      0.16126987   
  83210000  -53.163833      1090.8554      1037.6916      297.28625      0.30091208     0.16126987   
  83220000  -53.816426      1125.9102      1072.0938      306.83959     -4.6988696      0.16126987   
  83230000  -44.581993      1065.5824      1021.0004      290.39871     -3.1398177      0.16126987   
  83240000  -10.890214      1099.5009      1088.6107      299.64239     -3.8163309      0.16126987   
  83250000  -90.193514      1090.3622      1000.1686      297.15184     -1.1753523      0.16126987   
  83260000  -33.272308      1073.1808      1039.9085      292.46947      1.8862143      0.16126987   
  83270000  -36.89038       1042.4141      1005.5237      284.08475      6.2120608      0.16126987   
  83280000  -98.957428      1117.2776      1018.3201      304.48698      2.0977448      0.16126987   
  83290000  -78.111592      1118.3058      1040.1942      304.76721      5.4291557      0.16126987   
  83300000  -81.341915      1127.7365      1046.3946      307.33731      0.58888374     0.16126987   
  83310000  -40.009146      1083.5844      1043.5752      295.30471     -2.7873917      0.16126987   
  83320000  -49.53127       1067.5713      1018.04        290.94073     -14.342371      0.16126987   
  83330000  -49.049531      1110.9623      1061.9128      302.76591     -1.3657847      0.16126987   
  83340000  -23.284266      1070.2913      1047.007       291.68201      9.5596296      0.16126987   
  83350000   55.452866      1135.8739      1191.3268      309.55496     -0.44496137     0.16126987   
  83360000  -66.49011       1097.5761      1031.086       299.11783      2.5799369      0.16126987   
  83370000  -66.87383       1117.0354      1050.1616      304.42099      6.9705522      0.16126987   
  83380000  -42.16449       1059.4573      1017.2928      288.72945      4.3391162      0.16126987   
  83390000  -52.303472      1116.1941      1063.8906      304.1917       3.279257       0.16126987   
  83400000  -55.669094      1081.7443      1026.0752      294.80325      3.8687834      0.16126987   
  83410000  -81.162539      1076.8507      995.6882       293.46962      7.043271       0.16126987   
  83420000  -64.46221       1163.3175      1098.8553      317.03404     -3.1702601      0.16126987   
  83430000  -47.982752      1079.7674      1031.7847      294.26449      9.8567699      0.16126987   
  83440000  -44.167915      1083.1991      1039.0312      295.19971      3.211135       0.16126987   
  83450000  -78.36806       1099.4698      1021.1018      299.63391     -5.0499033      0.16126987   
  83460000  -46.424207      1108.6379      1062.2137      302.13244      4.5147693      0.16126987   
  83470000   18.172115      1096.891       1115.0631      298.93111     -5.9432646      0.16126987   
  83480000  -30.260334      1084.0753      1053.8149      295.43849     -4.6933695      0.16126987   
  83490000  -35.375611      1112.5082      1077.1326      303.1872       1.3623984      0.16126987   
  83500000  -47.304992      1074.1969      1026.8919      292.74638     -1.2270002      0.16126987   
  83510000  -41.288282      1060.0035      1018.7152      288.87831      0.23034522     0.16126987   
  83520000  -73.734561      1094.9292      1021.1946      298.39647     -5.7454602      0.16126987   
  83530000  -43.604821      1119.9878      1076.383       305.2256      -0.81413453     0.16126987   
  83540000  -61.738084      1082.3234      1020.5853      294.96107      5.7477335      0.16126987   
  83550000   15.871315      1096.7315      1112.6028      298.88764      0.77402325     0.16126987   
  83560000  -40.469662      1090.4423      1049.9726      297.17367      3.8664573      0.16126987   
  83570000  -57.594739      1079.6563      1022.0615      294.23421      5.0089017      0.16126987   
  83580000  -57.189145      1102.4533      1045.2642      300.44699     -2.8462762      0.16126987   
  83590000  -7.0290373      1093.7339      1086.7049      298.07073      2.4715005      0.16126987   
  83600000  -32.754039      1067.4122      1034.6582      290.89739     -2.3416976      0.16126987   
  83610000  -62.88234       1112.3709      1049.4886      303.14979      3.4411651      0.16126987   
  83620000  -7.6543861      1105.0169      1097.3625      301.14564      0.95287189     0.16126987   
  83630000  -60.495789      1122.4383      1061.9425      305.8934       9.1060216      0.16126987   
  83640000   33.099107      1117.5531      1150.6522      304.56207      3.6186405      0.16126987   
  83650000  -31.113848      1101.0287      1069.9149      300.05875      0.13786372     0.16126987   
  83660000  -64.275949      1090.2966      1026.0206      297.13396      6.1120854      0.16126987   
  83670000  -83.752705      1088.5672      1004.8145      296.66266      2.734788       0.16126987   
  83680000  -106.06166      1139.1057      1033.0441      310.43572      6.7767145      0.16126987   
  83690000  -63.228393      1120.233       1057.0046      305.29241     -3.0361263      0.16126987   
  83700000  -57.545922      1146.0278      1088.4819      312.32217      2.4204524      0.16126987   
  83710000  -56.37973       1117.8579      1061.4782      304.64513     -7.0176162      0.16126987   
  83720000  -51.632923      1080.2854      1028.6525      294.40565     -0.6350556      0.16126987   
  83730000  -57.561318      1092.9772      1035.4159      297.86451      3.8963231      0.16126987   
  83740000  -45.776293      1105.3852      1059.609       301.24601     -2.9563191      0.16126987   
  83750000   7.9873313      1075.7063      1083.6936      293.15773      0.21070309     0.16126987   
  83760000   12.206172      1067.8216      1080.0277      291.00894      5.4878716      0.16126987   
  83770000  -47.842159      1083.3485      1035.5063      295.24043     -3.6852284      0.16126987   
  83780000  -34.872552      1052.9965      1018.1239      286.96872     -2.1008674      0.16126987   
  83790000   23.986581      1071.7632      1095.7498      292.08315     -11.123397      0.16126987   
  83800000  -21.861627      1121.9399      1100.0783      305.75759      3.0326974      0.16126987   
  83810000  -0.086747313    1127.6498      1127.5631      307.31369      2.7415608      0.16126987   
  83820000  -41.363483      1124.7086      1083.3451      306.51211      3.3789705      0.16126987   
  83830000  -62.406361      1109.9505      1047.5441      302.49016      4.1623013      0.16126987   
  83840000  -14.009244      1074.4829      1060.4737      292.82433     -1.7557642      0.16126987   
  83850000   28.516987      1098.6004      1127.1174      299.39697      3.7358812      0.16126987   
  83860000   2.0699162      1151.8405      1153.9105      313.90628      8.8594533      0.16126987   
  83870000  -2.2805416      1085.8021      1083.5216      295.90911      2.2001324      0.16126987   
  83880000  -58.833269      1112.7338      1053.9005      303.24867      0.44432845     0.16126987   
  83890000  -40.433907      1100.0225      1059.5886      299.78453     -3.2071922      0.16126987   
  83900000   20.948745      1128.1747      1149.1234      307.45672     -2.3905536      0.16126987   
  83910000  -31.450229      1070.0516      1038.6013      291.61667      5.2520057      0.16126987   
  83920000  -95.647158      1121.4474      1025.8003      305.62337      5.1263349      0.16126987   
  83930000  -83.25828       1145.0639      1061.8056      312.05947      3.456076       0.16126987   
  83940000   16.204683      1101.5462      1117.7509      300.19977      5.2958882      0.16126987   
  83950000  -27.244958      1124.5667      1097.3217      306.47345     -4.3466177      0.16126987   
  83960000  -41.205993      1085.9511      1044.7451      295.94971     -10.325352      0.16126987   
  83970000  -35.929472      1103.3895      1067.46        300.70212     -2.8165916      0.16126987   
  83980000  -55.764276      1121.7392      1065.9749      305.70289      3.8824909      0.16126987   
  83990000  -54.932028      1097.5231      1042.591       299.10337     -2.1527376      0.16126987   
  84000000  -50.928923      1083.9324      1033.0035      295.39957      10.450596      0.16126987   
  84010000  -51.365127      1089.9334      1038.5683      297.035        2.8431538      0.16126987   
  84020000  -54.952279      1086.0214      1031.0691      295.96885      0.74887597     0.16126987   
  84030000  -79.745361      1104.2815      1024.5362      300.94522      6.0789334      0.16126987   
  84040000  -10.443559      1058.2419      1047.7983      288.39824     -4.7249515      0.16126987   
  84050000   29.620086      1136.2426      1165.8627      309.65544      3.3851031      0.16126987   
  84060000  -4.3739246      1093.02        1088.646       297.87616      1.5568649      0.16126987   
  84070000  -16.289505      1062.6534      1046.3639      289.60048     -2.6981311      0.16126987   
  84080000  -5.588506       1114.9666      1109.3781      303.85717     -5.0447176      0.16126987   
  84090000   3.8646052      1086.2065      1090.0712      296.01932     -0.73320291     0.16126987   
  84100000  -27.860834      1057.8249      1029.9641      288.2846      -2.0485666      0.16126987   
  84110000  -35.587564      1142.3579      1106.7703      311.32201      5.4442548      0.16126987   
  84120000   25.960777      1089.1016      1115.0624      296.8083      -0.23155035     0.16126987   
  84130000  -30.733028      1102.0823      1071.3493      300.34588      1.1203154      0.16126987   
  84140000  -70.244869      1103.5391      1033.2942      300.74289      4.6850218      0.16126987   
  84150000  -73.613658      1155.6188      1082.0052      314.93597      2.4999891      0.16126987   
  84160000  -62.520039      1107.8064      1045.2864      301.90584     -0.049878159    0.16126987   
  84170000  -58.063611      1095.5163      1037.4527      298.55646      5.4917618      0.16126987   
  84180000  -91.64432       1078.0427      986.39834      293.79445      6.5492277      0.16126987   
  84190000  -14.811025      1085.2323      1070.4213      295.75383     -7.8541747      0.16126987   
  84200000  -71.625566      1059.1204      987.49487      288.63766      1.8170842      0.16126987   
  84210000  -102.35018      1118.6116      1016.2614      304.85053      9.4657979      0.16126987   
  84220000  -56.217995      1097.5976      1041.3796      299.12369     -2.0559016      0.16126987   
  84230000  -28.736642      1123.9917      1095.2551      306.31675      2.9839392      0.16126987   
  84240000  -100.79506      1140.2593      1039.4642      310.7501      -3.7086295      0.16126987   
  84250000  -66.865229      1079.8525      1012.9872      294.28767     -6.1771663      0.16126987   
  84260000  -85.891256      1112.7754      1026.8841      303.26001      3.0496077      0.16126987   
  84270000  -51.478645      1097.0941      1045.6154      298.98645     -7.6255766      0.16126987   
  84280000  -51.464641      1075.467       1024.0023      293.09251      4.6309481      0.16126987   
  84290000  -65.853891      1106.81        1040.9561      301.6343      -11.654556      0.16126987   
  84300000  -27.597221      1102.6303      1075.033       300.49521      2.3132211      0.16126987   
  84310000  -47.975254      1114.2128      1066.2375      303.65175     -0.77340221     0.16126987   
  84320000   13.067104      1066.275       1079.3421      290.58745      5.9251601      0.16126987   
  84330000  -12.833159      1150.4208      1137.5876      313.51936      6.7338189      0.16126987   
  84340000  -3.4838126      1114.1568      1110.673       303.6365      -3.4568746      0.16126987   
  84350000  -72.503079      1091.1799      1018.6768      297.37469     -9.5369596      0.16126987   
  84360000  -80.929594      1093.2248      1012.2952      297.93197      2.2579801      0.16126987   
  84370000  -46.482457      1078.1399      1031.6574      293.82094      6.7717292      0.16126987   
  84380000  -35.30217       1150.5557      1115.2536      313.55613      2.0698117      0.16126987   
  84390000   1.9562404      1142.3486      1144.3049      311.31949      1.8486178      0.16126987   
  84400000  -10.610334      1113.3174      1102.7071      303.40773      3.7883597      0.16126987   
  84410000  -26.210259      1089.16        1062.9497      296.82421      6.3357674      0.16126987   
  84420000  -16.579417      1091.1636      1074.5842      297.37024     -3.6228483      0.16126987   
  84430000  -54.05296       1143.991       1089.938       311.76708      3.4607486      0.16126987   
  84440000  -10.264372      1081.5476      1071.2832      294.74963      3.6012251      0.16126987   
  84450000  -50.887663      1096.5013      1045.6136      298.8249      -1.1142037      0.16126987   
  84460000  -12.206778      1076.546       1064.3392      293.38658      0.89780483     0.16126987   
  84470000  -42.730086      1143.4356      1100.7055      311.61571     -4.3838823      0.16126987   
  84480000  -36.977995      1123.2059      1086.2279      306.1026       9.2213041      0.16126987   
  84490000  -81.254174      1098.6675      1017.4133      299.41524      8.917381       0.16126987   
  84500000  -88.836746      1093.8258      1004.9891      298.09577     -14.770581      0.16126987   
  84510000  -45.116803      1104.0991      1058.9823      300.8955       5.4700302      0.16126987   
  84520000  -92.590853      1103.6051      1011.0143      300.76089     -1.3197632      0.16126987   
  84530000  -57.40718       1083.556       1026.1488      295.29697      3.5954095      0.16126987   
  84540000  -136.97884      1089.5225      952.54363      296.923        4.3118723      0.16126987   
  84550000  -114.51082      1107.8511      993.34032      301.91803      1.0973085      0.16126987   
  84560000  -74.892337      1097.9482      1023.0558      299.21922      3.7526188      0.16126987   
  84570000  -12.221502      1081.233       1069.0115      294.66391      1.7652449      0.16126987   
  84580000  -21.127021      1110.7359      1089.6089      302.70422     -3.2328172      0.16126987   
  84590000  -88.220346      1106.8861      1018.6658      301.65503      9.3092819      0.16126987   
  84600000  -54.421687      1091.3914      1036.9697      297.43234     -1.8206374      0.16126987   
  84610000  -20.724898      1154.1887      1133.4638      314.54621      4.9987986      0.16126987   
  84620000   5.9722294      1079.1988      1085.171       294.10953     -3.2985138      0.16126987   
  84630000  -44.853072      1151.2595      1106.4064      313.74793      6.2681998      0.16126987   
  84640000   11.591891      1108.3326      1119.9245      302.04925     -2.9821252      0.16126987   
  84650000  -62.580089      1108.3127      1045.7326      302.04383     -0.3438436      0.16126987   
  84660000  -53.839838      1081.6371      1027.7973      294.77404      3.3571018      0.16126987   
  84670000  -98.02235       1125.1092      1027.0869      306.62131      6.587765       0.16126987   
  84680000  -14.989365      1122.6686      1107.6792      305.95617     -4.6584232      0.16126987   
  84690000  -57.48666       1080.3441      1022.8575      294.42167      2.298305       0.16126987   
  84700000  -83.453572      1117.6513      1034.1977      304.58882      2.7031441      0.16126987   
  84710000  -28.129173      1134.529       1106.3998      309.18845      11.47373       0.16126987   
  84720000  -69.966328      1077.679       1007.7126      293.69533      6.5622009      0.16126987   
  84730000  -105.24118      1099.43        994.1888       299.62305     -2.1309191      0.16126987   
  84740000  -105.0673       1093.7726      988.70532      298.08127      5.3151779      0.16126987   
  84750000  -66.038064      1070.0254      1003.9874      291.60955      9.4665162      0.16126987   
  84760000  -30.053342      1091.5317      1061.4784      297.47057     -0.28061487     0.16126987   
  84770000  -21.225154      1087.7532      1066.528       296.44083      6.8749955      0.16126987   
  84780000  -50.271047      1095.6212      1045.3502      298.58507     -2.1086769      0.16126987   
  84790000  -100.61884      1097.0929      996.47403      298.98613     -6.7190709      0.16126987   
  84800000  -81.841145      1103.059       1021.2179      300.61206      1.637409       0.16126987   
  84810000  -131.44056      1105.1261      973.68555      301.17539     -1.9977092      0.16126987   
  84820000  -139.39191      1060.8687      921.47682      289.11411      4.670467       0.16126987   
  84830000  -67.963935      1130.2851      1062.3211      308.03186      1.4905422      0.16126987   
  84840000  -94.821927      1115.1779      1020.356       303.91476      2.0347461      0.16126987   
  84850000  -44.975078      1071.0203      1026.0452      291.88068     -0.81183625     0.16126987   
  84860000  -41.161638      1076.3237      1035.1621      293.326        11.333756      0.16126987   
  84870000  -88.033431      1110.9723      1022.9389      302.76864      5.0037316      0.16126987   
  84880000  -83.278562      1072.444       989.16547      292.26868     -4.3227183      0.16126987   
  84890000  -87.861901      1095.7099      1007.848       298.60923      10.046486      0.16126987   
  84900000  -131.94594      1109.5652      977.61927      302.38516     -3.8077017      0.16126987   
  84910000  -0.26249109     1129.8436      1129.5811      307.91154      1.2872171      0.16126987   
  84920000  -94.302971      1146.1535      1051.8505      312.35641     -1.684041       0.16126987   
  84930000  -97.033154      1110.1283      1013.0951      302.53862      0.61516799     0.16126987   
  84940000  -3.1047554      1129.4011      1126.2963      307.79094     -4.2614808      0.16126987   
  84950000  -38.037362      1109.8058      1071.7684      302.45072      0.69628869     0.16126987   
  84960000  -43.420227      1124.3893      1080.9691      306.42511     -0.63178618     0.16126987   
  84970000  -89.8187        1081.3992      991.58047      294.70919     -1.9722852      0.16126987   
  84980000  -82.742069      1074.3161      991.57399      292.77886     -1.5771149      0.16126987   
  84990000  -119.10431      1192.7058      1073.6015      325.04312      10.741782      0.16126987   
  85000000  -123.10563      1128.5356      1005.43        307.55509      2.1352502      0.16126987   
  85010000  -164.9283       1087.5506      922.62225      296.3856      -3.6310942      0.16126987   
  85020000  -149.70364      1108.6887      958.98503      302.14628     -0.031793995    0.16126987   
  85030000  -109.02298      1081.3397      972.31669      294.69298     -5.914708       0.16126987   
  85040000  -96.744802      1136.0047      1039.2599      309.59061     -5.9903862      0.16126987   
  85050000  -88.015791      1120.3525      1032.3367      305.32498      5.1786384      0.16126987   
  85060000  -93.615686      1097.5856      1003.9699      299.1204       6.5115379      0.16126987   
  85070000  -85.255287      1077.8226      992.56729      293.73448     -7.9270274      0.16126987   
  85080000  -89.937353      1072.4541      982.51673      292.27142      5.2639648      0.16126987   
  85090000  -117.90185      1103.7165      985.81461      300.79123      2.6441705      0.16126987   
  85100000  -19.927821      1091.1019      1071.1741      297.35343     -3.9922577      0.16126987   
  85110000  -55.958468      1058.8433      1002.8848      288.56213      1.1508374      0.16126987   
  85120000  -35.659449      1109.8613      1074.2018      302.46584      1.914261       0.16126987   
  85130000  -68.14895       1132.1919      1064.0429      308.55151     -6.466104       0.16126987   
  85140000  -73.961508      1077.3636      1003.402       293.60938      4.9384104      0.16126987   
  85150000  -102.32431      1130.0964      1027.7721      307.98044      5.0278379      0.16126987   
  85160000  -42.66415       1137.13        1094.4658      309.89727     -1.8125592      0.16126987   
  85170000  -35.544853      1096.852       1061.3071      298.92048     -1.2321492      0.16126987   
  85180000  -54.649236      1148.3261      1093.6769      312.94851     -0.63248043     0.16126987   
  85190000  -34.739061      1083.5046      1048.7656      295.28298     -1.5797005      0.16126987   
  85200000   4.7881601      1082.3758      1087.164       294.97536      4.7759134      0.16126987   
  85210000  -35.550707      1125.2628      1089.7121      306.66315     -2.2077648      0.16126987   
  85220000  -40.552127      1084.1239      1043.5717      295.45174     -1.5616494      0.16126987   
  85230000  -61.232597      1131.7436      1070.511       308.42936      9.2220718      0.16126987   
  85240000  -28.593574      1119.0067      1090.4131      304.95822      4.1252303      0.16126987   
  85250000  -48.896326      1110.144       1061.2477      302.5429       10.685757      0.16126987   
  85260000   14.827144      1111.0564      1125.8836      302.79155     -1.2449008      0.16126987   
  85270000  -14.48104       1138.7777      1124.2967      310.34632     -4.5387697      0.16126987   
  85280000  -52.354948      1114.0151      1061.6602      303.59788      6.4391548      0.16126987   
  85290000  -32.450599      1113.5091      1081.0585      303.45997      2.6550319      0.16126987   
  85300000  -73.570166      1107.6794      1034.1092      301.87123      2.844774       0.16126987   
  85310000  -46.901078      1070.9892      1024.0881      291.8722       2.7063933      0.16126987   
  85320000  -28.91089       1167.4605      1138.5496      318.16313      5.7920819      0.16126987   
  85330000  -1.9159354      1118.7726      1116.8567      304.89442      2.9518245      0.16126987   
  85340000  -20.228805      1104.0756      1083.8468      300.88911      4.1588109      0.16126987   
  85350000  -63.374428      1115.6565      1052.2821      304.0452       1.4925764      0.16126987   
  85360000  -31.71039       1092.4642      1060.7538      297.72471      6.0290226      0.16126987   
  85370000  -77.480313      1098.8513      1021.3709      299.46533     -1.2903551      0.16126987   
  85380000  -61.899679      1086.0366      1024.1369      295.973        4.1821665      0.16126987   
  85390000  -11.174532      1139.5947      1128.4202      310.56897      2.1370896      0.16126987   
  85400000  -13.92601       1128.0766      1114.1506      307.43        -2.4630192      0.16126987   
  85410000  -62.817656      1082.5665      1019.7488      295.0273       4.9596061      0.16126987   
  85420000  -93.947257      1147.0796      1053.1324      312.60881      10.527551      0.16126987   
  85430000  -54.930513      1063.2688      1008.3383      289.7682       2.2716392      0.16126987   
  85440000  -15.761279      1082.0716      1066.3104      294.89246      7.6824899      0.16126987   
  85450000  -43.925763      1109.8485      1065.9227      302.46237      1.2672507      0.16126987   
  85460000  -79.905524      1081.491       1001.5855      294.73421     -3.1358887      0.16126987   
  85470000  -47.814715      1097.9159      1050.1012      299.21043      7.6908949      0.16126987   
  85480000  -71.116018      1134.2363      1063.1203      309.10868      4.4042461      0.16126987   
  85490000  -85.87571       1144.8839      1059.0082      312.01041     -0.40681939     0.16126987   
  85500000  -47.056579      1143.3865      1096.3299      311.60233      3.9136796      0.16126987   
  85510000  -100.67117      1065.8073      965.1361       290.45999     -4.6958337      0.16126987   
  85520000  -39.129278      1112.9914      1073.8621      303.31888      6.6141559      0.16126987   
  85530000  -80.178974      1079.3028      999.12378      294.13786      2.7847399      0.16126987   
  85540000  -38.516413      1148.2879      1109.7715      312.93811      3.4582925      0.16126987   
  85550000  -92.940887      1130.8256      1037.8847      308.17917      0.39814715     0.16126987   
  85560000  -88.094458      1064.4356      976.34113      290.08617      1.1898516      0.16126987   
  85570000  -96.139246      1111.5168      1015.3776      302.91702     -10.684912      0.16126987   
  85580000  -108.3153       1055.6828      947.36755      287.70083      5.2239059      0.16126987   
  85590000  -53.831068      1065.8297      1011.9986      290.4661       7.2844618      0.16126987   
  85600000   15.468854      1097.6025      1113.0713      299.12501      3.7096777      0.16126987   
  85610000  -25.434498      1103.7531      1078.3186      300.80121     -0.93017941     0.16126987   
  85620000  -41.422197      1126.553       1085.1308      307.01476      0.039588544    0.16126987   
  85630000  -19.864534      1047.6582      1027.7937      285.51391      0.44809898     0.16126987   
  85640000  -74.198568      1116.5508      1042.3522      304.28892     -1.6384725      0.16126987   
  85650000  -83.332031      1069.6519      986.3199       291.50776     -0.53877458     0.16126987   
  85660000  -58.72283       1108.1564      1049.4336      302.00123      0.43534602     0.16126987   
  85670000  -45.229571      1080.3434      1035.1138      294.42147      1.7634751      0.16126987   
  85680000  -27.2534        1101.6497      1074.3963      300.22797      2.8046919      0.16126987   
  85690000  -25.293604      1132.5632      1107.2695      308.65269      0.18264524     0.16126987   
  85700000  -26.735554      1107.0392      1080.3036      301.69675      0.19192957     0.16126987   
  85710000  -2.3575806      1045.5819      1043.2243      284.94806     -2.4633445      0.16126987   
  85720000  -121.1396       1128.5686      1007.429       307.56408      3.272277       0.16126987   
  85730000  -120.44124      1127.4416      1007.0003      307.25693      8.9356769      0.16126987   
  85740000  -10.404487      1079.0037      1068.5992      294.05636      1.2850021      0.16126987   
  85750000   30.019462      1101.266       1131.2854      300.1234      -3.1461421      0.16126987   
  85760000   9.2924704      1108.499       1117.7914      302.09458      4.6636171      0.16126987   
  85770000  -26.917118      1091.8351      1064.918       297.55326     -3.1414571      0.16126987   
  85780000  -20.456969      1130.7124      1110.2554      308.1483       3.0325132      0.16126987   
  85790000  -59.492357      1100.5906      1041.0982      299.93934      0.5311718      0.16126987   
  85800000  -112.97232      1124.104       1011.1317      306.34737     -1.6661361      0.16126987   
  85810000  -87.931352      1096.3816      1008.4503      298.7923       2.3891943      0.16126987   
  85820000  -59.020368      1112.5657      1053.5453      303.20287     -4.0668636      0.16126987   
  85830000  -67.580787      1090.5711      1022.9903      297.20877      0.044804362    0.16126987   
  85840000  -106.68329      1110.7493      1004.066       302.70786     -0.39935941     0.16126987   
  85850000  -102.86678      1082.2389      979.37211      294.93803     -5.8934847      0.16126987   
  85860000  -99.291598      1141.1454      1041.8538      310.99159      0.86149004     0.16126987   
  85870000  -34.366151      1097.8285      1063.4623      299.1866      -4.1448729      0.16126987   
  85880000  -55.017831      1091.5537      1036.5359      297.47657     -6.4441274      0.16126987   
  85890000  -15.185987      1112.6544      1097.4684      303.22704      3.5604304      0.16126987   
  85900000  -50.097134      1077.9714      1027.8743      293.77504     -5.0930172      0.16126987   
  85910000  -71.439522      1112.0721      1040.6326      303.06836     -3.8897431      0.16126987   
  85920000  -72.260409      1109.3433      1037.0829      302.32468     -0.43613585     0.16126987   
  85930000  -118.32577      1156.7771      1038.4513      315.25161      4.3379144      0.16126987   
  85940000  -59.919617      1131.9251      1072.0055      308.47882     -1.8348965      0.16126987   
  85950000  -40.266317      1081.4829      1041.2166      294.73202     -3.1946345      0.16126987   
  85960000  -33.620983      1129.2532      1095.6322      307.75064      6.0979287      0.16126987   
  85970000  -24.472615      1109.0027      1084.5301      302.23186     -1.4592575      0.16126987   
  85980000  -57.338046      1101.5539      1044.2158      300.20187      2.00227        0.16126987   
  85990000  -29.413523      1077.1683      1047.7547      293.55616     -1.2991464      0.16126987   
  86000000  -86.370194      1102.7184      1016.3482      300.51924      2.3952041      0.16126987   
  86010000  -98.228214      1135.4468      1037.2186      309.43856      2.8961848      0.16126987   
  86020000  -2.6610302      1059.5264      1056.8654      288.7483      -3.9892768      0.16126987   
  86030000  -6.1588096      1079.7911      1073.6323      294.27094      6.6033974      0.16126987   
  86040000  -22.475816      1104.7444      1082.2686      301.07136      4.5840642      0.16126987   
  86050000  -54.910612      1101.2287      1046.3181      300.11325      5.6147162      0.16126987   
  86060000  -26.956423      1119.8886      1092.9321      305.19854     -3.2089134      0.16126987   
  86070000  -27.717348      1081.7963      1054.0789      294.8174      -2.3627196      0.16126987   
  86080000  -5.8445877      1046.1013      1040.2567      285.0896       0.49214372     0.16126987   
  86090000   1.6954063      1107.6383      1109.3337      301.86003     -3.9937544      0.16126987   
  86100000  -72.535335      1114.2699      1041.7346      303.66732     -1.0445423      0.16126987   
  86110000  -39.788232      1062.094       1022.3058      289.44804     -10.002337      0.16126987   
  86120000  -77.615034      1130.8933      1053.2783      308.19762      2.4665107      0.16126987   
  86130000  -69.580525      1115.5457      1045.9652      304.015        0.53868406     0.16126987   
  86140000  -23.454425      1119.1374      1095.683       304.99383     -7.4773927      0.16126987   
  86150000  -43.841584      1115.1106      1071.269       303.89642      1.3745718      0.16126987   
  86160000  -51.422967      1078.6255      1027.2026      293.9533      -0.79345988     0.16126987   
  86170000  -72.082174      1102.9539      1030.8718      300.58342      1.3989772      0.16126987   
  86180000  -20.030129      1097.5274      1077.4972      299.10454      2.7624599      0.16126987   
  86190000  -42.935786      1142.2785      1099.3427      311.30038      12.125341      0.16126987   
  86200000  -70.451704      1096.349       1025.8973      298.7834       2.6001797      0.16126987   
  86210000  -75.403669      1084.7976      1009.394       295.63536      0.17535173     0.16126987   
  86220000  -69.139138      1093.6014      1024.4622      298.0346      -1.1294258      0.16126987   
  86230000  -39.053375      1125.0792      1086.0258      306.61313     -3.1545211      0.16126987   
  86240000  -64.442265      1126.9176      1062.4753      307.11413      9.42141        0.16126987   
  86250000  -19.369396      1125.8068      1106.4374      306.81142     -0.23421683     0.16126987   
  86260000   4.578893       1125.2601      1129.839       306.66241      3.4789417      0.16126987   
  86270000  -60.187933      1105.0814      1044.8935      301.16321     -1.0535668      0.16126987   
  86280000  -97.894145      1085.7241      987.82998      295.88785      5.4191699      0.16126987   
  86290000  -89.321273      1104.6866      1015.3654      301.05562      2.2572847      0.16126987   
  86300000  -34.278589      1140.0741      1105.7955      310.69962     -0.25269768     0.16126987   
  86310000  -51.696016      1070.4264      1018.7304      291.71883      6.4508754      0.16126987   
  86320000  -45.948828      1158.1202      1112.1714      315.61765     -2.8612841      0.16126987   
  86330000  -104.3727       1103.9345      999.56184      300.85066     -2.3838782      0.16126987   
  86340000  -117.07811      1075.3259      958.24777      293.05406     -1.6999412      0.16126987   
  86350000  -102.31555      1123.3925      1021.0769      306.15345      6.0093489      0.16126987   
  86360000  -105.0079       1093.1924      988.18451      297.92315      5.9854665      0.16126987   
  86370000  -73.071181      1116.6914      1043.6203      304.32725      4.5114781      0.16126987   
  86380000  -12.30088       1077.5274      1065.2265      293.65402      5.4382995      0.16126987   
  86390000  -20.148585      1115.3307      1095.1821      303.9564       0.80641224     0.16126987   
  86400000  -25.260225      1131.5149      1106.2547      308.36702      0.35982459     0.16126987   
  86410000  -83.002149      1114.1688      1031.1666      303.63976      4.654662       0.16126987   
  86420000  -35.422763      1042.3901      1006.9673      284.0782      -2.9383737      0.16126987   
  86430000  -86.841039      1058.0183      971.1773       288.33731      1.0987066      0.16126987   
  86440000  -48.421064      1091.5517      1043.1307      297.47602     -3.2877325      0.16126987   
  86450000  -54.801632      1101.0179      1046.2163      300.05581      2.0759481      0.16126987   
  86460000  -39.150824      1085.3131      1046.1623      295.77585      4.2887679      0.16126987   
  86470000  -34.93344       1141.9108      1106.9773      311.20016      9.5916844      0.16126987   
  86480000  -52.281855      1096.4281      1044.1463      298.80497      2.1369608      0.16126987   
  86490000  -0.44868186     1128.9646      1128.5159      307.672        1.4285428      0.16126987   
  86500000  -11.638925      1127.997       1116.358       307.40829      3.4101818      0.16126987   
  86510000   10.099284      1106.246       1116.3453      301.48059      1.5040053      0.16126987   
  86520000   15.815246      1103.3891      1119.2043      300.70201     -2.0211438      0.16126987   
  86530000  -38.022893      1068.3376      1030.3147      291.14956     -1.5134843      0.16126987   
  86540000  -12.32939       1068.761       1056.4316      291.26497      3.2200782      0.16126987   
  86550000  -70.029441      1051.6208      981.59136      286.59382     -0.075906683    0.16126987   
  86560000  -90.416383      1127.7782      1037.3618      307.34867      1.7878085      0.16126987   
  86570000  -86.706365      1103.6668      1016.9604      300.77769      9.9228363      0.16126987   
  86580000  -43.137976      1107.8879      1064.7499      301.92804      4.8742748      0.16126987   
  86590000  -46.578491      1115.029       1068.4505      303.87419      8.743373       0.16126987   
  86600000   32.395177      1088.8038      1121.199       296.72713      1.6694418      0.16126987   
  86610000   14.172027      1113.569       1127.741       303.47629      3.5621472      0.16126987   
  86620000  -52.495577      1105.9974      1053.5018      301.41285      1.9507312      0.16126987   
  86630000   1.5730635      1079.0333      1080.6064      294.06444      1.9283718      0.16126987   
  86640000  -83.155637      1106.1644      1023.0088      301.45836      0.3137612      0.16126987   
  86650000  -54.602793      1130.5732      1075.9704      308.11039     -4.8463359      0.16126987   
  86660000  -84.874722      1145.0639      1060.1892      312.05948      2.6273069      0.16126987   
  86670000  -67.753539      1149.0125      1081.259       313.13558      1.0002279      0.16126987   
  86680000  -27.88076       1112.1394      1084.2586      303.08669     -3.1359757      0.16126987   
  86690000  -120.86938      1144.4643      1023.5949      311.89607      3.0103877      0.16126987   
  86700000  -55.082141      1086.5342      1031.452       296.10861     -1.2104578      0.16126987   
  86710000  -16.75727       1109.6006      1092.8433      302.3948      -8.6210132      0.16126987   
  86720000  -86.951763      1110.8087      1023.8569      302.72404      10.800408      0.16126987   
  86730000  -85.506169      1112.2694      1026.7632      303.12211      7.3774085      0.16126987   
  86740000  -57.736232      1077.1155      1019.3793      293.54179      4.1394271      0.16126987   
  86750000  -66.224809      1155.4771      1089.2523      314.89734      12.142053      0.16126987   
  86760000  -22.575127      1109.3262      1086.751       302.32002      1.1012819      0.16126987   
  86770000  -80.460248      1095.8658      1015.4055      298.65171      7.1434709      0.16126987   
  86780000  -47.023808      1106.6963      1059.6725      301.6033       0.95362854     0.16126987   
  86790000  -81.843888      1098.1584      1016.3145      299.27651     -0.6477395      0.16126987   
  86800000  -74.157966      1098.8862      1024.7283      299.47486      5.3552967      0.16126987   
  86810000  -80.433882      1122.7067      1042.2728      305.96655     -0.10980936     0.16126987   
  86820000  -88.584711      1072.6966      984.1119       292.33752      1.8490239      0.16126987   
  86830000  -128.72242      1114.117       985.3946       303.62565     -1.2823059      0.16126987   
  86840000  -49.077596      1076.9854      1027.9078      293.50632      3.3897456      0.16126987   
  86850000  -168.47836      1088.3836      919.90526      296.61263     -7.2388646      0.16126987   
  86860000  -116.20079      1107.0617      990.86093      301.7029       0.30804589     0.16126987   
  86870000  -94.418637      1110.137       1015.7184      302.54099      4.4010963      0.16126987   
  86880000  -102.66429      1100.9642      998.29986      300.04115      9.9694381      0.16126987   
  86890000  -43.199373      1087.2609      1044.0615      296.30666     -5.3569148      0.16126987   
  86900000  -85.446462      1168.6135      1083.167       318.47735      0.32193965     0.16126987   
  86910000  -69.48906       1102.5827      1033.0936      300.48225     -5.2247507      0.16126987   
  86920000  -99.245785      1111.1965      1011.9508      302.82974     -6.3218123      0.16126987   
  86930000  -115.1601       1100.955       985.79495      300.03867      2.0165016      0.16126987   
  86940000  -109.11818      1062.955       953.83685      289.68269     -4.2981812      0.16126987   
  86950000  -159.27979      1111.5487      952.26887      302.9257       2.4471651      0.16126987   
  86960000  -79.197814      1109.831       1030.6332      302.45759     -4.1820508      0.16126987   
  86970000  -119.09805      1132.6912      1013.5931      308.68759      3.8910055      0.16126987   
  86980000  -100.09469      1124.8921      1024.7974      306.56213      2.5858024      0.16126987   
  86990000  -132.49766      1094.7527      962.25502      298.34837      3.3509326      0.16126987   
  87000000  -27.778736      1104.7668      1076.988       301.07747     -4.5277745      0.16126987   
  87010000  -62.510718      1097.8369      1035.3262      299.18891      1.7868967      0.16126987   
  87020000  -87.173877      1086.0361      998.8622       295.97287     -2.1509444      0.16126987   
  87030000  -92.020795      1087.506       995.48524      296.37347      1.776083       0.16126987   
  87040000  -122.34425      1072.608       950.26372      292.31336     -2.5250792      0.16126987   
  87050000  -84.154723      1106.2784      1022.1237      301.48943      0.83122853     0.16126987   
  87060000  -75.375344      1062.8681      987.49273      289.65899      6.5529455      0.16126987   
  87070000  -82.028467      1088.3035      1006.275       296.59079     -1.3013091      0.16126987   
  87080000  -71.858518      1048.6483      976.78976      285.78373     -2.3231353      0.16126987   
  87090000  -104.27764      1137.5682      1033.2906      310.0167      -0.60464546     0.16126987   
  87100000  -87.018528      1081.9206      994.90202      294.85128      7.1223986      0.16126987   
  87110000  -125.78633      1126.1113      1000.325       306.89441     -0.039828157    0.16126987   
  87120000  -50.227533      1093.5673      1043.3398      298.02533     -7.579771       0.16126987   
  87130000  -46.475663      1037.6537      991.17802      282.78741     -6.5661758      0.16126987   
  87140000  -96.481125      1096.8014      1000.3203      298.9067      -0.43387434     0.16126987   
  87150000  -105.80789      1088.1106      982.30268      296.53822      4.6539559      0.16126987   
  87160000  -109.31462      1072.7885      963.47387      292.36256      5.6908524      0.16126987   
  87170000  -159.36865      1122.0991      962.73044      305.80097      8.9548605      0.16126987   
  87180000  -63.668901      1103.9135      1040.2446      300.84493      5.2870544      0.16126987   
  87190000  -68.129664      1095.577       1027.4473      298.57301      3.298741       0.16126987   
  87200000  -64.738337      1086.7733      1022.0349      296.17376      3.4540808      0.16126987   
  87210000  -82.263307      1115.757       1033.4937      304.0726      -3.3146286      0.16126987   
  87220000  -96.411322      1095.5953      999.18402      298.57801     -3.7222227      0.16126987   
  87230000  -109.76853      1049.7035      939.93496      286.0713       1.6288105      0.16126987   
  87240000  -83.393177      1104.0068      1020.6137      300.87036      1.3019148      0.16126987   
  87250000  -104.17461      1115.8662      1011.6916      304.10235     -1.1958235      0.16126987   
  87260000  -110.50996      1130.1433      1019.6334      307.99322     -2.558829       0.16126987   
  87270000  -119.68406      1131.9453      1012.2612      308.48432     -5.3789791      0.16126987   
  87280000  -69.286282      1109.5235      1040.2372      302.37379     -2.1983421      0.16126987   
  87290000  -39.168009      1084.3916      1045.2236      295.5247      -3.4168458      0.16126987   
  87300000  -36.805745      1119.3866      1082.5809      305.06175     -1.5348622      0.16126987   
  87310000  -97.611785      1131.569       1033.9572      308.38175     -3.0939893      0.16126987   
  87320000  -62.170881      1087.2375      1025.0666      296.30029      6.1372635      0.16126987   
  87330000  -32.857332      1119.4466      1086.5892      305.07808      2.4305149      0.16126987   
  87340000  -69.975093      1119.1685      1049.1934      305.0023       3.853855       0.16126987   
  87350000  -74.370199      1107.7821      1033.4119      301.89922     -1.2336087      0.16126987   
  87360000  -114.65544      1094.6921      980.03671      298.33187      3.8955073      0.16126987   
  87370000  -93.514742      1079.1926      985.67785      294.10784     -2.5030723      0.16126987   
  87380000  -60.158343      1101.5602      1041.4018      300.20358      7.4456981      0.16126987   
  87390000  -45.669453      1113.8761      1068.2066      303.55999      0.11553162     0.16126987   
  87400000  -111.25291      1079.4435      968.19059      294.17622      6.0847357      0.16126987   
  87410000  -103.9128       1079.3457      975.43291      294.14957      8.2787483      0.16126987   
  87420000  -60.347372      1111.7819      1051.4346      302.98928     -0.26058113     0.16126987   
  87430000  -89.306791      1154.6049      1065.2981      314.65965     -3.2348072      0.16126987   
  87440000  -136.43663      1059.2376      922.80099      288.6696       4.4114656      0.16126987   
  87450000  -90.494465      1143.3179      1052.8234      311.58364      5.0467837      0.16126987   
  87460000  -103.46175      1100.0092      996.54742      299.7809       8.4993974      0.16126987   
  87470000  -83.561281      1102.9593      1019.398       300.58488      4.1548519      0.16126987   
  87480000  -78.94417       1103.3825      1024.4384      300.70022      2.960845       0.16126987   
  87490000  -53.825676      1083.5632      1029.7376      295.29895      5.8796822      0.16126987   
  87500000  -34.520819      1062.6499      1028.1291      289.59952     -1.9293458      0.16126987   
[...]
  98200000  -108.91334      1093.7597      984.8464       298.07776      6.483838       0.16126987   
  98210000  -86.380197      1076.9065      990.52634      293.48483     -1.9682504      0.16126987   
  98220000  -63.884353      1091.3698      1027.4854      297.42643      3.3071007      0.16126987   
  98230000  -54.072789      1158.5418      1104.469       315.73255      0.15567453     0.16126987   
  98240000  -11.454889      1092.3643      1080.9094      297.69746      1.5262679      0.16126987   
  98250000  -127.99308      1074.4664      946.47337      292.81984      7.382256       0.16126987   
  98260000  -152.38778      1081.1304      928.74257      294.63593      1.0780596      0.16126987   
  98270000  -182.9079       1132.5457      949.6378       308.64794      3.6834111      0.16126987   
  98280000  -81.378436      1087.7591      1006.3807      296.44244      1.5348758      0.16126987   
  98290000  -49.383631      1076.6434      1027.2598      293.41313     -7.8987518      0.16126987   
  98300000  -104.15987      1093.3639      989.20405      297.96989     -1.4445797      0.16126987   
  98310000  -84.426705      1149.5721      1065.1454      313.28807      5.4974964      0.16126987   
  98320000  -77.314863      1099.6873      1022.3725      299.69319     -2.9229374      0.16126987   
  98330000  -27.533398      1119.2846      1091.7512      305.03394     -2.1797055      0.16126987   
  98340000   14.519937      1034.3939      1048.9138      281.89904      3.4257081      0.16126987   
  98350000   26.657208      1094.1134      1120.7706      298.17413     -2.7776895      0.16126987   
  98360000  -17.744523      1122.0357      1104.2912      305.78369      5.8967429      0.16126987   
  98370000  -74.276856      1082.2306      1007.9537      294.93577      4.0839288      0.16126987   
  98380000  -36.555368      1117.7064      1081.151       304.60384     -2.1226146      0.16126987   
  98390000  -71.801443      1066.9631      995.16163      290.77498      0.758494       0.16126987   
  98400000  -110.10308      1074.2409      964.13779      292.75837     -2.8940656      0.16126987   
  98410000  -102.85941      1116.6359      1013.7765      304.3121       4.5593027      0.16126987   
  98420000  -65.693388      1074.3042      1008.6108      292.77561      3.7832918      0.16126987   
  98430000  -88.446464      1111.239       1022.7926      302.84132      6.457357       0.16126987   
  98440000  -90.063781      1086.2971      996.23335      296.04401      3.505283       0.16126987   
  98450000  -113.15102      1099.3741      986.22306      299.60782      4.9033651      0.16126987   
  98460000  -65.38172       1131.4526      1066.0709      308.35003      3.7964074      0.16126987   
  98470000  -72.17521       1094.3735      1022.1983      298.24503     -7.7818921      0.16126987   
  98480000  -125.59993      1154.3971      1028.7972      314.60301      3.8281278      0.16126987   
  98490000  -1.4718854      1104.8762      1103.4043      301.10728      3.1556815      0.16126987   
  98500000  -37.702369      1133.1483      1095.4459      308.81215      0.54120424     0.16126987   
  98510000  -95.088677      1105.0924      1010.0037      301.16621      2.2606933      0.16126987   
  98520000  -65.841467      1098.1831      1032.3417      299.28325     -0.97859772     0.16126987   
  98530000  -51.966351      1145.1703      1093.204       312.08847      3.9037469      0.16126987   
  98540000  -122.21606      1101.6553      979.43924      300.22951      2.8593113      0.16126987   
  98550000  -37.984325      1116.4715      1078.4871      304.26729      1.6940638      0.16126987   
  98560000  -61.499441      1155.6674      1094.168       314.94921      6.876495       0.16126987   
  98570000  -47.197831      1071.981       1024.7832      292.14249     -6.9636682      0.16126987   
  98580000  -75.523971      1124.7597      1049.2357      306.52605      4.0137933      0.16126987   
  98590000   7.7915335      1057.4933      1065.2849      288.19424     -1.5724216      0.16126987   
  98600000  -55.414695      1101.9764      1046.5617      300.31702      5.0556016      0.16126987   
  98610000  -66.54059       1101.2319      1034.6913      300.11412     -0.49130104     0.16126987   
  98620000  -109.93774      1100.3167      990.37893      299.8647       1.9926231      0.16126987   
  98630000  -147.43574      1054.017       906.58127      287.24684      1.8327156      0.16126987   
  98640000  -118.05445      1088.2911      970.23662      296.58741      5.6859959      0.16126987   
  98650000  -86.813661      1108.2001      1021.3864      302.01314      1.0550951      0.16126987   
  98660000  -100.16736      1104.3819      1004.2145      300.97257      6.1536055      0.16126987   
  98670000  -102.62033      1114.1765      1011.5562      303.64186     -6.5945389      0.16126987   
  98680000  -89.502468      1143.6031      1054.1007      311.66137      0.50728274     0.16126987   
  98690000  -60.122958      1118.4233      1058.3003      304.79921      3.3598398      0.16126987   
  98700000  -73.541984      1096.2019      1022.6599      298.74331      3.2246606      0.16126987   
  98710000  -83.013583      1121.6106      1038.597       305.66785      1.9512029      0.16126987   
  98720000  -66.518102      1091.4551      1024.9369      297.44968     -3.9733385      0.16126987   
  98730000  -87.00386       1075.9354      988.9315       293.22016      3.0036568      0.16126987   
  98740000  -73.715585      1092.6567      1018.9412      297.77717     -4.9484426      0.16126987   
  98750000  -49.19849       1141.051       1091.8525      310.96584      1.4599827      0.16126987   
  98760000  -58.838141      1100.4678      1041.6297      299.90589     -10.924044      0.16126987   
  98770000  -55.334038      1128.198       1072.864       307.46308      8.9838589      0.16126987   
  98780000   0.11497353     1090.1949      1090.3099      297.10626      1.0767586      0.16126987   
  98790000  -55.333808      1122.5814      1067.2475      305.9324      -3.0566281      0.16126987   
  98800000  -143.16159      1099.8984      956.73679      299.7507       2.7824701      0.16126987   
  98810000  -97.868261      1114.6963      1016.828       303.78351      4.4714791      0.16126987   
  98820000  -123.63825      1096.8957      973.25747      298.9324       1.0933126      0.16126987   
  98830000  -40.129264      1063.6183      1023.489       289.86344      1.7180184      0.16126987   
  98840000  -30.912592      1100.6962      1069.7836      299.96813      8.96888        0.16126987   
  98850000  -36.432153      1084.5124      1048.0802      295.55761      0.80402958     0.16126987   
  98860000  -83.25842       1085.2123      1001.9538      295.74835      8.6019083      0.16126987   
  98870000  -85.745872      1074.6603      988.91442      292.87267      2.5164003      0.16126987   
  98880000  -141.60391      1097.4912      955.88733      299.09469      2.0042499      0.16126987   
  98890000  -64.036257      1080.507       1016.4708      294.46606     -6.6030836      0.16126987   
  98900000  -111.02693      1093.3148      982.28786      297.95651      3.0237576      0.16126987   
  98910000  -65.55665       1148.8263      1083.2697      313.08483      1.670602       0.16126987   
  98920000  -106.8097       1085.7455      978.93576      295.89366     -0.0045502642   0.16126987   
  98930000  -44.306865      1106.5047      1062.1978      301.55109      9.7496513      0.16126987   
  98940000  -117.30051      1111.2036      993.90307      302.83166      2.386835       0.16126987   
  98950000  -89.656382      1145.3178      1055.6614      312.12866      3.168425       0.16126987   
  98960000  -76.246106      1109.636       1033.3899      302.40444      4.6020542      0.16126987   
  98970000  -100.30216      1090.111       989.80884      297.08339     -5.5887591      0.16126987   
  98980000  -69.544472      1089.4914      1019.9469      296.91453      7.7760593      0.16126987   
  98990000  -96.838921      1103.9555      1007.1165      300.85636      6.7389752      0.16126987   
  99000000  -48.164961      1063.1378      1014.9729      289.73251     -5.438516       0.16126987   
  99010000  -47.557228      1100.7221      1053.1648      299.97518     -6.6119918      0.16126987   
  99020000  -55.53723       1161.0034      1105.4662      316.4034       3.4539537      0.16126987   
  99030000  -16.109059      1124.7207      1108.6117      306.51543      3.6095034      0.16126987   
  99040000  -96.769856      1102.1818      1005.412       300.37299     -1.6215961      0.16126987   
  99050000  -145.07507      1133.3232      988.24812      308.85982      7.6681773      0.16126987   
  99060000  -129.42855      1057.8755      928.44698      288.29839     -1.1095565      0.16126987   
  99070000  -92.38025       1047.2354      954.85519      285.39869      9.3089243      0.16126987   
  99080000  -89.892138      1128.4091      1038.517       307.52061     -0.97386121     0.16126987   
  99090000  -33.798619      1074.7339      1040.9353      292.89274      0.74537788     0.16126987   
  99100000  -80.180949      1112.0744      1031.8935      303.06898      7.2752078      0.16126987   
  99110000  -145.08755      1130.1338      985.04625      307.99063      5.1828527      0.16126987   
  99120000  -91.205062      1112.3647      1021.1596      303.14809      4.8865864      0.16126987   
  99130000  -61.04419       1091.9717      1030.9275      297.59048      3.1604434      0.16126987   
  99140000  -49.76319       1130.1684      1080.4052      308.00007      0.026518465    0.16126987   
  99150000  -84.543832      1083.3321      998.78826      295.23596      10.322843      0.16126987   
  99160000  -44.212456      1083.6522      1039.4397      295.32319     -12.372698      0.16126987   
  99170000  -86.372639      1109.3999      1023.0273      302.34012      1.4749052      0.16126987   
  99180000  -80.125303      1093.3631      1013.2378      297.96967      0.26526035     0.16126987   
  99190000  -79.742448      1055.6921      975.94969      287.70336     -0.023460496    0.16126987   
  99200000  -51.643485      1062.0995      1010.456       289.44953      1.4723571      0.16126987   
  99210000  -48.746159      1123.2981      1074.5519      306.12773     -1.2041511      0.16126987   
  99220000  -104.97474      1092.4416      987.46689      297.71855      5.8318537      0.16126987   
  99230000  -69.807652      1111.9111      1042.1034      303.02448     -10.683484      0.16126987   
  99240000  -43.921266      1080.0325      1036.1112      294.33672      1.8284781      0.16126987   
  99250000  -77.948188      1106.3952      1028.447       301.52126      7.6149429      0.16126987   
  99260000  -57.89442       1092.5876      1034.6932      297.75834      2.8687289      0.16126987   
  99270000  -70.431723      1078.4002      1007.9685      293.89189     -2.7655168      0.16126987   
  99280000  -122.13214      1078.0161      955.88395      293.78721      1.4671808      0.16126987   
  99290000  -97.367835      1131.5519      1034.1841      308.37711      4.1949706      0.16126987   
  99300000  -99.296525      1119.466       1020.1695      305.08339      6.444663       0.16126987   
  99310000  -114.76436      1109.2461      994.48175      302.2982      -7.875396       0.16126987   
  99320000  -96.428376      1136.7268      1040.2984      309.78739      1.6092968      0.16126987   
  99330000  -110.63892      1099.3768      988.73785      299.60855     -5.1099097      0.16126987   
  99340000  -153.29517      1110.5792      957.28401      302.66149     -3.0271285      0.16126987   
  99350000  -98.67933       1089.5123      990.833        296.92023      5.6107004      0.16126987   
  99360000  -101.14261      1082.8095      981.66687      295.09354      9.5799569      0.16126987   
  99370000  -75.19919       1084.1446      1008.9454      295.45739     -2.6945527      0.16126987   
  99380000  -64.952675      1136.8689      1071.9162      309.82613      4.0760274      0.16126987   
  99390000  -100.86853      1095.1282      994.25971      298.45071      7.5831062      0.16126987   
  99400000  -59.496174      1127.2101      1067.7139      307.19384      0.66277849     0.16126987   
  99410000  -53.759221      1085.6962      1031.937       295.88024     -0.065742749    0.16126987   
  99420000  -116.22383      1094.1842      977.96034      298.19343      2.2691217      0.16126987   
  99430000  -117.80587      1124.1689      1006.363       306.36503     -0.2446588      0.16126987   
  99440000  -80.375561      1106.3951      1026.0196      301.52124      3.7561208      0.16126987   
  99450000  -60.756297      1121.9609      1061.2046      305.76332     -0.23388404     0.16126987   
  99460000  -142.96393      1105.6262      962.66231      301.31169      7.5478514      0.16126987   
  99470000  -133.9438       1090.4482      956.50439      297.17528     -5.2582763      0.16126987   
  99480000  -79.480592      1081.8308      1002.3502      294.82683      0.34526259     0.16126987   
  99490000  -87.395351      1060.2002      972.80489      288.93193     -5.1492538      0.16126987   
  99500000  -129.77705      1083.5213      953.74425      295.28752     -6.7357188      0.16126987   
  99510000  -114.68408      1100.2439      985.55985      299.84487      1.1173557      0.16126987   
  99520000  -96.739004      1149.8862      1053.1471      313.37366      6.1567443      0.16126987   
  99530000  -116.31968      1090.3845      974.06485      297.15793     -2.9196216      0.16126987   
  99540000  -122.25355      1081.0702      958.81668      294.61954     -2.8088719      0.16126987   
  99550000  -95.353818      1111.2722      1015.9184      302.85036      6.8547718      0.16126987   
  99560000  -106.0645       1152.0931      1046.0286      313.9751       7.5090081      0.16126987   
  99570000  -73.566025      1099.9268      1026.3607      299.75844      2.1337125      0.16126987   
  99580000  -58.574656      1133.8666      1075.292       309.00793      3.3335285      0.16126987   
  99590000  -37.578277      1074.1153      1036.5371      292.72416     -7.9539195      0.16126987   
  99600000  -49.994147      1156.0228      1106.0286      315.04605     -1.2560659      0.16126987   
  99610000  -39.820256      1109.4538      1069.6335      302.3548       10.598549      0.16126987   
  99620000  -47.197217      1069.2467      1022.0495      291.39732      4.5442605      0.16126987   
  99630000  -13.006563      1113.7746      1100.7681      303.53234      5.8786328      0.16126987   
  99640000  -127.13871      1104.7504      977.61165      301.07299      3.3734901      0.16126987   
  99650000  -79.673468      1055.563       975.88952      287.66816      10.029813      0.16126987   
  99660000  -44.473802      1101.5802      1057.1064      300.20905     -7.5987345      0.16126987   
  99670000  -64.623789      1048.3532      983.72944      285.70332      3.6792119      0.16126987   
  99680000  -40.831492      1088.8739      1048.0424      296.74625     -0.47003808     0.16126987   
  99690000  -46.363984      1121.7291      1075.3651      305.70013     -7.7278071      0.16126987   
  99700000  -62.892772      1129.6986      1066.8058      307.87203      6.3497801      0.16126987   
  99710000  -71.573652      1095.8719      1024.2983      298.65339      6.0449118      0.16126987   
  99720000  -27.397222      1103.3664      1075.9692      300.69584     -7.4276677      0.16126987   
  99730000  -74.543692      1100.7283      1026.1846      299.97687     -2.1901601      0.16126987   
  99740000  -70.844053      1075.2532      1004.4091      293.03424      3.7163319      0.16126987   
  99750000  -35.72531       1083.4592      1047.7339      295.2706       8.0364685      0.16126987   
  99760000  -107.89132      1068.27        960.3787       291.13116     -1.407659       0.16126987   
  99770000  -90.074146      1115.7893      1025.7152      304.08139      1.5297236      0.16126987   
  99780000  -49.2798        1062.6657      1013.3859      289.60384     -0.83142131     0.16126987   
  99790000  -67.479006      1083.751       1016.272       295.35012      6.1574572      0.16126987   
  99800000  -116.21958      1092.4834      976.2638       297.72992      5.823306       0.16126987   
  99810000  -37.906909      1059.7279      1021.821       288.80321     -1.0173696      0.16126987   
  99820000  -121.56287      1123.8808      1002.3179      306.28653     -1.4470342      0.16126987   
  99830000  -88.779584      1055.7846      967.00504      287.72856     -5.0450845      0.16126987   
  99840000  -50.594664      1101.6947      1051.1         300.24024      8.6403787      0.16126987   
  99850000  -82.999864      1097.1339      1014.1341      298.99731      1.7452933      0.16126987   
  99860000  -51.194902      1054.9805      1003.7855      287.50941     -2.3631503      0.16126987   
  99870000  -85.761797      1124.3188      1038.557       306.40589     -0.95951664     0.16126987   
  99880000  -57.214507      1053.6386      996.42405      287.14371      2.7607447      0.16126987   
  99890000  -65.109003      1059.2917      994.18266      288.68432      0.45214452     0.16126987   
  99900000  -66.348985      1108.7263      1042.3774      302.15655     -1.5897072      0.16126987   
  99910000  -69.706886      1072.28        1002.5731      292.22399      6.6285614      0.16126987   
  99920000  -82.87483       1129.7198      1046.8449      307.87779      0.67687653     0.16126987   
  99930000  -63.221797      1149.7139      1086.4921      313.32671      4.351434       0.16126987   
  99940000  -135.06422      1104.112       969.04782      300.89903      1.2498847      0.16126987   
  99950000  -22.858937      1064.7463      1041.8874      290.17087      2.9334532      0.16126987   
  99960000  -57.364732      1109.2409      1051.8762      302.29679      2.7117845      0.16126987   
  99970000  -87.636911      1127.0307      1039.3938      307.14496     -4.2926017      0.16126987   
  99980000  -123.53354      1054.2699      930.73639      287.31577     -4.144982       0.16126987   
  99990000  -89.381919      1120.8229      1031.441       305.45317      13.075981      0.16126987   
 100000000  -53.340611      1098.0649      1044.7243      299.25103      2.0273175      0.16126987   
Loop time of 10791.1 on 4 procs for 20000000 steps with 1232 atoms

Performance: 1601.314 ns/day, 0.015 hours/ns, 1853.373 timesteps/s, 2.283 Matom-step/s
99.6% CPU use with 4 MPI tasks x 1 OpenMP threads

MPI task timing breakdown:
Section |  min time  |  avg time  |  max time  |%varavg| %total
---------------------------------------------------------------
Pair    | 7080.7     | 7678.8     | 7988.1     | 414.3 | 71.16
Bond    | 457.8      | 475.54     | 484.6      |  49.5 |  4.41
Neigh   | 22.322     | 22.329     | 22.339     |   0.1 |  0.21
Comm    | 2129.6     | 2439.9     | 3061       | 759.2 | 22.61
Output  | 0.49517    | 0.63053    | 0.93933    |  22.7 |  0.01
Modify  | 146.37     | 152.85     | 156.53     |  31.7 |  1.42
Other   |            | 21.08      |            |       |  0.20

Nlocal:            308 ave         326 max         287 min
Histogram: 1 0 1 0 0 0 0 0 0 2
Nghost:        1172.75 ave        1219 max        1149 min
Histogram: 2 0 1 0 0 0 0 0 0 1
Neighs:        3536.25 ave        3852 max        3305 min
Histogram: 2 0 0 0 0 0 1 0 0 1

Total # of neighbors = 14145
Ave neighs/atom = 11.481331
Ave special neighs/atom = 5.0162338
Neighbor list builds = 39757
Dangerous builds = 0

write_data outputs/${tag}_final.data
write_data outputs/100ASO_extended_12mer_unmodified_final.data
System init for write_data ...
Generated 0 of 6 mixed pair_coeff terms from geometric mixing rule
Total wall time: 2:59:51
