LAMMPS (29 Aug 2024)
  using 1 OpenMP thread(s) per MPI task
  using 1 OpenMP thread(s) per MPI task
Reading data file ...
  orthogonal box = (-50 -50 -50) to (50 50 50)
  1 by 1 by 1 MPI processor grid
  reading atoms ...
  42 atoms
  scanning bonds ...
  1 = max bonds/atom
  scanning angles ...
  1 = max angles/atom
  orthogonal box = (-50 -50 -50) to (50 50 50)
  1 by 1 by 1 MPI processor grid
  reading bonds ...
  40 bonds
  reading angles ...
  38 angles
Finding 1-2 1-3 1-4 neighbors ...
  special bond factors lj:    0        0        0       
  special bond factors coul:  0        0        0       
     2 = max # of 1-2 neighbors
     2 = max # of 1-3 neighbors
     4 = max # of 1-4 neighbors
     6 = max # of special neighbors
  special bonds CPU = 0.000 seconds
  read_data CPU = 0.010 seconds
Finding 1-2 1-3 1-4 neighbors ...
  special bond factors lj:    0        0        1       
  special bond factors coul:  0        0        0       
     2 = max # of 1-2 neighbors
     2 = max # of 1-3 neighbors
     4 = max # of 1-4 neighbors
     6 = max # of special neighbors
  special bonds CPU = 0.000 seconds

CITE-CITE-CITE-CITE-CITE-CITE-CITE-CITE-CITE-CITE-CITE-CITE-CITE

Your simulation uses code contributions which should be cited:
- Type Label Framework: https://doi.org/10.1021/acs.jpcb.3c08419
The log file lists these citations in BibTeX format.

CITE-CITE-CITE-CITE-CITE-CITE-CITE-CITE-CITE-CITE-CITE-CITE-CITE

Generated 0 of 6 mixed pair_coeff terms from geometric mixing rule
Neighbor list info ...
  update: every = 10 steps, delay = 0 steps, check = yes
  max neighbors/atom: 2000, page size: 100000
  master list distance cutoff = 33
  ghost atom cutoff = 33
  binsize = 16.5, bins = 7 7 7
  2 neighbor lists, perpetual/occasional/extra = 2 0 0
  (1) pair lj/cut, perpetual, trim from (2)
      attributes: half, newton on, cut 25
      pair build: trim
      stencil: none
      bin: none
  (2) pair base/rna, perpetual
      attributes: half, newton on
      pair build: half/bin/newton
      stencil: half/bin/3d
      bin: standard
Setting up Verlet run ...
  Unit style    : real
  Current step  : 0
  Time step     : 10
Per MPI rank memory allocation (min/avg/max) = 7.278 | 7.278 | 7.278 Mbytes
   Step         PotEng         KinEng          Temp     
         0   11081.633      0              0            
     10000   1120.6888      2451.0449      20055.482    
     20000   268.63067      706.88119      5783.9997    
     30000   98.527857      233.57448      1911.2048    
     40000   50.888258      97.902789      801.08187    
     50000   20.953881      65.983994      539.90884    
     60000   37.024016      47.095033      385.35141    
     70000   15.462478      43.229337      353.72065    
     80000   14.177569      47.78021       390.95781    
     90000   16.909082      38.993514      319.06136    
    100000   10.793108      40.179477      328.76541    
    110000   14.09484       37.046254      303.12806    
    120000   5.8614494      38.946065      318.67311    
    130000   3.3543722      27.151428      222.16443    
    140000   3.3622373      30.946388      253.21639    
    150000   15.648721      31.497822      257.72845    
    160000   9.9436638      36.822302      301.29559    
    170000   2.6923421      41.439578      339.07609    
    180000  -1.5510265      46.461442      380.1671     
    190000  -6.3456964      30.213564      247.22012    
    200000  -5.723733       34.929903      285.81118    
    210000  -4.8700665      32.418837      265.26458    
    220000   1.7568456      33.449268      273.69601    
    230000   1.3905275      35.754813      292.56094    
    240000   3.3648352      40.462467      331.08095    
    250000   1.2540763      45.6781        373.75747    
    260000  -0.056049029    28.28313       231.42449    
    270000   0.5542655      33.992342      278.13967    
    280000  -11.136052      38.494744      314.98022    
    290000  -7.0601744      39.913902      326.59237    
    300000  -5.48968        36.939866      302.25755    
    310000  -12.495581      40.243433      329.28873    
    320000  -19.625029      38.6981        316.64416    
    330000  -19.236273      44.449527      363.70476    
    340000  -21.703169      34.57199       282.88259    
    350000  -26.865453      41.495078      339.53021    
    360000  -7.0032585      43.480355      355.77459    
    370000  -27.593437      41.253691      337.55508    
    380000  -25.568456      38.977359      318.92918    
    390000  -28.47901       34.663706      283.63305    
    400000  -32.791758      36.565413      299.19362    
    410000  -22.836839      36.153233      295.82098    
    420000  -21.187928      33.561954      274.61805    
    430000  -26.02984       47.159237      385.87675    
    440000  -21.896104      32.5692        266.49492    
    450000  -23.135504      31.704884      259.42272    
    460000  -19.202743      33.388532      273.19903    
    470000  -3.2826468      38.063725      311.45344    
    480000  -20.704913      45.351519      371.08524    
    490000  -17.352443      35.350962      289.25647    
    500000  -14.305481      37.190082      304.30492    
    510000  -26.237649      43.283506      354.16389    
    520000  -24.050206      32.349811      264.69979    
    530000  -19.076537      26.432113      216.27868    
    540000  -28.710391      31.947946      261.41156    
    550000  -35.72281       39.22383       320.9459     
    560000  -14.163513      35.656366      291.75541    
    570000  -23.628775      32.212336      263.57491    
    580000  -20.961788      35.705187      292.15488    
    590000  -22.806424      33.390595      273.21592    
    600000  -26.040227      27.686238      226.54046    
    610000  -19.493739      38.312472      313.48879    
    620000  -15.769472      35.751853      292.53673    
    630000  -11.529401      33.564454      274.6385     
    640000  -17.991895      37.921349      310.28846    
    650000  -19.304984      34.821222      284.92192    
    660000  -20.791728      40.522379      331.57118    
    670000  -25.670595      43.692559      357.51093    
    680000  -26.776551      36.953691      302.37068    
    690000  -21.733562      33.89421       277.33671    
    700000  -24.919436      34.005277      278.24551    
    710000  -25.728394      46.033703      376.66716    
    720000  -20.019798      37.47736       306.65555    
    730000  -22.164632      41.916936      342.98203    
    740000  -21.6509        34.320979      280.82871    
    750000  -23.46408       37.250111      304.79611    
    760000  -24.492342      38.202165      312.58621    
    770000  -20.117591      42.015817      343.79112    
    780000  -19.278887      31.665357      259.09929    
    790000  -14.46716       41.250787      337.53132    
    800000  -3.0046795      36.026658      294.7853     
    810000  -11.995044      33.759414      276.23375    
    820000  -12.197016      37.186881      304.27873    
    830000  -10.943916      35.620578      291.46258    
    840000  -16.993569      40.572534      331.98157    
    850000  -22.681388      39.471423      322.97182    
    860000  -25.021571      44.888121      367.29352    
    870000  -21.18222       40.697408      333.00334    
    880000  -28.83141       37.981771      310.78286    
    890000  -37.662296      38.226487      312.78523    
    900000  -27.769377      35.663338      291.81246    
    910000  -22.016943      39.521838      323.38433    
    920000  -24.891758      48.446152      396.40683    
    930000  -18.736091      40.523633      331.58144    
    940000  -14.691197      37.311505      305.29845    
    950000  -22.544945      41.095741      336.26267    
    960000  -20.385637      35.652061      291.72019    
    970000  -39.831789      38.910781      318.38441    
    980000  -27.304947      27.891692      228.22158    
    990000  -16.416495      34.977606      286.20151    
   1000000  -10.809253      36.445698      298.21406    
   1010000  -10.651757      41.417018      338.89149    
   1020000  -6.2978609      28.552135      233.6256     
   1030000  -20.122046      35.733762      292.3887     
   1040000  -16.311499      36.564186      299.18357    
   1050000  -21.075937      39.644378      324.38701    
   1060000  -19.887403      43.297536      354.27868    
   1070000  -18.764639      38.940735      318.62951    
   1080000  -20.56102       40.974252      335.2686     
   1090000  -12.039908      32.320776      264.46221    
   1100000  -21.096384      39.734012      325.12043    
   1110000  -8.4912277      32.027865      262.06549    
   1120000  -17.434535      35.546162      290.85368    
   1130000  -28.711085      42.936557      351.32501    
   1140000  -11.429797      29.248848      239.3264     
   1150000  -22.564539      36.08871       295.29303    
   1160000  -23.578584      32.769944      268.13749    
   1170000  -25.713006      42.018952      343.81677    
   1180000  -19.798605      26.411681      216.11151    
   1190000  -27.835217      45.716647      374.07287    
   1200000  -22.38673       37.906866      310.16995    
   1210000  -26.66377       43.088129      352.56523    
   1220000  -35.845221      38.378866      314.03205    
   1230000  -35.036298      35.259792      288.51047    
   1240000  -31.264827      32.778581      268.20816    
   1250000  -24.439135      33.683798      275.61503    
   1260000  -27.446257      42.154454      344.92551    
   1270000  -18.884417      44.875244      367.18816    
   1280000  -20.57996       31.116134      254.60532    
   1290000  -13.68983       42.487177      347.64798    
   1300000  -18.15747       37.60606       307.70863    
   1310000  -14.379173      42.072367      344.25384    
   1320000  -19.24489       40.024503      327.49735    
   1330000  -22.681191      37.885314      309.99361    
   1340000  -15.72145       37.589605      307.57399    
   1350000  -14.57773       38.947534      318.68514    
   1360000  -14.12314       34.923662      285.76012    
   1370000  -17.651183      38.638017      316.15253    
   1380000  -22.576384      33.911692      277.47975    
   1390000  -21.684918      36.35785       297.49525    
   1400000  -19.433088      35.653365      291.73086    
   1410000  -18.72068       32.066918      262.38503    
   1420000  -22.422525      35.584746      291.16939    
   1430000  -21.984909      47.83891       391.43812    
   1440000  -19.401739      45.384599      371.35592    
   1450000  -13.61733       37.433249      306.29462    
   1460000  -15.988441      35.267999      288.57763    
   1470000  -23.284876      38.267747      313.12283    
   1480000  -22.637683      34.399579      281.47185    
   1490000  -20.121887      33.875758      277.18572    
   1500000  -26.298912      40.744714      333.39042    
   1510000  -25.780468      37.572754      307.43611    
   1520000  -20.34856       37.252794      304.81806    
   1530000  -15.031643      41.716916      341.34538    
   1540000  -17.520494      34.719018      284.08564    
   1550000  -21.226526      44.313571      362.59231    
   1560000  -11.720728      31.384877      256.80429    
   1570000  -18.808673      33.423309      273.4836     
   1580000  -18.186529      45.879557      375.40587    
   1590000  -10.806022      47.783348      390.98349    
   1600000  -14.284318      40.623694      332.40018    
   1610000  -19.044418      34.042143      278.54716    
   1620000  -18.710545      36.481693      298.50858    
   1630000  -18.113521      39.618124      324.17218    
   1640000  -21.56056       35.234013      288.29954    
   1650000  -14.859294      29.251965      239.35191    
   1660000  -17.816778      41.083148      336.15963    
   1670000  -24.745661      42.566725      348.29888    
   1680000  -13.161892      32.24806       263.86722    
   1690000  -16.715363      41.297758      337.91566    
   1700000  -29.052183      41.188455      337.02129    
   1710000  -13.424786      34.144307      279.38311    
   1720000  -28.176856      37.359275      305.68933    
   1730000  -21.18084       26.688084      218.37315    
   1740000  -21.919717      40.097763      328.0968     
   1750000  -22.221543      42.180993      345.14266    
   1760000  -25.601723      29.573417      241.98216    
   1770000  -23.377379      33.924594      277.58532    
   1780000  -25.318751      46.143566      377.5661     
   1790000  -14.004287      34.365004      281.18894    
   1800000  -12.851129      29.078482      237.93239    
   1810000  -16.694171      33.579795      274.76403    
   1820000  -25.814954      44.887486      367.28833    
   1830000  -23.45522       32.799168      268.37662    
   1840000  -18.817792      36.842386      301.45993    
   1850000  -31.161289      34.00142       278.21394    
   1860000  -27.745859      32.60139       266.75831    
   1870000  -26.935395      35.126159      287.41704    
   1880000  -20.983477      30.964612      253.36551    
   1890000  -25.74902       37.960707      310.6105     
   1900000  -20.844406      35.720056      292.27655    
   1910000  -22.512404      41.589047      340.29911    
   1920000  -12.306969      38.235534      312.85925    
   1930000  -22.956056      39.126139      320.14655    
   1940000  -23.595026      32.322473      264.47609    
   1950000  -29.991058      31.186587      255.18179    
   1960000  -24.604139      30.445614      249.11884    
   1970000  -22.037203      27.299954      223.37973    
   1980000  -31.554489      35.059003      286.86753    
   1990000  -22.936172      35.044377      286.74786    
   2000000  -13.132587      34.424542      281.67611    
   2010000  -22.348992      38.507019      315.08066    
   2020000  -22.727967      35.994658      294.52346    
   2030000  -24.366272      33.925499      277.59273    
   2040000  -12.992133      31.181137      255.1372     
   2050000  -13.281787      31.032839      253.92377    
   2060000  -13.578707      33.806941      276.62264    
   2070000  -18.235028      28.466507      232.92496    
   2080000  -27.479323      34.998717      286.37425    
   2090000  -26.608634      35.163114      287.71942    
   2100000  -24.540862      34.500065      282.29407    
   2110000  -22.883127      39.878409      326.30194    
   2120000  -25.096445      38.411632      314.30016    
   2130000  -21.16504       38.140665      312.08299    
   2140000  -18.092993      41.204956      337.15632    
   2150000  -20.835175      34.189753      279.75497    
   2160000  -15.577118      30.342595      248.2759     
   2170000  -25.757258      33.386308      273.18084    
   2180000  -29.444184      25.89741       211.90352    
   2190000  -24.994017      28.473995      232.98622    
   2200000  -33.130807      34.005478      278.24715    
   2210000  -30.986483      26.72085       218.64126    
   2220000  -29.575908      41.700739      341.21302    
   2230000  -26.737202      37.581911      307.51103    
   2240000  -22.110196      36.16493       295.91669    
   2250000  -26.238461      36.786475      301.00244    
   2260000  -20.100253      50.643191      414.38393    
   2270000  -23.308425      44.884167      367.26117    
   2280000  -18.762184      40.589793      332.12279    
   2290000  -16.521968      35.321612      289.01631    
   2300000  -9.4422967      38.813873      317.59146    
   2310000  -12.509765      39.015404      319.24048    
   2320000  -17.088632      35.138657      287.5193     
   2330000  -16.772714      36.980447      302.5896     
   2340000  -19.164785      33.408257      273.36044    
   2350000  -17.100089      31.362713      256.62293    
   2360000  -24.067743      33.139975      271.16524    
   2370000  -20.402322      35.31337       288.94888    
   2380000  -17.1659        30.868883      252.5822     
   2390000  -25.771346      40.080185      327.95297    
   2400000  -32.420177      31.986508      261.72709    
   2410000  -21.756189      36.30495       297.0624     
   2420000  -17.581272      43.791104      358.31727    
   2430000  -12.952937      35.767767      292.66694    
   2440000  -17.004012      40.995293      335.44076    
   2450000  -8.4607491      37.009287      302.82558    
   2460000  -17.127574      44.537246      364.42251    
   2470000  -20.914638      48.54307       397.19985    
   2480000  -22.031926      40.996931      335.45417    
   2490000  -6.9904244      36.069397      295.13501    
   2500000  -23.059006      41.250782      337.53128    
   2510000  -18.272845      49.074004      401.54418    
   2520000  -11.143433      32.679609      267.39833    
   2530000  -37.646326      41.636308      340.68581    
   2540000  -21.368469      33.311099      272.56545    
   2550000  -20.388044      36.380679      297.68204    
   2560000  -16.437045      42.037769      343.97074    
   2570000  -9.4873689      35.668473      291.85447    
   2580000  -15.955141      36.55872       299.13885    
   2590000  -17.831759      39.024434      319.31437    
   2600000  -19.658936      27.445045      224.56692    
   2610000  -20.419047      33.078298      270.66057    
   2620000  -18.634419      37.450007      306.43174    
   2630000  -25.593131      42.741779      349.73125    
   2640000  -31.053001      36.67835       300.11772    
   2650000  -36.217419      47.812398      391.22119    
   2660000  -29.247924      37.416238      306.15542    
   2670000  -22.597214      31.894662      260.97556    
   2680000  -30.298548      41.328137      338.16423    
   2690000  -29.67878       32.871289      268.96674    
   2700000  -32.993601      40.282053      329.60473    
   2710000  -27.892654      29.968515      245.21502    
   2720000  -8.3603987      31.037824      253.96456    
   2730000  -30.956677      34.957836      286.03975    
   2740000  -24.819063      37.799839      309.29421    
   2750000  -14.594138      35.570721      291.05463    
   2760000  -27.947965      36.777604      300.92985    
   2770000  -24.735908      34.31351       280.7676     
   2780000  -26.339514      42.754088      349.83197    
   2790000  -15.229316      35.610762      291.38226    
   2800000  -20.280968      31.806048      260.25048    
   2810000  -15.505233      41.780795      341.86807    
   2820000  -20.073222      39.752999      325.27579    
   2830000  -14.898418      36.513657      298.77013    
   2840000  -16.633182      39.746409      325.22187    
   2850000  -20.481942      43.998382      360.0133     
   2860000  -21.194134      32.007668      261.90023    
   2870000  -30.563761      39.443709      322.74505    
   2880000  -28.273471      41.327118      338.15589    
   2890000  -22.56111       36.231675      296.46283    
   2900000  -25.348387      34.122719      279.20647    
   2910000  -13.786631      31.645674      258.93824    
   2920000  -22.183579      37.901536      310.12634    
   2930000  -31.32552       37.126507      303.78473    
   2940000  -21.908789      34.298388      280.64386    
   2950000  -24.728015      31.703896      259.41464    
   2960000  -19.096191      36.293669      296.9701     
   2970000  -22.607521      29.217845      239.07272    
   2980000  -27.196531      33.370451      273.0511     
   2990000  -23.035314      35.110182      287.28631    
   3000000  -26.384928      36.399252      297.83402    
   3010000  -23.929426      30.669739      250.95273    
   3020000  -31.020285      36.925785      302.14233    
   3030000  -19.486202      23.4473        191.85569    
   3040000  -34.448235      42.672477      349.16419    
   3050000  -26.291394      36.354373      297.4668     
   3060000  -13.876924      37.195021      304.34533    
   3070000  -15.075436      37.206352      304.43805    
   3080000  -23.5937        40.155616      328.57017    
   3090000  -23.42169       32.29121       264.22028    
   3100000  -27.503487      29.693134      242.96173    
   3110000  -23.857335      33.868803      277.12882    
   3120000  -23.400032      37.534894      307.12632    
   3130000  -16.774945      34.984486      286.25781    
   3140000  -25.603645      38.935455      318.5863     
   3150000  -20.654829      29.969533      245.22335    
   3160000  -2.811674       35.066488      286.92878    
   3170000  -9.0606028      36.043277      294.92128    
   3180000  -30.210408      39.139097      320.25258    
   3190000  -24.703253      29.349117      240.14684    
   3200000  -23.980571      36.361266      297.5232     
   3210000  -13.946101      35.819841      293.09303    
   3220000  -19.157508      41.606343      340.44063    
   3230000  -18.170724      37.228806      304.62178    
   3240000  -14.38653       36.159896      295.8755     
   3250000  -15.230631      41.499238      339.56425    
   3260000  -12.252777      39.238801      321.0684     
   3270000  -17.518523      39.773124      325.44046    
   3280000  -15.763894      37.561313      307.34249    
   3290000  -17.595141      45.997155      376.3681     
   3300000  -12.820032      44.853953      367.01394    
   3310000  -12.798314      44.485602      363.99994    
   3320000  -12.460969      37.847265      309.68227    
   3330000  -21.120347      36.581777      299.32751    
   3340000  -13.557231      37.195327      304.34784    
   3350000  -7.4248184      25.121604      205.55555    
   3360000  -4.4527033      31.250175      255.7021     
   3370000  -14.711006      42.229371      345.53851    
   3380000  -24.446985      38.372286      313.97821    
   3390000  -19.061657      32.631269      267.0028     
   3400000  -18.210502      38.558878      315.50499    
   3410000  -22.365872      45.281334      370.51096    
   3420000  -24.455214      40.095238      328.07613    
   3430000  -32.083723      43.195131      353.44076    
   3440000  -21.808796      36.358347      297.49931    
   3450000  -25.235102      37.227861      304.61404    
   3460000  -26.929243      38.884326      318.16794    
   3470000  -20.186443      32.10095       262.6635     
   3480000  -21.875278      37.621903      307.83826    
   3490000  -20.490504      36.212378      296.30493    
   3500000  -34.551453      32.126599      262.87337    
   3510000  -36.431439      32.063348      262.35583    
   3520000  -27.694723      30.908844      252.90919    
   3530000  -22.435249      33.125408      271.04604    
   3540000  -24.497338      36.704806      300.33419    
   3550000  -20.262726      36.729144      300.53333    
   3560000  -18.656651      37.361974      305.71141    
   3570000  -19.800352      35.79801       292.9144     
   3580000  -12.2421        39.427297      322.61076    
   3590000  -10.496125      32.766727      268.11117    
   3600000  -16.013425      38.137738      312.05904    
   3610000  -18.662697      32.475331      265.72685    
   3620000  -15.225471      32.606092      266.79678    
   3630000  -12.553485      34.122616      279.20562    
   3640000  -20.607954      35.933619      294.02402    
   3650000  -21.474223      34.518309      282.44335    
   3660000  -17.510534      27.349451      223.78473    
   3670000  -24.353772      30.516389      249.69795    
   3680000  -13.627686      29.468141      241.12074    
   3690000  -20.92546       33.774588      276.35791    
   3700000  -10.271576      36.114667      295.50542    
   3710000  -9.1739064      32.891109      269.12892    
   3720000  -19.500504      36.965195      302.4648     
   3730000  -20.180669      33.398464      273.2803     
   3740000  -28.098416      39.095919      319.89929    
   3750000  -14.140762      37.085686      303.45071    
   3760000  -16.620189      46.309515      378.92396    
   3770000  -4.6332499      36.263368      296.72216    
   3780000  -11.68796       42.148144      344.87387    
   3790000  -24.995365      41.81316       342.13289    
   3800000  -15.702154      35.867121      293.4799     
   3810000  -26.897788      36.810323      301.19757    
   3820000  -20.31573       31.624533      258.76525    
   3830000  -13.49583       37.765457      309.01289    
   3840000  -12.431269      34.876663      285.37555    
   3850000  -21.738178      42.432475      347.20039    
   3860000  -22.6122        37.713858      308.59068    
   3870000  -17.391428      42.897403      351.00463    
   3880000  -15.57555       32.630824      266.99916    
   3890000  -13.854605      34.927861      285.79448    
   3900000  -18.509588      37.943179      310.46708    
   3910000  -22.707271      39.958176      326.95463    
   3920000  -27.413716      32.878116      269.0226     
   3930000  -31.052301      38.928213      318.52705    
   3940000  -29.155328      39.251562      321.17282    
   3950000  -26.578986      40.834316      334.12358    
   3960000  -23.701788      29.243433      239.2821     
   3970000  -10.254161      29.616021      242.33076    
   3980000  -23.194035      36.570521      299.23542    
   3990000  -20.164849      33.533072      274.38172    
   4000000  -23.092701      41.797028      342.00089    
Loop time of 230.811 on 1 procs for 4000000 steps with 42 atoms

Performance: 14973.289 ns/day, 0.002 hours/ns, 17330.196 timesteps/s, 727.868 katom-step/s
98.8% CPU use with 1 MPI tasks x 1 OpenMP threads

MPI task timing breakdown:
Section |  min time  |  avg time  |  max time  |%varavg| %total
---------------------------------------------------------------
Pair    | 210.21     | 210.21     | 210.21     |   0.0 | 91.08
Bond    | 10.084     | 10.084     | 10.084     |   0.0 |  4.37
Neigh   | 0.32318    | 0.32318    | 0.32318    |   0.0 |  0.14
Comm    | 3.5577     | 3.5577     | 3.5577     |   0.0 |  1.54
Output  | 0.2584     | 0.2584     | 0.2584     |   0.0 |  0.11
Modify  | 5.5265     | 5.5265     | 5.5265     |   0.0 |  2.39
Other   |            | 0.8471     |            |       |  0.37

Nlocal:             42 ave          42 max          42 min
Histogram: 1 0 0 0 0 0 0 0 0 0
Nghost:            210 ave         210 max         210 min
Histogram: 1 0 0 0 0 0 0 0 0 0
Neighs:            315 ave         315 max         315 min
Histogram: 1 0 0 0 0 0 0 0 0 0

Total # of neighbors = 315
Ave neighs/atom = 7.5
Ave special neighs/atom = 5.4285714
Neighbor list builds = 8355
Dangerous builds = 2
Generated 0 of 6 mixed pair_coeff terms from geometric mixing rule
Setting up Verlet run ...
  Unit style    : real
  Current step  : 4000000
  Time step     : 10
Per MPI rank memory allocation (min/avg/max) = 8.535 | 8.535 | 8.535 Mbytes
   Step         PotEng         KinEng          Temp     
   4000000  -23.092701      41.797028      342.00089    
   4010000  -11.92224       39.944156      326.83992    
   4020000  -12.942685      35.133486      287.47699    
   4030000  -12.885222      36.265891      296.7428     
   4040000  -16.186317      39.143286      320.28686    
   4050000  -16.393178      41.468837      339.3155     
   4060000  -11.448535      41.158232      336.774      
   4070000  -16.500997      44.034927      360.31233    
   4080000  -11.671507      40.520508      331.55587    
   4090000  -4.8430279      33.859615      277.05364    
   4100000  -14.512515      34.849632      285.15438    
   4110000  -18.417815      34.766269      284.47226    
   4120000  -27.851873      40.567807      331.94289    
   4130000  -17.268691      36.405602      297.88597    
   4140000  -26.505794      40.955881      335.11828    
   4150000  -23.833301      32.540219      266.25778    
   4160000  -33.223699      35.002102      286.40195    
   4170000  -28.119209      40.849822      334.25045    
   4180000  -22.994429      33.767825      276.30257    
   4190000  -23.548409      33.765114      276.28039    
   4200000  -27.608157      33.308906      272.5475     
   4210000  -22.798669      33.36776       273.02907    
   4220000  -29.978833      36.5098        298.73857    
   4230000  -15.477116      42.630285      348.81896    
   4240000  -24.352623      42.468517      347.4953     
   4250000  -22.30634       34.151956      279.4457     
   4260000  -23.147004      42.170524      345.057      
   4270000  -20.478055      54.52624       446.15667    
   4280000  -14.086386      41.329921      338.17883    
   4290000  -9.8200243      35.089773      287.11931    
   4300000  -11.438235      32.221579      263.65054    
   4310000  -18.554699      40.540774      331.7217     
   4320000  -6.8732986      42.965044      351.5581     
   4330000  -10.998193      33.633391      275.20258    
   4340000  -16.77709       38.429737      314.4483     
   4350000  -16.680541      43.912042      359.30683    
   4360000  -8.5236533      32.890574      269.12454    
   4370000  -22.198009      43.466922      355.66467    
   4380000  -22.921519      32.024625      262.03898    
   4390000  -32.099193      35.431793      289.91786    
   4400000  -13.780053      34.145075      279.38939    
   4410000  -15.435033      39.092866      319.87431    
   4420000  -19.724134      34.617677      283.25642    
   4430000  -16.644979      38.20262       312.58993    
   4440000  -22.609841      41.807334      342.08522    
   4450000  -24.564681      35.100886      287.21024    
   4460000  -16.334445      35.961291      294.25043    
   4470000  -19.222973      33.461209      273.79372    
   4480000  -20.30761       34.78909       284.659      
   4490000  -13.388677      50.321543      411.75207    
   4500000  -10.448025      41.686585      341.0972     
   4510000  -13.610428      30.702931      251.22432    
   4520000  -19.212859      37.786489      309.18497    
   4530000  -18.63925       35.960503      294.24399    
   4540000  -21.980047      37.455667      306.47805    
   4550000  -15.414474      42.925         351.23044    
   4560000  -23.732523      36.597791      299.45855    
   4570000  -16.292776      32.046071      262.21446    
   4580000  -18.56118       30.817953      252.16547    
   4590000  -23.529402      40.804859      333.88255    
   4600000  -10.975156      42.902365      351.04523    
   4610000  -29.552442      53.459088      437.42478    
   4620000  -29.748182      40.463538      331.08972    
   4630000  -15.098606      36.291873      296.9554     
   4640000  -25.13276       36.186266      296.09127    
   4650000  -22.57624       42.882788      350.88504    
   4660000  -14.925214      40.767275      333.57502    
   4670000  -20.82697       38.343559      313.74315    
   4680000  -19.586104      37.832686      309.56298    
   4690000  -25.699444      47.86109       391.6196     
   4700000  -23.758447      33.550218      274.52202    
   4710000  -19.17459       39.940484      326.80987    
   4720000  -13.424777      42.774327      349.99757    
   4730000  -3.4015038      35.832286      293.19486    
   4740000  -12.258235      47.175127      386.00677    
   4750000  -11.065519      51.243602      419.29675    
   4760000   6.6408936      37.184857      304.26217    
   4770000  -1.9161952      36.986077      302.63567    
   4780000  -6.3445432      45.904138      375.607      
   4790000  -14.587767      40.016102      327.42861    
   4800000  -2.63078        40.321025      329.92362    
   4810000   3.2920644      40.203819      328.96459    
   4820000  -9.0420975      46.899518      383.75162    
   4830000  -11.3322        31.918123      261.16753    
   4840000  -12.68866       42.89996       351.02555    
   4850000  -13.084782      39.887631      326.37741    
   4860000  -18.201398      37.196472      304.35721    
   4870000  -12.411545      37.543396      307.19588    
   4880000  -15.277827      50.410798      412.48239    
   4890000  -13.119226      55.595307      454.90423    
   4900000  -2.4079805      46.820582      383.10574    
   4910000  -2.5480626      41.193627      337.06361    
   4920000  -12.156815      31.94086       261.35358    
   4930000  -27.955142      48.289418      395.12436    
   4940000  -14.783456      33.979899      278.03786    
   4950000  -13.212134      34.664813      283.64211    
   4960000  -11.646907      45.282013      370.51651    
   4970000  -16.430243      43.785846      358.27425    
   4980000  -12.264384      36.881184      301.77739    
   4990000  -19.797909      45.537342      372.60572    
   5000000  -13.992667      46.004453      376.42782    
   5010000  -2.5212073      35.589156      291.20547    
   5020000  -11.628249      40.97649       335.28691    
   5030000  -4.8837284      34.762896      284.44466    
   5040000   9.0941636      45.066178      368.75046    
   5050000   6.2193747      43.776903      358.20106    
   5060000   14.523529      49.862943      407.99961    
   5070000   22.191465      41.494678      339.52694    
   5080000  -0.99245076     59.573565      487.45601    
   5090000   7.9047765      40.79511       333.80278    
   5100000  -7.0010793      50.1121        410.03832    
   5110000  -0.30621086     39.132552      320.19903    
   5120000  -1.011393       48.738077      398.79548    
   5130000   12.880609      38.960488      318.79113    
   5140000   9.06132        40.026015      327.50972    
   5150000  -5.0711737      39.825725      325.87087    
   5160000   3.9532235      32.624299      266.94576    
   5170000   4.6443881      51.066202      417.84518    
   5180000   7.4213141      37.387597      305.92107    
   5190000   0.59643525     41.410413      338.83745    
   5200000   1.253476       44.148298      361.23998    
   5210000   8.9664879      42.87642       350.83294    
   5220000   7.9467234      38.938441      318.61073    
   5230000  -2.6161508      35.465274      290.19182    
   5240000   5.2379317      38.107752      311.81369    
   5250000   4.9030132      38.689288      316.57206    
   5260000   8.5500971      36.19584       296.16962    
   5270000   2.9571447      42.650153      348.98152    
   5280000   10.269424      46.293559      378.7934     
   5290000   8.37074        38.102292      311.76901    
   5300000   0.34273759     40.669266      332.77307    
   5310000  -2.3529718      44.873778      367.17616    
   5320000  -4.3002407      42.469855      347.50625    
   5330000   0.0018597254   40.168864      328.67857    
   5340000   6.4716601      45.497379      372.27873    
   5350000   3.7936788      36.315236      297.14657    
   5360000  -7.5231951      41.487134      339.46522    
   5370000  -2.3502021      32.925605      269.41118    
   5380000   15.470668      38.445024      314.57338    
   5390000   18.28885       37.347676      305.59442    
   5400000   10.125131      42.699644      349.38648    
   5410000   23.996654      36.321484      297.19769    
   5420000   18.354739      43.539151      356.25568    
   5430000   19.733626      42.801217      350.21759    
   5440000   18.925229      43.586609      356.644      
   5450000   31.126493      42.418973      347.08991    
   5460000   29.405928      40.700266      333.02672    
   5470000   22.38008       44.918807      367.54461    
   5480000   24.695875      48.917606      400.26447    
   5490000   16.426271      38.842189      317.82316    
   5500000   22.278218      38.212244      312.66868    
   5510000   25.095367      44.667646      365.4895     
   5520000   25.47539       45.735965      374.23094    
   5530000   22.350455      40.369621      330.32125    
   5540000   24.798647      38.01463       311.05172    
   5550000   31.195654      46.149738      377.61661    
   5560000   38.772734      47.593385      389.42913    
   5570000   17.96746       42.275075      345.91247    
   5580000   23.770929      48.707883      398.54843    
   5590000   26.885272      42.177817      345.11667    
   5600000   26.476415      38.062425      311.4428     
   5610000   29.860911      44.84405       366.93292    
   5620000   34.244116      37.474345      306.63088    
   5630000   24.401454      44.949029      367.7919     
   5640000   19.855117      49.597079      405.8242     
   5650000   20.157489      52.959238      433.3348     
   5660000   29.827377      46.483321      380.34612    
   5670000   31.065304      45.080276      368.86581    
   5680000   26.676149      52.455865      429.21599    
   5690000   29.526127      44.542851      364.46838    
   5700000   26.881581      44.462327      363.80949    
   5710000   20.888292      37.576716      307.46852    
   5720000   34.05549       40.793757      333.79171    
   5730000   35.254578      40.072674      327.8915     
   5740000   32.984173      43.511786      356.03177    
   5750000   25.211694      40.608788      332.27822    
   5760000   23.561106      44.112576      360.94768    
   5770000   28.135099      35.894755      293.70601    
   5780000   24.053233      52.928397      433.08244    
   5790000   22.904304      42.695387      349.35165    
   5800000   31.329971      41.514243      339.68703    
   5810000   31.327166      45.751116      374.35491    
   5820000   30.118149      38.332916      313.65607    
   5830000   20.67903       49.071377      401.52268    
   5840000   29.456616      41.999423      343.65697    
   5850000   16.620148      52.581594      430.24476    
   5860000   24.508743      50.647164      414.41644    
   5870000   24.69642       38.6001        315.84228    
   5880000   15.38844       40.227315      329.15684    
   5890000   22.135477      45.621031      373.2905     
   5900000   8.3214293      49.256869      403.04046    
   5910000   8.1842916      43.489555      355.84986    
   5920000   9.6063778      40.759325      333.50997    
   5930000   7.3241308      42.859725      350.69633    
   5940000   1.7644442      40.264345      329.45984    
   5950000   12.208295      44.546251      364.49619    
   5960000   7.4061167      41.146199      336.67554    
   5970000   8.0481245      41.029699      335.72228    
   5980000   16.408996      41.68485       341.08301    
   5990000   16.26573       56.580194      462.96299    
   6000000   19.69749       48.130677      393.82548    
   6010000   22.958014      52.786899      431.92465    
   6020000   28.795218      58.913157      482.05228    
   6030000   25.779589      57.088356      467.12098    
   6040000   34.721713      42.862317      350.71754    
   6050000   22.763206      51.800743      423.85551    
   6060000   15.879131      48.048826      393.15574    
   6070000   14.124721      44.725322      365.96143    
   6080000   13.529091      40.843831      334.20143    
   6090000   13.659885      39.932731      326.74643    
   6100000   14.029118      47.22929       386.44995    
   6110000   22.515229      43.556465      356.39735    
   6120000   20.998871      38.319932      313.54983    
   6130000   28.2269        45.777596      374.57158    
   6140000   24.528637      42.137185      344.78421    
   6150000   24.935788      44.676259      365.55997    
   6160000   25.962839      45.055549      368.66349    
   6170000   24.409484      46.895347      383.71749    
   6180000   27.109987      43.084854      352.53843    
   6190000   18.237225      56.306426      460.7229     
   6200000   20.81861       39.40217       322.40516    
   6210000   23.859139      36.156731      295.84961    
   6220000   25.077939      39.547214      323.59197    
   6230000   18.541062      45.180261      369.68394    
   6240000   29.028565      48.243007      394.74461    
   6250000   21.909789      47.510238      388.74879    
   6260000   31.05988       42.345853      346.49161    
   6270000   28.836065      48.99214       400.87433    
   6280000   21.016068      54.031347      442.10725    
   6290000   26.438458      54.766198      448.12011    
   6300000   22.81829       49.757196      407.13434    
   6310000   30.649888      52.279436      427.77237    
   6320000   37.844188      42.7876        350.10617    
   6330000   28.297267      47.241535      386.55015    
   6340000   24.246869      42.145045      344.84852    
   6350000   22.827133      41.96769       343.39732    
   6360000   25.677008      41.01521       335.60373    
   6370000   23.365911      41.544588      339.93533    
   6380000   18.548257      38.202737      312.59089    
   6390000   20.664962      42.012931      343.7675     
   6400000   13.940374      51.623698      422.40685    
   6410000   20.484591      52.20572       427.1692     
   6420000   26.813217      34.928262      285.79776    
   6430000   27.087447      44.317189      362.62191    
   6440000   20.701548      47.573817      389.26902    
   6450000   30.918256      51.021757      417.48151    
   6460000   31.852993      47.757509      390.77206    
   6470000   25.809362      47.842946      391.47114    
   6480000   20.00995       42.162915      344.99474    
   6490000   14.039366      44.833886      366.84975    
   6500000   16.734265      39.793421      325.60654    
   6510000   29.001965      41.866885      342.5725     
   6520000   24.366174      43.524858      356.13873    
   6530000   24.566579      45.890756      375.4975     
   6540000   10.481933      34.175058      279.63472    
   6550000   6.4231573      47.799792      391.11804    
   6560000   13.406863      39.331686      321.82843    
   6570000   22.614874      38.40985       314.28558    
   6580000   19.546657      45.375059      371.27785    
   6590000   13.689585      53.904455      441.06897    
   6600000   18.655087      43.012694      351.94799    
   6610000   29.633954      37.674541      308.26897    
   6620000   28.988479      42.214951      345.42052    
   6630000   26.1228        47.050865      384.99       
   6640000   23.496204      44.950181      367.80132    
   6650000   31.486217      37.732615      308.74415    
   6660000   29.023539      47.819073      391.27581    
   6670000   34.850677      44.703337      365.78154    
   6680000   27.247584      45.677427      373.75195    
   6690000   24.988055      42.415644      347.06267    
   6700000   18.020335      36.100523      295.38969    
   6710000   12.193446      45.705088      373.97829    
   6720000   12.202345      39.139978      320.25979    
   6730000   26.826925      36.255675      296.65921    
   6740000   17.771989      46.04244       376.73865    
   6750000   19.027287      51.912371      424.76889    
   6760000   32.90375       44.10603       360.89413    
   6770000   17.671621      54.706307      447.63005    
   6780000   25.603723      34.965622      286.10345    
   6790000   25.43562       44.097521      360.8245     
   6800000   16.46174       46.783101      382.79905    
   6810000   14.595334      54.535324      446.231      
   6820000   29.776321      38.487328      314.91954    
   6830000   5.7758838      43.66603       357.29386    
   6840000   20.287706      42.501097      347.76188    
   6850000   30.338219      38.361724      313.89179    
   6860000   20.74821       46.599188      381.29419    
   6870000   23.850942      45.668805      373.68141    
   6880000   29.828217      43.056439      352.30593    
   6890000   32.089451      60.268885      493.14541    
   6900000   39.191464      50.628134      414.26073    
   6910000   18.564206      42.141399      344.81869    
   6920000   28.614642      38.517759      315.16854    
   6930000   29.391551      42.266567      345.84287    
   6940000   25.516691      62.540776      511.73498    
   6950000   40.542035      41.240669      337.44853    
   6960000   29.270001      45.752803      374.36871    
   6970000   31.972386      45.081985      368.8798     
   6980000   27.702161      40.527473      331.61286    
   6990000   29.169386      31.901893      261.03473    
   7000000   23.482971      45.860781      375.25224    
   7010000   37.703281      43.298396      354.28572    
   7020000   27.520129      49.523011      405.21814    
   7030000   21.05474       40.993159      335.4233     
   7040000   32.235169      47.395668      387.81133    
   7050000   26.893428      39.855176      326.11184    
   7060000   26.159154      56.524436      462.50675    
   7070000   25.87233       48.041772      393.09802    
   7080000   32.64463       47.885377      391.81833    
   7090000   28.044234      61.882324      506.34725    
   7100000   33.651029      48.781733      399.1527     
   7110000   25.831378      70.364626      575.75302    
   7120000   27.29131       40.637464      332.51286    
   7130000   10.723303      52.59481       430.3529     
   7140000   11.105373      46.076068      377.01381    
   7150000   9.3557076      41.811585      342.12001    
   7160000   10.016983      47.278209      386.85023    
   7170000   12.896515      44.446032      363.67616    
   7180000   19.94655       45.529846      372.54439    
   7190000   24.730328      46.009824      376.47177    
   7200000   29.536884      49.223215      402.76509    
   7210000   18.726643      55.241322      452.00778    
   7220000   15.923931      47.223195      386.40008    
   7230000   10.993566      52.256186      427.58214    
   7240000   13.470408      39.878962      326.30647    
   7250000   10.740967      49.577727      405.66586    
   7260000   6.1858752      49.189132      402.4862     
   7270000   11.564428      48.356976      395.67716    
   7280000   19.519216      38.281645      313.23655    
   7290000   10.454375      54.375891      444.92645    
   7300000   6.6396843      42.952148      351.45258    
   7310000  -2.9823085      42.028722      343.89671    
   7320000   14.17886       42.190041      345.21669    
   7330000   15.368384      44.11991       361.00769    
   7340000   5.5705839      59.793598      489.25641    
   7350000   9.583289       53.307086      436.18104    
   7360000   20.356002      46.981089      384.41907    
   7370000   23.998757      43.13903       352.98172    
   7380000   17.921314      44.858845      367.05397    
   7390000   23.322751      47.659913      389.97349    
   7400000   31.014168      49.987787      409.02114    
   7410000   22.613353      48.541914      397.19039    
   7420000   23.478489      39.138807      320.25021    
   7430000   21.490901      56.524767      462.50946    
   7440000   24.843774      46.48722       380.37803    
   7450000   32.343198      45.152399      369.45595    
   7460000   37.853856      43.453442      355.55438    
   7470000   21.088502      43.454472      355.5628     
   7480000   33.704337      41.696532      341.17859    
   7490000   25.310158      47.938407      392.25224    
   7500000   21.77168       47.918087      392.08598    
   7510000   31.421923      49.013075      401.04563    
   7520000   27.570382      50.83599       415.96149    
   7530000   28.679904      54.608472      446.82953    
   7540000   29.878558      50.587093      413.92491    
   7550000   19.208375      49.717015      406.80557    
   7560000   25.159081      47.288676      386.93588    
   7570000   26.07892       45.576542      372.92648    
   7580000   23.444954      50.60041       414.03388    
   7590000   30.839463      41.933881      343.12069    
   7600000   33.364873      39.887498      326.37632    
   7610000   22.279119      44.3557        362.93703    
   7620000   19.758142      50.510725      413.30003    
   7630000   22.223738      45.279182      370.49335    
   7640000   24.309659      51.660721      422.70979    
   7650000   23.019431      54.359211      444.78997    
   7660000   30.522195      38.710373      316.74458    
   7670000   28.497623      47.15706       385.85894    
   7680000   32.339222      49.040426      401.26943    
   7690000   30.074338      53.259703      435.79334    
   7700000   23.177781      51.963091      425.18391    
   7710000   27.816128      47.708058      390.36743    
   7720000   28.105003      46.448961      380.06497    
   7730000   22.235355      53.336785      436.42405    
   7740000   35.711185      40.92219       334.8426     
   7750000   25.452494      34.797149      284.72494    
   7760000   25.344264      41.279285      337.7645     
   7770000   32.90647       45.532685      372.56761    
   7780000   30.669346      45.95524       376.02514    
   7790000   15.975148      51.397532      420.55626    
   7800000   18.442133      45.259087      370.32892    
   7810000   32.283043      43.65302       357.1874     
   7820000   23.22736       50.185052      410.63524    
   7830000   30.095417      39.863698      326.18157    
   7840000   25.956156      47.812622      391.22302    
   7850000   30.410873      47.021612      384.75065    
   7860000   33.230297      51.4521        421.00276    
   7870000   29.92613       53.234693      435.58869    
   7880000   28.660052      39.19884       320.74143    
   7890000   25.309375      41.00676       335.53459    
   7900000   25.882187      43.964612      359.73698    
   7910000   33.604729      53.26026       435.79789    
   7920000   30.764782      46.20303       378.05266    
   7930000   39.023315      58.285935      476.92008    
   7940000   28.463181      52.275215      427.73784    
   7950000   32.991982      50.459599      412.8817     
   7960000   27.913511      49.689172      406.57775    
   7970000   30.110584      40.101797      328.1298     
   7980000   31.248786      46.193166      377.97195    
   7990000   27.347683      69.786694      571.02413    
   8000000   36.523621      63.799407      522.03363    
   8010000   30.151519      49.872766      408.07999    
   8020000   30.367432      57.276493      468.6604     
   8030000   31.040908      56.641181      463.46201    
   8040000   32.546056      53.357267      436.59165    
   8050000   32.460468      48.80923       399.37769    
   8060000   38.863276      53.09042       434.40819    
   8070000   22.916101      54.882444      449.07129    
   8080000   40.504775      63.369045      518.51223    
   8090000   34.504257      51.535711      421.68691    
   8100000   30.692629      53.555977      438.21757    
   8110000   35.01068       59.6387        487.98897    
   8120000   28.326037      39.885876      326.36305    
   8130000   29.109737      44.604544      364.97317    
   8140000   36.423557      50.963072      417.00133    
   8150000   29.703353      49.272963      403.17215    
   8160000   21.851891      48.497078      396.82353    
   8170000   21.806659      56.420368      461.65522    
   8180000   36.513981      44.500397      364.121      
   8190000   33.909869      53.121434      434.66195    
   8200000   34.608604      50.966991      417.03339    
   8210000   33.742382      57.630703      471.5587     
   8220000   24.52446       48.151694      393.99745    
   8230000   33.325204      42.131163      344.73493    
   8240000   23.579474      53.20321       435.33108    
   8250000   41.158326      56.134812      459.31868    
   8260000   23.836382      63.77797       521.85823    
   8270000   34.157884      49.023789      401.1333     
   8280000   22.50239       50.073149      409.71961    
   8290000   31.22438       54.879428      449.04661    
   8300000   35.00343       44.481412      363.96566    
   8310000   26.666958      54.552495      446.3715     
   8320000   30.07688       48.95274       400.55195    
   8330000   33.245851      49.77863       407.30972    
   8340000   25.839959      46.887525      383.65349    
   8350000   23.663477      38.11093       311.83969    
   8360000   33.993597      46.044022      376.75159    
   8370000   25.129657      51.430043      420.82229    
   8380000   16.118622      58.740018      480.63558    
   8390000   31.047354      47.656971      389.94942    
   8400000   19.009377      46.81773       383.08239    
   8410000   18.385394      50.300209      411.5775     
   8420000   17.768439      43.826155      358.60407    
   8430000   35.458921      50.87138       416.25107    
   8440000   28.282657      51.349515      420.16337    
   8450000   25.136606      56.8271        464.98328    
   8460000   33.382738      41.179199      336.94556    
   8470000   27.123668      52.19525       427.08353    
   8480000   34.203038      46.359332      379.33159    
   8490000   26.099053      53.202906      435.32859    
   8500000   41.015085      44.289764      362.39751    
   8510000   35.023368      58.293147      476.97909    
   8520000   39.793878      53.578405      438.40109    
   8530000   39.250097      46.949839      384.16337    
   8540000   34.629486      46.651757      381.72433    
   8550000   33.086949      49.795055      407.44412    
   8560000   25.676782      50.560653      413.70856    
   8570000   24.722697      50.476389      413.01909    
   8580000   27.058143      53.886983      440.926      
   8590000   26.995555      52.849875      432.43995    
   8600000   29.058541      48.224985      394.59715    
   8610000   20.490495      49.893879      408.25275    
   8620000   34.250814      51.483182      421.25709    
   8630000   31.058069      50.389223      412.30585    
   8640000   20.910354      63.214521      517.24785    
   8650000   17.007868      58.087835      475.29915    
   8660000   25.340302      44.815574      366.69991    
   8670000   26.302834      61.093001      499.88868    
   8680000   30.465619      54.151991      443.09441    
   8690000   35.139313      43.60442       356.78973    
   8700000   39.738028      54.788862      448.30555    
   8710000   27.96734       51.434669      420.86014    
   8720000   32.749366      48.329954      395.45605    
   8730000   21.610324      47.074872      385.18644    
   8740000   27.803285      43.668013      357.31008    
   8750000   31.217315      59.545132      487.22336    
   8760000   34.766415      36.06205       295.07489    
   8770000   30.501834      59.311795      485.3141     
   8780000   22.277755      59.978358      490.7682     
   8790000   27.038859      61.164858      500.47665    
   8800000   36.914172      54.82007       448.56092    
   8810000   33.041675      61.449754      502.80778    
   8820000   40.673737      49.840833      407.8187     
   8830000   34.817888      49.798331      407.47093    
   8840000   36.313302      43.994665      359.98289    
   8850000   36.746823      45.845262      375.12525    
   8860000   35.540739      53.062917      434.18315    
   8870000   33.675926      46.008521      376.46111    
   8880000   30.314525      58.710889      480.39723    
   8890000   25.47868       50.241369      411.09606    
   8900000   31.175345      49.389428      404.12511    
   8910000   42.186625      57.66461       471.83614    
   8920000   34.736593      53.732602      439.66279    
   8930000   33.444187      46.46786       380.21962    
   8940000   27.590405      48.570611      397.42521    
   8950000   35.020892      43.055394      352.29738    
   8960000   26.622052      46.030885      376.6441     
   8970000   41.168065      59.605557      487.71779    
   8980000   37.025874      59.816427      489.44321    
   8990000   37.336693      54.010071      441.93316    
   9000000   23.744932      50.168025      410.49592    
   9010000   30.65316       46.13004       377.45543    
   9020000   40.299686      52.214184      427.23845    
   9030000   35.471097      47.553048      389.09907    
   9040000   35.632646      49.795721      407.44957    
   9050000   29.846986      57.727788      472.35309    
   9060000   32.836805      58.872174      481.71693    
   9070000   28.695946      68.03712       556.70839    
   9080000   24.660389      52.137357      426.60983    
   9090000   30.365342      44.482618      363.97553    
   9100000   25.426864      65.380214      534.96846    
   9110000   27.845745      44.909792      367.47085    
   9120000   32.145496      51.108103      418.18804    
   9130000   30.124015      55.844065      456.93967    
   9140000   34.677536      46.604534      381.33793    
   9150000   31.819724      64.928788      531.27471    
   9160000   41.804764      57.193172      467.97864    
   9170000   27.124859      61.1121        500.04495    
   9180000   31.586077      46.010121      376.4742     
   9190000   30.541032      57.165334      467.75085    
   9200000   29.961923      59.182932      484.25968    
   9210000   30.710399      57.723709      472.31971    
   9220000   30.790539      50.735878      415.14234    
   9230000   36.127503      60.391847      494.15154    
   9240000   29.638519      58.938831      482.26235    
   9250000   29.864121      63.719587      521.38051    
   9260000   34.873975      60.252297      493.00968    
   9270000   33.94723       56.419524      461.64832    
   9280000   23.381748      68.216916      558.17955    
   9290000   33.260382      66.843265      546.93976    
   9300000   28.753474      63.879065      522.68543    
   9310000   29.980925      40.367156      330.30108    
   9320000   34.804867      52.631736      430.65504    
   9330000   31.955174      51.282842      419.61782    
   9340000   31.340897      53.884863      440.90866    
   9350000   37.869401      54.213863      443.60067    
   9360000   42.831187      56.927814      465.80737    
   9370000   31.601416      70.854975      579.76526    
   9380000   36.792074      59.445967      486.41195    
   9390000   27.637393      47.936678      392.2381     
   9400000   38.535355      37.783859      309.16345    
   9410000   25.869464      39.823693      325.85424    
   9420000   26.663673      48.846205      399.68023    
   9430000   30.913995      55.533203      454.39607    
   9440000   42.63631       53.081598      434.33601    
   9450000   34.002034      45.839953      375.08182    
   9460000   26.326838      48.918235      400.26961    
   9470000   27.488547      57.163141      467.7329     
   9480000   34.578601      51.781969      423.70189    
   9490000   35.166606      54.220547      443.65536    
   9500000   41.509882      64.864477      530.74849    
   9510000   37.00865       46.888256      383.65947    
   9520000   37.974112      77.420566      633.4877     
   9530000   31.510654      54.441327      445.46188    
   9540000   29.416583      54.997668      450.01409    
   9550000   34.514528      70.251502      574.82739    
   9560000   35.329134      63.918117      523.00497    
   9570000   30.713052      46.634157      381.58032    
   9580000   28.071703      52.881014      432.69474    
   9590000   31.034904      61.069079      499.69294    
   9600000   33.11593       64.091196      524.42117    
   9610000   32.375966      47.619068      389.63928    
   9620000   23.980201      53.353976      436.56471    
   9630000   44.215137      45.779053      374.5835     
   9640000   21.569303      48.275164      395.00773    
   9650000   32.997664      48.624149      397.86328    
   9660000   10.168676      53.974613      441.64303    
   9670000   9.4479318      52.874959      432.64519    
   9680000   14.321607      53.673799      439.18164    
   9690000   17.710354      43.635582      357.04472    
   9700000   13.592381      45.118641      369.17974    
   9710000   20.102664      51.133078      418.39239    
   9720000   18.842485      53.919158      441.18927    
   9730000   26.031691      58.766209      480.84988    
   9740000   31.339116      57.969541      474.33121    
   9750000   34.158588      56.20046       459.85584    
   9760000   39.886139      54.499372      445.93682    
   9770000   30.355015      53.117671      434.63117    
   9780000   32.743063      56.711637      464.03851    
   9790000   36.25153       48.457809      396.50222    
   9800000   33.063525      57.917138      473.90243    
   9810000   49.320099      44.075579      360.64496    
   9820000   30.093467      63.488812      519.49221    
   9830000   33.542711      49.928945      408.53966    
   9840000   29.144639      41.644143      340.74992    
   9850000   26.793112      55.231607      451.92829    
   9860000   30.571438      58.869864      481.69804    
   9870000   38.767565      64.770628      529.98057    
   9880000   46.994105      61.159246      500.43072    
   9890000   33.815124      52.177911      426.94165    
   9900000   41.59538       44.847089      366.95778    
   9910000   34.190841      60.85821       497.96752    
   9920000   39.357814      66.449498      543.7178     
   9930000   31.812876      56.078661      458.85924    
   9940000   46.991363      54.711301      447.67092    
   9950000   39.821079      59.448915      486.43608    
   9960000   27.1968        53.60968       438.65699    
   9970000   31.339668      60.615394      495.98069    
   9980000   34.237942      59.688073      488.39296    
   9990000   34.034169      55.26872       452.23195    
  10000000   34.582257      58.076814      475.20897    
  10010000   38.319148      52.681018      431.05828    
  10020000   34.421827      60.790833      497.41621    
  10030000   28.785918      54.808635      448.46735    
  10040000   23.359064      57.600639      471.3127     
  10050000   28.867382      54.039384      442.17301    
  10060000   40.145638      67.467908      552.05086    
  10070000   37.227259      53.116946      434.62523    
  10080000   31.96695       59.134196      483.86091    
  10090000   31.140579      58.193808      476.16626    
  10100000   40.721463      48.739909      398.81047    
  10110000   26.050202      57.490936      470.41506    
  10120000   23.414518      64.231104      525.56596    
  10130000   30.696039      48.640081      397.99364    
  10140000   24.084976      67.443553      551.85157    
  10150000   42.703028      54.863914      448.91967    
  10160000   28.021999      57.323624      469.04605    
  10170000   34.327097      51.23611       419.23544    
  10180000   31.145693      62.941307      515.0123     
  10190000   40.750735      55.026548      450.2504     
  10200000   33.040657      56.042208      458.56096    
  10210000   34.741511      54.53655       446.24104    
  10220000   34.397626      72.694682      594.81852    
  10230000   32.154251      58.791808      481.05935    
  10240000   28.903722      53.292715      436.06345    
  10250000   33.648191      55.353287      452.92392    
  10260000   32.236943      57.472408      470.26346    
  10270000   33.423198      67.895742      555.55157    
  10280000   33.832946      56.783236      464.62436    
  10290000   39.131641      57.154786      467.66455    
  10300000   41.271673      54.314817      444.42672    
  10310000   38.963359      44.940824      367.72476    
  10320000   38.060186      51.548977      421.79545    
  10330000   30.527192      58.647311      479.87701    
  10340000   31.999751      58.433307      478.12594    
  10350000   33.182941      60.51953       495.1963     
  10360000   37.971113      76.334293      624.59935    
  10370000   46.04076       75.31253       616.23885    
  10380000   47.882032      69.526536      568.89541    
  10390000   30.783875      61.874416      506.28254    
  10400000   30.990147      55.784428      456.4517     
  10410000   32.690235      40.541268      331.72573    
  10420000   28.302827      60.437542      494.52543    
  10430000   37.873192      53.32713       436.34505    
  10440000   30.931249      55.71013       455.84376    
  10450000   27.58681       51.462608      421.08875    
  10460000   30.641191      71.62818       586.09195    
  10470000   35.524472      52.100492      426.30818    
  10480000   31.054091      51.362669      420.271      
  10490000   28.211469      47.429281      388.08636    
  10500000   35.311562      55.471441      453.8907     
  10510000   39.178843      68.479264      560.32619    
  10520000   32.267499      68.615693      561.44252    
  10530000   41.464609      52.780833      431.87502    
  10540000   36.547549      57.068669      466.9599     
  10550000   39.754059      63.810316      522.12289    
  10560000   39.727147      44.616557      365.07147    
  10570000   39.436175      60.597372      495.83323    
  10580000   36.532429      61.453883      502.84156    
  10590000   30.863366      58.173171      475.9974     
  10600000   30.355843      60.457481      494.68859    
  10610000   38.445483      66.245985      542.05257    
  10620000   44.58356       53.083595      434.35234    
  10630000   33.565566      55.451023      453.72364    
  10640000   32.127181      73.683028      602.90558    
  10650000   28.419269      66.035569      540.33086    
  10660000   52.577613      63.123598      516.50387    
  10670000   31.256629      65.38723       535.02587    
  10680000   34.708284      65.779672      538.23699    
  10690000   42.739051      63.500039      519.58408    
  10700000   32.394072      52.206792      427.17797    
  10710000   33.890752      52.885364      432.73033    
  10720000   31.160862      62.66892       512.78351    
  10730000   39.358797      53.548994      438.16043    
  10740000   31.409191      65.464391      535.65723    
  10750000   39.114271      56.087182      458.92895    
  10760000   37.633183      51.873279      424.44902    
  10770000   35.381824      47.387519      387.74465    
  10780000   38.295311      57.099908      467.21551    
  10790000   46.711156      54.076161      442.47394    
  10800000   38.492118      68.602284      561.33279    
  10810000   32.240417      78.651986      643.56369    
  10820000   41.38824       49.875222      408.10008    
  10830000   28.32275       60.181226      492.42815    
  10840000   24.971187      54.860691      448.89329    
  10850000   27.989139      55.397644      453.28687    
  10860000   33.403124      65.435662      535.42216    
  10870000   38.367359      59.631115      487.92691    
  10880000   40.461404      57.569421      471.05726    
  10890000   44.880147      78.256355      640.32648    
  10900000   48.743407      64.693068      529.34595    
  10910000   40.179751      60.107366      491.82379    
  10920000   38.453986      74.476129      609.39507    
  10930000   39.754967      71.096158      581.73872    
  10940000   41.240068      49.303008      403.41799    
  10950000   33.731338      53.46825       437.49975    
  10960000   34.601436      68.17532       557.8392     
  10970000   28.648148      56.237245      460.15684    
  10980000   42.02971       50.352876      412.00845    
  10990000   25.848483      57.502443      470.50922    
  11000000   38.452637      61.547961      503.61135    
  11010000   34.705089      59.600589      487.67713    
  11020000   37.208111      58.447512      478.24217    
  11030000   43.049295      56.215013      459.97493    
  11040000   28.997874      63.048164      515.88664    
  11050000   33.374381      75.750013      619.81852    
  11060000   36.558028      65.217096      533.63376    
  11070000   49.7096        68.36534       559.39402    
  11080000   46.081829      66.308229      542.56187    
  11090000   49.887016      64.917008      531.17832    
  11100000   38.893088      64.947039      531.42404    
  11110000   37.658627      60.624138      496.05224    
  11120000   39.537828      55.032113      450.29594    
  11130000   38.698622      63.781491      521.88704    
  11140000   42.764438      51.384506      420.44968    
  11150000   29.902787      50.254689      411.20504    
  11160000   31.559764      53.094777      434.44384    
  11170000   35.182362      53.467764      437.49577    
  11180000   24.913087      54.461824      445.62959    
  11190000   32.534928      52.199418      427.11763    
  11200000   20.113647      71.731863      586.94033    
  11210000   40.773352      52.324801      428.14357    
  11220000   30.468747      60.269347      493.14919    
  11230000   43.657282      72.002803      589.15727    
  11240000   35.041849      71.935346      588.60531    
  11250000   38.739123      54.12217       442.8504     
  11260000   40.577391      67.200228      549.86058    
  11270000   40.067352      62.745         513.40603    
  11280000   32.148057      68.441495      560.01715    
  11290000   31.315755      61.59703       504.01285    
  11300000   41.468379      44.757572      366.22531    
  11310000   55.141966      67.612062      553.23038    
  11320000   45.10316       62.419848      510.7455     
  11330000   34.959547      61.249414      501.16852    
  11340000   37.976277      43.275185      354.0958     
  11350000   34.339723      57.409042      469.74497    
  11360000   35.527283      69.264743      566.75331    
  11370000   48.411026      70.981817      580.80314    
  11380000   54.094441      67.51684       552.45123    
  11390000   34.524159      57.431259      469.92676    
  11400000   34.129038      66.884369      547.27609    
  11410000   35.903734      60.78407       497.36087    
  11420000   36.842927      68.748198      562.52673    
  11430000   48.329695      60.659395      496.34073    
  11440000   40.013213      56.314846      460.7918     
  11450000   34.800488      66.27122       542.25905    
  11460000   44.556355      52.617938      430.54214    
  11470000   29.75676       66.477209      543.94454    
  11480000   32.312707      56.38548       461.36976    
  11490000   36.123764      60.354275      493.84411    
  11500000   41.591398      57.015991      466.52886    
  11510000   32.537011      65.663773      537.28866    
  11520000   42.725173      55.120737      451.0211     
  11530000   32.013627      43.87572       359.00963    
  11540000   28.89674       69.359006      567.52461    
  11550000   33.079688      57.599317      471.30188    
  11560000   34.231438      58.288989      476.94507    
  11570000   35.192834      60.099504      491.75946    
  11580000   25.558268      65.054736      532.30527    
  11590000   37.135891      57.163834      467.73858    
  11600000   36.716114      55.060009      450.52419    
  11610000   38.037965      67.361851      551.18305    
  11620000   43.798756      63.17162       516.89682    
  11630000   39.160647      58.410418      477.93865    
  11640000   40.766739      75.636505      618.88976    
  11650000   28.727061      62.981565      515.34171    
  11660000   40.856301      62.584034      512.08894    
  11670000   42.068307      72.685993      594.74742    
  11680000   39.678978      63.904787      522.8959     
  11690000   34.095793      67.30375       550.70764    
  11700000   46.580455      64.479877      527.60153    
  11710000   26.801816      83.151092      680.37728    
  11720000   38.441716      68.527343      560.7196     
  11730000   24.696176      57.465626      470.20797    
  11740000   34.944281      72.449114      592.80918    
  11750000   44.838034      74.839538      612.36864    
  11760000   41.021555      66.743957      546.12718    
  11770000   42.82711       69.632574      569.76306    
  11780000   34.243212      69.04131       564.92509    
  11790000   32.150172      55.221561      451.84608    
  11800000   41.258351      73.524156      601.60563    
  11810000   49.562315      71.689073      586.5902     
  11820000   33.948122      74.078206      606.1391     
  11830000   35.266142      63.566795      520.1303     
  11840000   38.495595      62.051593      507.73228    
  11850000   29.999618      69.286362      566.93021    
  11860000   34.081028      56.46145       461.99137    
  11870000   33.86011       49.142474      402.10443    
  11880000   36.169284      62.52147       511.57701    
  11890000   40.377482      56.523632      462.50017    
  11900000   48.146056      62.053983      507.75184    
  11910000   41.24812       67.223373      550.04996    
  11920000   34.647017      59.335409      485.50732    
  11930000   48.319361      58.158974      475.88124    
  11940000   45.851445      56.914662      465.69975    
  11950000   32.504959      55.639059      455.26223    
  11960000   38.54977       72.10505       589.9939     
  11970000   51.63083       58.036305      474.8775     
  11980000   46.327915      60.505834      495.08423    
  11990000   38.729465      64.420229      527.11346    
  12000000   43.88308       52.329906      428.18535    
Loop time of 213.831 on 1 procs for 8000000 steps with 42 atoms

Performance: 32324.586 ns/day, 0.001 hours/ns, 37412.715 timesteps/s, 1.571 Matom-step/s
98.5% CPU use with 1 MPI tasks x 1 OpenMP threads

MPI task timing breakdown:
Section |  min time  |  avg time  |  max time  |%varavg| %total
---------------------------------------------------------------
Pair    | 172.87     | 172.87     | 172.87     |   0.0 | 80.84
Bond    | 19.957     | 19.957     | 19.957     |   0.0 |  9.33
Neigh   | 0.71617    | 0.71617    | 0.71617    |   0.0 |  0.33
Comm    | 6.8275     | 6.8275     | 6.8275     |   0.0 |  3.19
Output  | 0.85329    | 0.85329    | 0.85329    |   0.0 |  0.40
Modify  | 10.971     | 10.971     | 10.971     |   0.0 |  5.13
Other   |            | 1.637      |            |       |  0.77

Nlocal:             42 ave          42 max          42 min
Histogram: 1 0 0 0 0 0 0 0 0 0
Nghost:            170 ave         170 max         170 min
Histogram: 1 0 0 0 0 0 0 0 0 0
Neighs:            170 ave         170 max         170 min
Histogram: 1 0 0 0 0 0 0 0 0 0

Total # of neighbors = 170
Ave neighs/atom = 4.047619
Ave special neighs/atom = 5.4285714
Neighbor list builds = 22121
Dangerous builds = 0
Generated 0 of 6 mixed pair_coeff terms from geometric mixing rule
Setting up Verlet run ...
  Unit style    : real
  Current step  : 12000000
  Time step     : 10
Per MPI rank memory allocation (min/avg/max) = 8.535 | 8.535 | 8.535 Mbytes
   Step         PotEng         KinEng          Temp     
  12000000   43.88308       52.329906      428.18535    
  12010000   39.735071      58.738156      480.62034    
  12020000   28.973201      74.937149      613.16733    
  12030000   33.776748      81.285169      665.10951    
  12040000   43.939966      74.813918      612.159      
  12050000   37.183735      67.406172      551.5457     
  12060000   41.806569      56.515947      462.43729    
  12070000   41.830645      57.591764      471.24008    
  12080000   32.765858      67.268869      550.42223    
  12090000   34.224882      60.711562      496.76758    
  12100000   32.717139      53.265326      435.83934    
  12110000   35.117163      53.545397      438.131      
  12120000   34.668489      53.801004      440.22248    
  12130000   44.314098      63.837437      522.34481    
  12140000   45.799943      60.179361      492.41289    
  12150000   44.622611      56.915504      465.70664    
  12160000   44.798923      66.854723      547.03351    
  12170000   34.425527      57.169778      467.78721    
  12180000   34.751423      55.122493      451.03547    
  12190000   32.670578      70.163234      574.10515    
  12200000   33.476561      80.694582      660.27707    
  12210000   29.941845      65.737894      537.89515    
  12220000   35.737298      49.879232      408.13289    
  12230000   30.00232       46.757592      382.59032    
  12240000   37.342363      59.22953       484.64097    
  12250000   46.937211      63.175056      516.92493    
  12260000   37.925307      60.114792      491.88456    
  12270000   37.479115      55.562238      454.63365    
  12280000   43.820347      62.780431      513.69594    
  12290000   29.471324      75.713696      619.52136    
  12300000   39.626744      68.254685      558.48859    
  12310000   36.073225      64.087902      524.39422    
  12320000   25.311198      53.926575      441.24996    
  12330000   31.428968      60.435798      494.51117    
  12340000   39.825301      57.403848      469.70248    
  12350000   36.980372      51.741168      423.36804    
  12360000   31.380042      64.170215      525.06774    
  12370000   43.680044      53.911957      441.13035    
  12380000   38.739352      64.562021      528.27366    
  12390000   40.538011      80.898077      661.94216    
  12400000   49.773533      49.765475      407.20209    
  12410000   30.075673      61.238904      501.08252    
  12420000   37.870271      62.017887      507.45649    
  12430000   38.769236      71.7016        586.6927     
  12440000   32.088894      62.253447      509.38393    
  12450000   42.012367      59.317766      485.36296    
  12460000   41.456016      57.290074      468.77153    
  12470000   38.180457      64.351241      526.54897    
  12480000   37.629305      70.115397      573.71372    
  12490000   39.377968      62.067261      507.86049    
  12500000   39.460858      65.634969      537.05298    
  12510000   38.149568      71.828498      587.73104    
  12520000   41.763545      60.838209      497.80386    
  12530000   33.882057      61.962184      507.0007     
  12540000   40.040789      67.388308      551.39953    
  12550000   45.545504      63.936273      523.15353    
  12560000   40.326792      56.069794      458.78668    
  12570000   37.22124       38.443179      314.55829    
  12580000   32.712413      58.243698      476.57448    
  12590000   42.316399      63.389174      518.67693    
  12600000   36.640771      53.327312      436.34654    
  12610000   39.473566      51.590115      422.13206    
  12620000   42.327356      62.119056      508.28429    
  12630000   30.938486      55.669482      455.51116    
  12640000   31.915329      41.98001       343.49813    
  12650000   29.528251      55.137478      451.15808    
  12660000   39.263667      57.503267      470.51596    
  12670000   46.404828      66.191761      541.60888    
  12680000   35.537115      69.398135      567.84478    
  12690000   51.136523      59.933257      490.39916    
  12700000   29.100372      60.823465      497.68322    
  12710000   40.464142      58.70715       480.36664    
  12720000   35.066937      63.551528      520.00538    
  12730000   39.487869      56.288833      460.57895    
  12740000   39.657892      71.692738      586.6202     
  12750000   40.630632      68.513604      560.60718    
  12760000   33.053431      47.890721      391.86206    
  12770000   39.483961      49.808141      407.5512     
  12780000   34.082215      67.331694      550.9363     
  12790000   35.951152      63.567234      520.1339     
  12800000   44.467796      71.507651      585.10574    
  12810000   36.67244       73.842899      604.21372    
  12820000   37.561668      51.193779      418.88907    
  12830000   42.273651      69.538406      568.99254    
  12840000   33.3076        56.019526      458.37537    
  12850000   40.329994      63.825823      522.24978    
  12860000   51.960422      62.708117      513.10424    
  12870000   46.690823      64.717824      529.5485     
  12880000   44.355386      61.618242      504.18642    
  12890000   50.158281      55.532869      454.39333    
  12900000   32.514829      60.961369      498.81161    
  12910000   40.307774      59.847788      489.69982    
  12920000   31.664868      59.082654      483.43917    
  12930000   36.992686      63.268555      517.68998    
  12940000   35.892129      54.481558      445.79107    
  12950000   37.372904      57.172882      467.81261    
  12960000   31.333033      64.360925      526.62821    
  12970000   32.583046      69.527391      568.90241    
  12980000   29.747388      68.738124      562.4443     
  12990000   38.295964      65.207286      533.55349    
  13000000   29.034208      80.224264      656.42873    
  13010000   42.228314      61.870902      506.25379    
  13020000   50.128367      58.196408      476.18754    
  13030000   44.935839      52.473958      429.36404    
  13040000   41.373138      60.42487       494.42175    
  13050000   41.793747      57.899157      473.7553     
  13060000   43.276452      61.444088      502.76142    
  13070000   28.985217      58.298164      477.02015    
[...]
  73170000   30.467448      46.619183      381.4578     
  73180000   23.965506      40.849763      334.24997    
  73190000   17.699323      44.202771      361.6857     
  73200000   23.961844      41.509589      339.64895    
  73210000   24.41047       33.102711      270.86033    
  73220000   27.601508      51.253914      419.38112    
  73230000   25.388848      45.798699      374.74425    
  73240000   27.647123      40.00582       327.34448    
  73250000   22.843644      50.411596      412.48892    
  73260000   28.013531      45.836386      375.05263    
  73270000   32.620304      38.869473      318.04641    
  73280000   27.777808      39.299859      321.568      
  73290000   19.22613       37.129628      303.81026    
  73300000   26.684082      36.268843      296.76695    
  73310000   21.416343      42.512502      347.85521    
  73320000   33.558603      44.220484      361.83063    
  73330000   35.014423      46.179647      377.86133    
  73340000   30.618939      40.613318      332.31528    
  73350000   24.573374      38.797826      317.46016    
  73360000   25.661778      41.810606      342.11199    
  73370000   19.055347      40.97186       335.24902    
  73380000   21.560274      38.016861      311.06997    
  73390000   19.085831      45.891052      375.49992    
  73400000   17.8118        38.86523       318.01169    
  73410000   8.1628014      40.266223      329.47521    
  73420000   5.3738674      41.226368      337.33152    
  73430000  -1.7062282      40.106748      328.17031    
  73440000  -0.20734633     37.576954      307.47047    
  73450000  -7.6273534      37.239435      304.70875    
  73460000  -9.2331329      34.222946      280.02656    
  73470000  -4.5837619      37.156414      304.02944    
  73480000  -0.37010638     46.024763      376.594      
  73490000   9.4084418      47.484692      388.53976    
  73500000   0.017254363    43.384978      354.99418    
  73510000   5.2317393      36.692569      300.23406    
  73520000   1.9504455      41.183951      336.98444    
  73530000   5.737281       37.426758      306.24151    
  73540000   12.963783      38.911439      318.38979    
  73550000   8.4155503      39.885629      326.36103    
  73560000  -5.1943047      37.608738      307.73054    
  73570000   0.11905314     43.588305      356.65788    
  73580000   12.917171      34.318512      280.80853    
  73590000   7.6707301      41.667504      340.94107    
  73600000  -4.9896322      49.787389      407.3814     
  73610000   5.9311889      36.355679      297.47749    
  73620000  -2.0149795      42.07336       344.26196    
  73630000   4.8773882      39.815677      325.78864    
  73640000   7.1755853      40.144758      328.48132    
  73650000  -2.7490871      39.811109      325.75127    
  73660000  -2.9299161      43.855489      358.84409    
  73670000   9.254035       43.661008      357.25276    
  73680000   2.9430147      37.216298      304.51944    
  73690000   7.8553122      36.081702      295.23569    
  73700000   4.5498249      40.637592      332.5139     
  73710000   7.5333892      40.297189      329.72858    
  73720000   12.450324      44.464803      363.82976    
  73730000   5.7219386      42.904592      351.06345    
  73740000   1.1376776      47.500076      388.66564    
  73750000   0.51050347     35.524907      290.67976    
  73760000   6.4109393      43.899641      359.20536    
  73770000   8.4956466      37.178714      304.2119     
  73780000   5.9314652      33.199223      271.65003    
  73790000   7.7944491      35.841263      293.26832    
  73800000   15.777331      48.906487      400.17348    
  73810000   12.876007      42.860944      350.7063     
  73820000   15.595693      42.238698      345.61483    
  73830000   21.639993      37.923599      310.30687    
  73840000   1.6754369      50.362836      412.08994    
  73850000   8.0730511      33.728499      275.98079    
  73860000   6.3780358      43.414957      355.23947    
  73870000   2.0370214      43.133778      352.93875    
  73880000   2.6409518      38.409336      314.28138    
  73890000   1.4792614      36.909972      302.01295    
  73900000  -8.5983897      42.874902      350.82052    
  73910000  -15.006683      35.354821      289.28805    
  73920000  -12.931424      47.677545      390.11776    
  73930000  -9.1276886      43.424584      355.31824    
  73940000  -18.945589      35.262763      288.53479    
  73950000  -13.829183      27.250535      222.97536    
  73960000  -15.965492      34.915391      285.69244    
  73970000  -28.025266      33.967186      277.93383    
  73980000  -18.518855      31.025487      253.86361    
  73990000  -21.949659      32.854068      268.82583    
  74000000  -23.719683      40.727553      333.25       
  74010000  -16.258123      33.257041      272.12312    
  74020000  -8.8717141      40.526415      331.6042     
  74030000  -12.548933      35.947764      294.13975    
  74040000  -19.109931      34.778335      284.57099    
  74050000  -19.361002      39.347278      321.95601    
  74060000  -15.081526      39.99046       327.21879    
  74070000  -8.6010747      33.624042      275.12608    
  74080000  -21.748476      48.851354      399.72237    
  74090000  -29.301312      42.665621      349.10809    
  74100000  -31.612623      34.645479      283.48391    
  74110000  -18.902961      30.897409      252.81562    
  74120000  -24.936937      43.890068      359.12703    
  74130000  -24.821944      41.230945      337.36897    
  74140000  -24.187775      37.456464      306.48457    
  74150000  -20.945482      38.454871      314.65396    
  74160000  -22.756829      33.320613      272.6433     
  74170000  -28.883833      36.078648      295.2107     
  74180000  -21.845133      39.480996      323.05014    
  74190000  -23.50743       38.14565       312.12378    
  74200000  -5.7698571      34.913037      285.67318    
  74210000  -19.288417      48.244864      394.75981    
  74220000  -12.505193      44.588642      364.84306    
  74230000  -26.304836      45.414947      371.60423    
  74240000  -12.977587      35.921176      293.9222     
  74250000  -12.033912      31.567244      258.29649    
  74260000  -14.116523      39.524302      323.40449    
  74270000  -20.89872       39.511126      323.29668    
  74280000  -19.741754      33.861113      277.06589    
  74290000  -27.512231      41.217951      337.26264    
  74300000  -11.636208      35.758389      292.59021    
  74310000  -17.438207      37.910779      310.20197    
  74320000  -15.591654      42.149947      344.88863    
  74330000  -20.690485      28.258949      231.22663    
  74340000  -20.032089      35.791228      292.85891    
  74350000  -13.588854      31.209274      255.36743    
  74360000  -14.806826      39.249302      321.15433    
  74370000  -14.609287      42.215768      345.4272     
  74380000  -15.946144      41.49755       339.55044    
  74390000  -9.6334011      41.866411      342.56861    
  74400000  -6.3194398      45.929856      375.81743    
  74410000   0.44133237     37.678623      308.30237    
  74420000   5.3044467      42.707985      349.45473    
  74430000  -4.638773       29.819795      243.99813    
  74440000   0.30072938     27.866167      228.01272    
  74450000  -4.8215397      40.315565      329.87894    
  74460000  -19.2688        46.021659      376.5686     
  74470000  -11.761325      37.374604      305.81476    
  74480000  -16.144587      37.698583      308.46569    
  74490000  -13.369257      51.514475      421.51314    
  74500000  -6.7239161      41.071634      336.06542    
  74510000  -1.9711858      32.438539      265.42579    
  74520000   2.2519663      37.604613      307.69679    
  74530000  -5.110146       37.899789      310.11204    
  74540000  -2.8506323      44.388083      363.202      
  74550000   1.8475577      37.833573      309.57024    
  74560000   12.252775      44.366689      363.02695    
  74570000  -11.374006      47.614668      389.60328    
  74580000  -16.250807      46.669056      381.86589    
  74590000  -25.431886      54.17163       443.2551     
  74600000  -13.372961      36.227169      296.42597    
  74610000  -11.352434      34.927197      285.78904    
  74620000  -9.1174486      38.48105       314.86816    
  74630000  -9.3173804      33.255047      272.10681    
  74640000  -14.522711      35.961777      294.25441    
  74650000  -12.297339      39.644159      324.38522    
  74660000  -3.4338302      40.644947      332.57408    
  74670000  -10.849279      46.527436      380.70709    
  74680000  -17.249977      44.680298      365.59303    
  74690000  -11.839571      34.428619      281.70947    
  74700000  -16.173412      40.769273      333.59137    
  74710000  -22.563482      41.656715      340.8528     
  74720000  -20.907727      27.734365      226.93426    
  74730000  -30.471757      37.778626      309.12064    
  74740000  -18.999605      31.68992       259.30028    
  74750000  -19.613982      45.665022      373.65045    
  74760000  -12.053492      30.265224      247.64282    
  74770000  -16.481151      36.521894      298.83753    
  74780000  -26.832338      41.039192      335.79996    
  74790000  -16.348502      38.597323      315.81956    
  74800000  -18.749159      45.104346      369.06277    
  74810000  -16.938405      42.558703      348.23324    
  74820000  -20.542484      41.939758      343.16877    
  74830000  -20.698177      57.469241      470.23755    
  74840000  -11.301456      45.553837      372.74069    
  74850000  -4.1095861      54.092257      442.60564    
  74860000  -2.2281167      43.764818      358.10218    
  74870000  -5.5968078      32.1326        262.92247    
  74880000  -21.482063      45.891701      375.50523    
  74890000  -10.859363      38.754875      317.10872    
  74900000  -10.336451      41.431387      339.00907    
  74910000  -18.0121        39.33329       321.84155    
  74920000  -4.3965491      39.809675      325.73954    
  74930000  -0.52732827     35.51261       290.57914    
  74940000  -21.153872      47.27032       386.78567    
  74950000  -23.697149      34.171177      279.60297    
  74960000  -28.539488      34.636005      283.40639    
  74970000  -22.506834      41.2124        337.21723    
  74980000  -23.404619      42.004736      343.70045    
  74990000  -9.3342369      32.317162      264.43264    
  75000000  -15.495249      38.769393      317.22751    
  75010000  -16.130347      36.999012      302.7415     
  75020000  -12.78646       32.932838      269.47036    
  75030000  -8.5589062      39.85324       326.09601    
  75040000  -8.6344689      42.218458      345.44922    
  75050000  -10.935145      45.893535      375.52024    
  75060000   4.3733564      34.275473      280.45636    
  75070000   0.30874897     40.10878       328.18694    
  75080000  -11.056387      41.883768      342.71064    
  75090000  -9.6257025      39.888191      326.38199    
  75100000  -15.464479      38.803612      317.50751    
  75110000  -20.949208      39.199051      320.74315    
  75120000  -17.648879      41.47706       339.38278    
  75130000  -10.314623      36.991849      302.6829     
  75140000  -19.991735      35.450313      290.0694     
  75150000  -17.604969      43.316917      354.43727    
  75160000  -21.291951      42.591722      348.50342    
  75170000  -19.82659       40.255673      329.38888    
  75180000  -20.588198      36.484529      298.53179    
  75190000  -22.461118      33.662519      275.44092    
  75200000  -25.538222      40.451206      330.98881    
  75210000  -18.428536      35.8783        293.57137    
  75220000  -13.755788      36.099159      295.37853    
  75230000  -7.2769404      47.967854      392.49319    
  75240000  -20.702371      33.17191       271.42655    
  75250000  -24.051734      33.513246      274.2195     
  75260000  -31.919419      39.606512      324.07717    
  75270000  -17.511221      41.093689      336.24588    
  75280000  -16.466106      43.813894      358.50375    
  75290000  -3.4502253      37.196421      304.35679    
  75300000  -17.566605      45.929364      375.81341    
  75310000  -18.155183      45.206974      369.90251    
  75320000  -10.434874      36.66459       300.00513    
  75330000  -27.714692      47.261392      386.71262    
  75340000  -22.817003      43.53351       356.20953    
  75350000  -25.38825       38.596693      315.8144     
  75360000  -23.818885      32.160971      263.15461    
  75370000  -19.259889      31.3262        256.32417    
  75380000  -24.146306      41.705859      341.25491    
  75390000  -9.550402       39.468192      322.94538    
  75400000   0.30539207     30.310739      248.01524    
  75410000  -15.483082      40.348556      330.14889    
  75420000  -17.062967      41.842687      342.37449    
  75430000  -21.231212      49.286368      403.28183    
  75440000  -14.74154       38.850713      317.8929     
  75450000  -18.952002      36.94231       302.27754    
  75460000  -12.354985      48.152618      394.00501    
  75470000  -9.8326274      46.415265      379.78926    
  75480000  -20.531009      49.169312      402.32403    
  75490000  -18.265158      30.107989      246.35626    
  75500000  -22.859531      34.623562      283.30457    
  75510000  -26.99498       41.138439      336.61204    
  75520000  -14.233625      36.766691      300.84056    
  75530000  -21.829657      44.855353      367.0254     
  75540000  -12.544646      33.153958      271.27965    
  75550000  -15.371231      40.492263      331.32476    
  75560000  -12.223579      38.20793       312.63338    
  75570000  -10.017328      38.322761      313.57298    
  75580000  -5.6833037      30.492897      249.50573    
  75590000  -7.5867286      42.635859      348.86456    
  75600000  -7.2336908      43.510225      356.01899    
  75610000  -24.293006      41.686406      341.09574    
  75620000  -22.904453      40.32313       329.94084    
  75630000  -22.311937      34.826118      284.96197    
  75640000  -27.304246      29.887575      244.55273    
  75650000  -20.886855      39.722687      325.02776    
  75660000  -18.588295      32.631339      267.00336    
  75670000  -23.598457      34.76914       284.49576    
  75680000  -20.197079      35.071406      286.96902    
  75690000  -29.633918      39.292073      321.5043     
  75700000  -34.480711      28.219444      230.90339    
  75710000  -24.405591      33.075605      270.63854    
  75720000  -21.422418      35.316655      288.97576    
  75730000  -25.518594      34.794402      284.70246    
  75740000  -22.05158       31.502431      257.76617    
  75750000  -25.248341      27.944909      228.65702    
  75760000  -26.513555      40.009371      327.37354    
  75770000  -15.872499      36.501532      298.67091    
  75780000  -12.179052      40.247519      329.32216    
  75790000  -16.616283      32.94491       269.56914    
  75800000  -27.079007      39.626842      324.24352    
  75810000  -23.830976      34.280985      280.50146    
  75820000  -32.343993      32.102341      262.67489    
  75830000  -21.823751      26.920542      220.27522    
  75840000  -22.629036      35.523902      290.67154    
  75850000  -16.738086      35.970311      294.32424    
  75860000   0.36290903     36.317609      297.16598    
  75870000   4.2675815      38.910167      318.37938    
  75880000  -4.2046328      35.299495      288.83534    
  75890000  -15.929024      49.725338      406.87367    
  75900000  -11.974035      38.318066      313.53456    
  75910000  -14.869296      36.78075       300.95559    
  75920000  -12.628688      33.788206      276.46934    
  75930000  -24.000145      40.284518      329.6249     
  75940000  -25.875626      29.834954      244.12217    
  75950000  -32.521872      29.271137      239.50878    
  75960000  -29.940656      30.673516      250.98363    
  75970000  -16.913901      33.553324      274.54744    
  75980000  -24.80809       44.159459      361.3313     
  75990000  -29.760728      38.249733      312.97544    
  76000000  -22.102376      42.873516      350.80917    
Loop time of 428.934 on 1 procs for 16000000 steps with 42 atoms

Performance: 32228.723 ns/day, 0.001 hours/ns, 37301.763 timesteps/s, 1.567 Matom-step/s
98.5% CPU use with 1 MPI tasks x 1 OpenMP threads

MPI task timing breakdown:
Section |  min time  |  avg time  |  max time  |%varavg| %total
---------------------------------------------------------------
Pair    | 346.97     | 346.97     | 346.97     |   0.0 | 80.89
Bond    | 39.919     | 39.919     | 39.919     |   0.0 |  9.31
Neigh   | 1.3838     | 1.3838     | 1.3838     |   0.0 |  0.32
Comm    | 13.379     | 13.379     | 13.379     |   0.0 |  3.12
Output  | 2.0823     | 2.0823     | 2.0823     |   0.0 |  0.49
Modify  | 21.94      | 21.94      | 21.94      |   0.0 |  5.11
Other   |            | 3.261      |            |       |  0.76

Nlocal:             42 ave          42 max          42 min
Histogram: 1 0 0 0 0 0 0 0 0 0
Nghost:            118 ave         118 max         118 min
Histogram: 1 0 0 0 0 0 0 0 0 0
Neighs:            375 ave         375 max         375 min
Histogram: 1 0 0 0 0 0 0 0 0 0

Total # of neighbors = 375
Ave neighs/atom = 8.9285714
Ave special neighs/atom = 5.4285714
Neighbor list builds = 44185
Dangerous builds = 0
Generated 0 of 6 mixed pair_coeff terms from geometric mixing rule
Setting up Verlet run ...
  Unit style    : real
  Current step  : 76000000
  Time step     : 10
Per MPI rank memory allocation (min/avg/max) = 8.535 | 8.535 | 8.535 Mbytes
   Step         PotEng         KinEng          Temp     
  76000000  -22.102376      42.873516      350.80917    
  76010000  -21.514895      35.297218      288.81672    
  76020000  -10.939743      32.198696      263.4633     
  76030000  -28.147786      38.782783      317.33707    
  76040000  -20.892325      33.563108      274.62749    
  76050000  -14.842757      30.72997       251.44556    
  76060000  -18.05059       41.605373      340.43269    
  76070000  -13.354469      28.88693       236.36503    
  76080000  -13.522487      35.839196      293.25141    
  76090000  -17.315241      36.577903      299.29581    
  76100000  -28.058223      36.190509      296.12599    
  76110000  -16.217655      39.194865      320.7089     
  76120000  -17.778259      32.408947      265.18366    
  76130000  -23.448138      35.357956      289.31369    
  76140000  -32.708612      32.364599      264.82078    
  76150000  -32.628293      31.541402      258.08504    
  76160000  -27.967039      36.584597      299.35059    
  76170000  -21.354583      36.184971      296.08068    
  76180000  -17.849747      39.030152      319.36115    
  76190000  -16.452339      31.71668       259.51924    
  76200000  -14.706269      37.387738      305.92222    
  76210000  -25.975613      40.343662      330.10884    
  76220000  -25.996411      45.074344      368.81727    
  76230000  -21.836593      44.287988      362.38298    
  76240000  -17.341633      39.501264      323.21599    
  76250000  -15.438346      36.446289      298.2189     
  76260000  -16.131798      33.086663      270.72902    
  76270000  -15.778777      39.040516      319.44595    
  76280000  -25.104053      41.176622      336.92447    
  76290000  -17.729541      39.959354      326.96427    
  76300000  -18.779945      40.856147      334.30221    
  76310000  -17.224508      44.909812      367.471      
  76320000  -15.354502      39.77169       325.42872    
  76330000  -29.690281      35.595577      291.25801    
  76340000  -21.507305      35.82239       293.11389    
  76350000  -27.40091       34.385768      281.35884    
srun: Job step aborted: Waiting up to 47 seconds for job step to finish.
[2026-02-17T23:59:12.355] error: *** JOB 4854287 ON della-r3c4n14 CANCELLED AT 2026-02-17T23:59:12 DUE to SIGNAL Terminated ***
