LAMMPS (29 Aug 2024)
  using 1 OpenMP thread(s) per MPI task
  using 1 OpenMP thread(s) per MPI task
Reading data file ...
  orthogonal box = (-500.6 -500.6 -500.6) to (500.6 500.6 500.6)
  1 by 1 by 1 MPI processor grid
  reading atoms ...
  42 atoms
  scanning bonds ...
  1 = max bonds/atom
  scanning angles ...
  1 = max angles/atom
  orthogonal box = (-500.6 -500.6 -500.6) to (500.6 500.6 500.6)
  1 by 1 by 1 MPI processor grid
  reading bonds ...
  40 bonds
  reading angles ...
  38 angles
Finding 1-2 1-3 1-4 neighbors ...
  special bond factors lj:    0        0        0       
  special bond factors coul:  0        0        0       
     2 = max # of 1-2 neighbors
     2 = max # of 1-3 neighbors
     4 = max # of 1-4 neighbors
     6 = max # of special neighbors
  special bonds CPU = 0.000 seconds
  read_data CPU = 0.008 seconds
Finding 1-2 1-3 1-4 neighbors ...
  special bond factors lj:    0        0        1       
  special bond factors coul:  0        0        0       
     2 = max # of 1-2 neighbors
     2 = max # of 1-3 neighbors
     4 = max # of 1-4 neighbors
     6 = max # of special neighbors
  special bonds CPU = 0.000 seconds

CITE-CITE-CITE-CITE-CITE-CITE-CITE-CITE-CITE-CITE-CITE-CITE-CITE

Your simulation uses code contributions which should be cited:
- Type Label Framework: https://doi.org/10.1021/acs.jpcb.3c08419
The log file lists these citations in BibTeX format.

CITE-CITE-CITE-CITE-CITE-CITE-CITE-CITE-CITE-CITE-CITE-CITE-CITE

Generated 0 of 6 mixed pair_coeff terms from geometric mixing rule
Neighbor list info ...
  update: every = 10 steps, delay = 0 steps, check = yes
  max neighbors/atom: 2000, page size: 100000
  master list distance cutoff = 33
  ghost atom cutoff = 33
  binsize = 16.5, bins = 61 61 61
  2 neighbor lists, perpetual/occasional/extra = 2 0 0
  (1) pair lj/cut, perpetual, trim from (2)
      attributes: half, newton on, cut 25
      pair build: trim
      stencil: none
      bin: none
  (2) pair base/rna, perpetual
      attributes: half, newton on
      pair build: half/bin/newton
      stencil: half/bin/3d
      bin: standard
Setting up Verlet run ...
  Unit style    : real
  Current step  : 0
  Time step     : 10
Per MPI rank memory allocation (min/avg/max) = 8.368 | 8.368 | 8.368 Mbytes
   Step         PotEng         KinEng          Temp     
         0   11081.633      0              0            
     10000   1334.8196      2230.5926      18251.649    
     20000   291.83203      696.57654      5699.6828    
     30000   148.76421      204.80664      1675.8142    
     40000   56.894852      100.8798       825.44103    
     50000   40.378594      56.435228      461.77681    
     60000   27.209487      39.925618      326.68823    
     70000   21.751069      48.851803      399.72604    
     80000   24.511768      36.477305      298.47268    
     90000   24.330351      38.619393      316.00015    
    100000   31.075167      33.324633      272.67619    
    110000   25.509387      38.905215      318.33887    
    120000   35.397399      39.687707      324.74154    
    130000   22.106624      42.27716       345.92954    
    140000   20.570766      31.970484      261.59597    
    150000   24.590675      36.903503      301.96001    
    160000   22.285251      37.958577      310.59307    
    170000   18.905269      39.825144      325.86611    
    180000   23.664494      34.025596      278.41176    
    190000   23.195862      41.763867      341.72956    
    200000   26.627601      37.314882      305.32609    
    210000   29.951557      41.4657        339.28983    
    220000   30.107465      45.535623      372.59166    
    230000   20.59878       33.075443      270.63721    
    240000   21.034609      27.368822      223.94323    
    250000   17.966183      34.551204      282.71251    
    260000   22.261765      30.108615      246.36137    
    270000   18.49135       34.431238      281.7309     
    280000   26.389017      39.581789      323.87488    
    290000   23.058001      44.468134      363.85701    
    300000   25.422271      36.280139      296.85939    
    310000   25.028196      37.987038      310.82595    
    320000   23.844342      40.799956      333.84243    
    330000   20.108999      40.633273      332.47857    
    340000   14.617543      41.900799      342.85       
    350000   11.691704      40.355412      330.20499    
    360000   8.5328988      47.164955      385.92354    
    370000   10.866679      37.054479      303.19536    
    380000   7.412935       42.901051      351.03448    
    390000   11.112247      41.794019      341.97627    
    400000   1.8966461      50.894102      416.43699    
    410000   10.292476      45.683526      373.80186    
    420000   7.7727251      42.736773      349.69028    
    430000   6.3038989      31.758612      259.86234    
    440000   0.90715189     30.531285      249.81984    
    450000  -8.7602015      35.57726       291.10813    
    460000  -2.60889        36.032741      294.83507    
    470000   1.1225043      35.386952      289.55096    
    480000  -6.446212       33.430527      273.54266    
    490000  -7.7822807      38.921523      318.4723     
    500000   1.8962416      36.618735      299.62992    
    510000  -2.9000931      38.166756      312.29648    
    520000   2.7672325      34.447324      281.86252    
    530000  -0.30148631     40.95511       335.11197    
    540000  -1.1847879      38.653761      316.28136    
    550000  -5.1318106      43.022586      352.02893    
    560000  -3.1013328      38.307185      313.44553    
    570000  -0.75951032     38.636739      316.14208    
    580000  -4.8892067      38.425967      314.41745    
    590000  -0.96071274     33.480902      273.95485    
    600000  -0.27437952     29.176614      238.73535    
    610000  -8.0763566      37.555114      307.29177    
    620000  -2.4997306      32.352356      264.72061    
    630000  -10.578035      35.664453      291.82158    
    640000  -12.810452      37.786545      309.18544    
    650000  -6.7205269      35.87199       293.51974    
    660000   1.5777113      39.9921        327.23221    
    670000   5.6354683      34.8644        285.27521    
    680000  -0.42887139     39.611629      324.11904    
    690000   4.9649868      39.33145       321.8265     
    700000   4.0097157      45.861834      375.26085    
    710000  -2.5687171      39.336765      321.86998    
    720000   1.4466383      35.338807      289.15701    
    730000   5.9104857      33.958681      277.86424    
    740000   6.2795974      34.491623      282.22499    
    750000  -3.0084851      38.496599      314.9954     
    760000   0.52642237     36.668488      300.03702    
    770000   0.44675082     34.169724      279.59108    
    780000   1.8764219      33.837938      276.87627    
    790000   0.24802501     34.941408      285.90532    
    800000  -10.467358      36.558969      299.14089    
    810000  -2.9250027      33.707246      275.80689    
    820000  -3.3123304      36.548533      299.0555     
    830000  -1.3678243      32.273804      264.07786    
    840000  -7.9663065      36.32912       297.26017    
    850000  -1.6144026      31.966239      261.56124    
    860000   11.114593      24.137758      197.5053     
    870000   7.342263       32.812744      268.4877     
    880000   5.742212       39.961825      326.98449    
    890000   3.9173326      40.472552      331.16347    
    900000  -1.9190908      33.3329        272.74384    
    910000  -7.6742741      35.161272      287.70434    
    920000  -2.6064587      34.707549      283.99179    
    930000  -4.3604368      33.63773       275.23808    
    940000  -3.7897065      36.505389      298.70247    
    950000   9.8643313      39.723889      325.0376     
    960000   17.630852      40.127421      328.33947    
    970000   10.382623      42.32101       346.28833    
    980000  -3.15947        33.285043      272.35224    
    990000   2.4526394      33.334704      272.75859    
   1000000   6.731937       38.808164      317.54475    
   1010000  -4.5819507      43.892509      359.14701    
   1020000   2.4328584      30.138871      246.60894    
   1030000   5.433391       35.634192      291.57398    
   1040000   7.8489016      36.182545      296.06083    
   1050000   6.7795422      37.765767      309.01542    
   1060000  -0.2414076      42.224504      345.49868    
   1070000  -0.52529898     36.55026       299.06963    
   1080000   1.4334137      39.215686      320.87927    
   1090000   3.5593547      33.869194      277.13202    
   1100000   3.8608013      36.236446      296.50187    
   1110000  -5.5257662      39.040509      319.4459     
   1120000  -0.79662709     42.723832      349.5844     
   1130000   0.31422001     33.150481      271.2512     
   1140000   6.6600719      33.20699       271.71358    
   1150000   1.3314859      34.390229      281.39534    
   1160000  -1.741415       40.946684      335.04303    
   1170000  -0.93052912     43.398901      355.1081     
   1180000   1.2323031      30.442828      249.09605    
   1190000  -6.0356564      37.599528      307.65518    
   1200000  -2.5175319      28.526831      233.41856    
   1210000   11.786855      37.295728      305.16936    
   1220000   8.9322955      40.679853      332.8597     
   1230000   18.908849      42.573452      348.35393    
   1240000   19.512033      38.452709      314.63627    
   1250000   8.024089       42.560798      348.25038    
   1260000   8.8847966      39.376244      322.19302    
   1270000   3.4568221      39.090085      319.85155    
   1280000  -3.9932188      39.559631      323.69357    
   1290000   2.6395464      47.700184      390.30301    
   1300000   17.256879      37.762733      308.99059    
   1310000   10.535856      35.077264      287.01695    
   1320000   2.0259261      36.042474      294.91471    
   1330000  -8.851504       39.956844      326.94373    
   1340000  -6.0936443      39.878915      326.30609    
   1350000  -4.7748963      40.595717      332.17126    
   1360000   1.9713861      42.598867      348.56188    
   1370000   1.3716427      32.603382      266.77461    
   1380000   5.8358352      37.348348      305.59992    
   1390000   3.2522029      36.510629      298.74535    
   1400000   9.6944418      31.440525      257.25962    
   1410000  -2.5844234      47.79895       391.11115    
   1420000   2.0321174      43.422411      355.30046    
   1430000   2.4062092      47.671742      390.07028    
   1440000   0.61730449     39.359808      322.05854    
   1450000   3.8923842      48.210889      394.48181    
   1460000   2.9864104      33.102942      270.86222    
   1470000  -4.7239599      31.796109      260.16916    
   1480000  -5.2743924      27.002166      220.9431     
   1490000  -12.071478      31.821964      260.38072    
   1500000  -12.714504      36.63054       299.72651    
   1510000  -14.720399      33.64252       275.27727    
   1520000  -1.0356299      37.368705      305.76649    
   1530000  -8.3978877      39.394676      322.34384    
   1540000  -3.4713031      39.608982      324.09738    
   1550000  -0.91634884     32.605774      266.79418    
   1560000  -2.9203591      31.670892      259.14459    
   1570000   2.4227952      38.806524      317.53133    
   1580000   10.706278      38.11022       311.83388    
   1590000   7.9924144      38.048884      311.332      
   1600000   3.8608804      39.206449      320.80368    
   1610000   4.497007       50.500333      413.215      
   1620000   4.2258789      39.858549      326.13944    
   1630000  -3.1663726      36.804418      301.14926    
   1640000   11.929783      33.893576      277.33152    
   1650000   13.200956      30.168943      246.85501    
   1660000   11.799672      32.207876      263.53841    
   1670000   20.087248      34.839787      285.07382    
   1680000   25.939551      38.985087      318.99241    
   1690000   17.100798      31.848129      260.59481    
   1700000   14.081588      39.15178       320.35636    
   1710000   7.6760208      44.349835      362.88904    
   1720000   6.7185254      42.122937      344.66762    
   1730000   15.076548      39.631135      324.27865    
   1740000   9.4496747      36.687906      300.1959     
   1750000  -2.0046955      36.801912      301.12875    
   1760000  -4.9405997      34.944015      285.92666    
   1770000   0.68899365     36.716644      300.43105    
   1780000   4.1838321      30.622972      250.57006    
   1790000   9.4500676      41.567935      340.12636    
   1800000   7.083306       34.09364       278.96853    
   1810000   5.956566       36.215267      296.32858    
   1820000   9.8228873      34.0947        278.97721    
   1830000   7.8384035      39.03893       319.43298    
   1840000   3.0789397      36.648396      299.87262    
   1850000   2.3669984      38.018583      311.08407    
   1860000   12.980131      33.447798      273.68398    
   1870000   11.610451      27.620039      225.99879    
   1880000   14.195766      27.215212      222.68633    
   1890000   8.4766291      34.40327       281.50205    
   1900000   12.616207      41.096685      336.2704     
   1910000   19.704965      31.862013      260.70842    
   1920000   17.458502      37.422735      306.20859    
   1930000   21.334621      37.186027      304.27174    
   1940000   16.03212       37.215637      304.51402    
   1950000   20.103297      33.96731       277.93485    
   1960000   23.570783      32.527638      266.15484    
   1970000   22.967606      35.364308      289.36567    
   1980000   21.254693      35.06349       286.90425    
   1990000   13.123142      35.676281      291.91836    
   2000000   26.446371      35.915968      293.87959    
   2010000   25.266447      45.345147      371.0331     
   2020000   25.297261      47.344855      387.39556    
   2030000   20.438853      42.01523       343.78632    
   2040000   28.234655      45.759913      374.42689    
   2050000   15.885107      38.908726      318.36759    
   2060000   15.171536      37.605959      307.70781    
   2070000   23.061072      32.469777      265.6814     
   2080000   20.178545      31.319653      256.2706     
   2090000   24.032035      39.344434      321.93274    
   2100000   16.234149      45.605469      373.16316    
   2110000   21.573255      34.12633       279.23602    
   2120000   16.549132      35.750177      292.52301    
   2130000   20.354368      37.798281      309.28146    
   2140000   18.904255      40.270405      329.50943    
   2150000   21.442963      43.919621      359.36885    
   2160000   23.478202      35.594791      291.25158    
   2170000   19.973996      37.306186      305.25494    
   2180000   20.824078      27.283232      223.2429     
   2190000   24.528721      33.751479      276.16883    
   2200000   20.838817      43.289691      354.21449    
   2210000   22.582021      29.923314      244.84516    
   2220000   21.348293      32.867257      268.93375    
   2230000   20.307712      39.721116      325.01491    
   2240000   22.657759      40.210837      329.02202    
   2250000   23.463434      40.279669      329.58523    
   2260000   23.479165      35.780686      292.77265    
   2270000   21.96157       40.64241       332.55333    
   2280000   25.692164      40.362605      330.26384    
   2290000   26.8199        32.833663      268.65886    
   2300000   5.3278789      37.120074      303.73208    
   2310000  -4.2151634      48.111376      393.66755    
   2320000   3.7667771      35.82069       293.09998    
   2330000  -5.4896369      41.760724      341.70385    
   2340000   4.5719611      43.736216      357.86815    
   2350000   3.4758487      38.46035       314.69879    
   2360000   9.5218923      35.704194      292.14676    
   2370000   5.6217592      38.326782      313.60588    
   2380000   4.6808815      36.628627      299.71086    
   2390000   2.2592789      28.046305      229.48669    
   2400000   5.8007423      35.846666      293.31252    
   2410000   6.5132499      34.877347      285.38115    
   2420000  -2.0382113      43.026658      352.06224    
   2430000   9.3813823      36.115274      295.51039    
   2440000   4.058337       39.156838      320.39775    
   2450000  -7.7434504      41.336718      338.23444    
   2460000  -4.0951147      41.28869       337.84146    
   2470000  -1.2329305      30.487178      249.45894    
   2480000   0.18588013     31.676602      259.19131    
   2490000   4.8710641      36.302485      297.04223    
   2500000   5.0905744      29.824661      244.03795    
   2510000   8.445165       38.121604      311.92703    
   2520000  -1.2562186      38.201007      312.57674    
   2530000  -0.14739556     34.491126      282.22092    
   2540000   0.84096536     27.481699      224.86684    
   2550000  -3.8482243      46.469062      380.22944    
   2560000  -1.5078778      40.648396      332.6023     
   2570000   2.0780991      40.489645      331.30334    
   2580000   3.0622335      34.814249      284.86486    
   2590000   0.36622003     39.890807      326.40339    
   2600000  -1.0436456      37.774727      309.08873    
   2610000   9.5662117      36.30462       297.0597     
   2620000   11.215194      39.968466      327.03883    
   2630000   6.7035426      45.082698      368.88564    
   2640000   7.2744822      35.31729       288.98095    
   2650000   1.8785439      42.359178      346.60065    
   2660000   6.1597079      35.83994       293.25749    
   2670000  -0.012148735    37.298197      305.18956    
   2680000   0.46706725     50.354807      412.02425    
   2690000   4.2464393      42.090656      344.40349    
   2700000   10.421771      33.139496      271.16132    
   2710000  -0.32532897     38.139006      312.06942    
   2720000   12.648866      41.407825      338.81627    
   2730000   7.5547104      38.646842      316.22474    
   2740000   4.5241422      35.890459      293.67086    
   2750000   11.013152      47.02028       384.73974    
   2760000   6.6573514      31.210762      255.37961    
   2770000   8.7944518      37.142461      303.91526    
   2780000   12.109398      40.562962      331.90325    
   2790000   1.4207728      45.638032      373.42961    
   2800000  -0.25820248     34.099409      279.01574    
   2810000   3.9583923      30.110398      246.37597    
   2820000  -3.9189064      39.056215      319.57441    
   2830000   7.3267221      34.676455      283.73737    
   2840000   7.0901833      39.870948      326.2409     
   2850000  -2.5125117      42.06526       344.19569    
   2860000  -4.6435261      41.869617      342.59485    
   2870000   4.1051445      31.362293      256.6195     
   2880000   3.4289897      32.418416      265.26114    
   2890000   3.6065896      38.713727      316.77203    
   2900000   1.71385        29.564223      241.90693    
   2910000  -0.83892357     38.977501      318.93034    
   2920000   8.3054196      37.51746       306.98367    
   2930000  -5.7874553      35.895602      293.71294    
   2940000  -8.8919774      30.07807       246.11145    
   2950000  -15.35288       42.079691      344.31376    
   2960000  -4.3508507      36.126923      295.60571    
   2970000  -12.376609      37.259202      304.87049    
   2980000   0.1743746      34.534391      282.57494    
   2990000   2.6787266      40.74344       333.37999    
   3000000  -3.982396       39.082766      319.79166    
   3010000   4.3874108      36.56529       299.19261    
   3020000  -3.5108446      33.145014      271.20647    
   3030000   0.97228116     46.046506      376.77191    
   3040000  -9.4511586      36.249005      296.60463    
   3050000  -2.2413502      35.439664      289.98226    
   3060000  -5.6635462      37.139135      303.88806    
   3070000  -0.69190224     37.557574      307.3119     
   3080000   4.8431501      35.249735      288.42819    
   3090000  -9.7797882      36.41296       297.94618    
   3100000  -0.37088713     34.143179      279.37388    
   3110000  -4.6318588      40.906549      334.71462    
   3120000  -2.1606955      32.147328      263.04298    
   3130000   1.3384827      31.884788      260.89477    
   3140000  -7.0361483      44.607536      364.99766    
   3150000  -5.3946748      33.595484      274.89241    
   3160000  -1.8092513      42.697855      349.37184    
   3170000  -3.4036289      44.341173      362.81816    
   3180000  -5.0883113      40.561369      331.89021    
   3190000  -8.154759       39.28837       321.474      
   3200000   4.7938026      42.385955      346.81974    
   3210000  -3.1939956      43.566743      356.48145    
   3220000  -0.73053309     33.33973       272.79972    
   3230000  -4.5744494      36.775335      300.91129    
   3240000  -2.4786985      40.601255      332.21658    
   3250000  -6.9339546      35.256678      288.48499    
   3260000  -5.857827       37.78982       309.21223    
   3270000  -14.268979      36.019113      294.72356    
   3280000  -5.2110575      31.65831       259.04163    
   3290000   1.3849379      33.153268      271.27401    
   3300000  -0.81896864     37.557596      307.31208    
   3310000   0.28317352     37.525355      307.04826    
   3320000  -0.95057399     51.020619      417.47221    
   3330000   1.7630985      38.753567      317.09801    
   3340000   0.58686269     32.099171      262.64895    
   3350000   0.7228909      27.101365      221.75478    
   3360000  -7.4525233      28.724432      235.03541    
   3370000  -4.7373899      30.072776      246.06812    
   3380000  -7.0912556      34.975767      286.18647    
   3390000   0.97237144     37.999203      310.92549    
   3400000  -0.92468057     40.728946      333.2614     
   3410000   3.9722387      33.520164      274.27611    
   3420000  -0.052992391    38.328679      313.62141    
   3430000  -1.2310795      45.613014      373.2249     
   3440000  -3.4701657      36.256122      296.66287    
   3450000   0.54276686     35.675973      291.91584    
   3460000  -6.1340196      41.1032        336.3237     
   3470000  -0.8357966      43.561332      356.43718    
   3480000   3.4406622      34.632252      283.37568    
   3490000   0.69237146     38.294844      313.34455    
   3500000  -1.4580296      40.118539      328.26679    
   3510000  -7.3450927      38.840209      317.80696    
   3520000   0.78612698     37.125615      303.77742    
   3530000  -0.43058143     33.609235      275.00492    
   3540000  -4.3321189      29.100343      238.11127    
   3550000  -6.6393764      39.766242      325.38415    
   3560000   2.0774269      38.394711      314.1617     
   3570000   4.8475717      48.521678      397.02481    
   3580000   4.4069289      42.94257       351.3742     
   3590000  -2.4935004      35.978667      294.39262    
   3600000   9.8536357      33.703838      275.779      
   3610000   5.5450383      41.957285      343.31218    
   3620000   3.1857613      40.962232      335.17024    
   3630000  -3.9997989      42.491259      347.68139    
   3640000   0.99698051     36.27193       296.79222    
   3650000  -4.772863       37.87675       309.92353    
   3660000   0.17497801     36.043449      294.92269    
   3670000  -5.8423278      32.649926      267.15545    
   3680000  -11.279869      32.872476      268.97645    
   3690000  -9.0508469      37.248507      304.78298    
   3700000   0.26402633     27.963727      228.811      
   3710000  -3.3645617      33.150696      271.25296    
   3720000   9.6929452      30.387073      248.63984    
   3730000  -1.0255866      33.772593      276.34159    
   3740000  -3.9793361      39.196727      320.72413    
   3750000   3.6769692      34.888522      285.47259    
   3760000   5.0954283      41.383742      338.61922    
   3770000  -4.3272014      36.755807      300.7515     
   3780000  -7.4602229      40.578488      332.03029    
   3790000   1.3532051      34.795807      284.71395    
   3800000  -4.2195376      38.067318      311.48284    
   3810000   3.3045754      33.841423      276.90478    
   3820000  -3.3152912      43.178081      353.30125    
   3830000  -4.0592703      38.684952      316.53657    
   3840000   13.701923      32.66614       267.28812    
   3850000   2.1020652      32.917653      269.34611    
   3860000   1.3890864      30.880364      252.67615    
   3870000   6.4287264      35.574349      291.08432    
   3880000   11.688904      39.61289       324.12935    
   3890000   4.9091752      39.18621       320.63809    
   3900000   4.7831398      39.203401      320.77875    
   3910000  -4.6821873      40.396403      330.54039    
   3920000   0.92610217     41.391381      338.68172    
   3930000   3.244492       38.576974      315.65306    
   3940000   2.3569929      41.10057       336.30218    
   3950000   5.5380448      43.569864      356.50699    
   3960000   6.0878981      41.659505      340.87563    
   3970000  -6.8006181      46.87007       383.51066    
   3980000  -1.8773596      31.441938      257.27119    
   3990000   1.0649579      41.897501      342.82301    
   4000000   4.31924        36.648941      299.87708    
Loop time of 88.0209 on 1 procs for 4000000 steps with 42 atoms

Performance: 39263.399 ns/day, 0.001 hours/ns, 45443.749 timesteps/s, 1.909 Matom-step/s
99.3% CPU use with 1 MPI tasks x 1 OpenMP threads

MPI task timing breakdown:
Section |  min time  |  avg time  |  max time  |%varavg| %total
---------------------------------------------------------------
Pair    | 66.234     | 66.234     | 66.234     |   0.0 | 75.25
Bond    | 11.75      | 11.75      | 11.75      |   0.0 | 13.35
Neigh   | 1.7011     | 1.7011     | 1.7011     |   0.0 |  1.93
Comm    | 2.4017     | 2.4017     | 2.4017     |   0.0 |  2.73
Output  | 0.099779   | 0.099779   | 0.099779   |   0.0 |  0.11
Modify  | 5.12       | 5.12       | 5.12       |   0.0 |  5.82
Other   |            | 0.714      |            |       |  0.81

Nlocal:             42 ave          42 max          42 min
Histogram: 1 0 0 0 0 0 0 0 0 0
Nghost:              0 ave           0 max           0 min
Histogram: 1 0 0 0 0 0 0 0 0 0
Neighs:            208 ave         208 max         208 min
Histogram: 1 0 0 0 0 0 0 0 0 0

Total # of neighbors = 208
Ave neighs/atom = 4.952381
Ave special neighs/atom = 5.4285714
Neighbor list builds = 9603
Dangerous builds = 2
Generated 0 of 6 mixed pair_coeff terms from geometric mixing rule
Setting up Verlet run ...
  Unit style    : real
  Current step  : 4000000
  Time step     : 10
Per MPI rank memory allocation (min/avg/max) = 9.624 | 9.624 | 9.624 Mbytes
   Step         PotEng         KinEng          Temp     
   4000000   4.31924        36.648941      299.87708    
   4010000   4.276801       36.628596      299.71061    
   4020000   7.5312822      36.561529      299.16184    
   4030000  -5.4447715      34.66371       283.63308    
   4040000  -9.3613045      37.274254      304.99365    
   4050000   2.4916818      32.318442      264.44311    
   4060000   2.4820301      37.015601      302.87725    
   4070000   2.8517108      33.447629      273.68259    
   4080000   0.29275138     33.396428      273.26365    
   4090000  -0.46869198     35.627337      291.51788    
   4100000  -8.3254422      44.180654      361.50473    
   4110000   2.5523888      39.822284      325.84271    
   4120000   1.6912532      43.178767      353.30686    
   4130000   4.5348916      43.494375      355.88931    
   4140000  -0.75381134     42.763077      349.90551    
   4150000  -5.5211979      36.608636      299.54728    
   4160000  -1.8178907      36.266826      296.75045    
   4170000  -2.3332621      41.923776      343.038      
   4180000  -5.9546256      44.806513      366.62577    
   4190000   3.463071       35.781843      292.78212    
   4200000   1.5635294      31.598299      258.5506     
   4210000  -5.300229       36.912319      302.03215    
   4220000   5.5751989      30.225959      247.32154    
   4230000   3.4652793      37.065248      303.28348    
   4240000  -2.8357539      39.021378      319.28936    
   4250000   0.037170319    37.448273      306.41755    
   4260000  -0.32749595     40.762843      333.53876    
   4270000  -0.18544068     40.983387      335.34334    
   4280000   12.654132      31.305509      256.15487    
   4290000   7.3056222      43.192387      353.41831    
   4300000   8.1437653      35.906721      293.80392    
   4310000   11.512056      32.977902      269.83909    
   4320000  -2.213827       34.455951      281.93311    
   4330000   9.3750122      30.239237      247.43018    
   4340000  -0.9580603      37.50066       306.8462     
   4350000  -0.67296416     40.819855      334.00526    
   4360000  -4.2208729      37.139054      303.88739    
   4370000   4.065518       38.777629      317.2949     
   4380000   3.4634841      42.474417      347.54358    
   4390000  -10.357652      41.589547      340.3032     
   4400000  -5.4562031      51.10975       418.20151    
   4410000   8.6706596      35.486902      290.36879    
   4420000   6.0586088      29.98732       245.36889    
   4430000   3.8156452      36.070398      295.14319    
   4440000   6.1002668      41.463059      339.26822    
   4450000   2.2667812      38.227563      312.79403    
   4460000  -1.054152       36.121291      295.55962    
   4470000  -7.9532932      35.606515      291.34751    
   4480000  -0.73724319     34.113394      279.13017    
   4490000   8.1312351      35.324395      289.03908    
   4500000  -7.3767882      37.530296      307.0887     
   4510000  -8.9208943      43.064483      352.37175    
   4520000   1.5656324      31.208512      255.3612     
   4530000  -6.2794964      39.027333      319.33808    
   4540000  -4.1636981      44.473241      363.8988     
   4550000  -7.4946546      42.684212      349.26021    
   4560000  -3.3423539      33.474834      273.9052     
   4570000   6.0165397      31.934308      261.29997    
   4580000  -5.2900548      37.303447      305.23253    
   4590000   18.163681      35.321911      289.01876    
   4600000   9.096181       35.050032      286.79413    
   4610000   2.904528       47.263686      386.73139    
   4620000  -5.2706256      35.5317        290.73535    
   4630000   1.8042196      37.037417      303.05575    
   4640000  -1.7234353      34.973566      286.16846    
   4650000   0.091017904    43.791649      358.32172    
   4660000  -1.0384473      37.058849      303.23112    
   4670000   0.57746584     36.846683      301.49509    
   4680000  -1.725348       35.175392      287.81988    
   4690000   3.0330895      32.868515      268.94404    
   4700000   1.3924793      38.59863       315.83026    
   4710000  -1.1391419      38.983052      318.97576    
   4720000   0.24120883     29.146277      238.48712    
   4730000  -7.5794926      39.424069      322.58434    
   4740000   3.9329821      31.545847      258.12142    
   4750000   2.4027619      39.959279      326.96366    
   4760000   4.0736205      37.279172      305.03389    
   4770000   0.70658686     43.336694      354.59909    
   4780000   9.0751089      39.945039      326.84714    
   4790000   21.869692      43.338908      354.61721    
   4800000   18.023019      39.843361      326.01517    
   4810000   7.2967346      35.67427       291.90191    
   4820000  -2.8140159      43.834551      358.67276    
   4830000   4.1580859      36.021099      294.73981    
   4840000   8.0946459      37.217986      304.53325    
   4850000   20.722538      36.592091      299.41191    
   4860000   15.184926      51.733431      423.30474    
   4870000   28.150233      34.916056      285.69788    
   4880000   29.092894      45.137492      369.33398    
   4890000   22.069822      44.90408       367.4241     
   4900000   24.304924      45.937128      375.87694    
   4910000   18.954465      39.468372      322.94685    
   4920000   20.431403      44.754425      366.19957    
   4930000   18.006488      53.455482      437.39528    
   4940000   29.15717       49.782994      407.34543    
   4950000   30.225434      46.271283      378.61114    
   4960000   19.525684      37.756943      308.94321    
   4970000   23.727263      31.202217      255.30969    
   4980000   23.175924      40.685427      332.90531    
   4990000   27.408671      43.51774       356.08049    
   5000000   25.407239      38.363874      313.90938    
   5010000   19.724383      46.330498      379.09566    
   5020000   21.15393       35.778658      292.75606    
   5030000   21.769216      38.239033      312.88788    
   5040000   16.241621      36.222295      296.38608    
   5050000   20.327975      37.249679      304.79257    
   5060000   23.86106       39.554067      323.64805    
   5070000   22.926396      35.771335      292.69613    
   5080000   23.870103      44.964699      367.92011    
   5090000   19.749448      44.447682      363.68966    
   5100000   17.459391      32.512857      266.0339     
   5110000   19.46839       41.07982       336.13239    
   5120000   25.748386      33.311843      272.57154    
   5130000   19.463293      33.859242      277.05059    
   5140000   23.937424      32.579752      266.58126    
   5150000   25.070194      40.954758      335.10909    
   5160000   23.705301      29.942724      245.00399    
   5170000   21.14902       38.837636      317.7859     
   5180000   24.43678       43.203834      353.51198    
   5190000   19.208594      35.800794      292.93719    
   5200000   22.507192      37.822197      309.47715    
   5210000   23.76595       42.603468      348.59953    
   5220000   28.700704      34.651579      283.53382    
   5230000   24.16064       46.444926      380.03195    
   5240000   22.096027      43.062944      352.35916    
   5250000   22.177565      43.990431      359.94824    
   5260000   21.63374       44.395014      363.25871    
   5270000   22.104838      41.156613      336.76075    
   5280000   21.326192      39.447598      322.77687    
   5290000   27.911314      45.444537      371.84635    
   5300000   25.319187      47.609003      389.55692    
   5310000   25.204229      41.586454      340.27789    
   5320000   21.747388      37.430299      306.27048    
   5330000   23.645929      37.060756      303.24672    
   5340000   22.505144      40.474437      331.1789     
   5350000   34.868905      46.638615      381.6168     
   5360000   28.306598      38.16525       312.28416    
   5370000   21.527265      34.821163      284.92143    
   5380000   26.977039      43.000144      351.8453     
   5390000   15.924352      37.989586      310.8468     
   5400000   18.874761      36.986486      302.63902    
   5410000   22.174851      36.809324      301.1894     
   5420000   22.508546      47.482555      388.52228    
   5430000   35.128174      40.831131      334.09752    
   5440000   25.440813      36.892118      301.86686    
   5450000   29.701524      32.439891      265.43686    
   5460000   20.634306      42.259902      345.78833    
   5470000   21.061895      48.470516      396.60619    
   5480000   28.382748      38.166554      312.29483    
   5490000   30.134263      44.664         365.45967    
   5500000   26.785095      43.856905      358.85567    
   5510000   21.871971      40.04954       327.70221    
   5520000   18.494774      34.018652      278.35495    
   5530000   23.15863       46.110524      377.29574    
   5540000   26.544179      48.187086      394.28705    
   5550000   23.412606      34.242584      280.18726    
   5560000   28.171274      39.182715      320.60948    
   5570000   27.955355      38.55038       315.43546    
   5580000   21.973941      48.3169        395.34923    
   5590000   31.712216      39.912231      326.57869    
   5600000   24.380241      35.78241       292.78676    
   5610000   26.486118      35.624541      291.495      
   5620000   31.299839      42.654493      349.01704    
   5630000   21.430716      43.964921      359.73951    
   5640000   32.295855      35.397782      289.63956    
   5650000   33.10983       45.526931      372.52054    
   5660000   33.781877      41.969809      343.41466    
   5670000   24.01287       47.941785      392.27988    
   5680000   19.710769      50.4029        412.41777    
   5690000   29.440046      36.033973      294.84515    
   5700000   29.80833       42.662005      349.0785     
   5710000   30.177782      46.669237      381.86736    
   5720000   25.914155      39.214296      320.86789    
   5730000   23.431266      40.294721      329.70839    
   5740000   26.3658        49.966948      408.85063    
   5750000   29.617914      42.156847      344.94509    
   5760000   27.005803      37.49108       306.76781    
   5770000   21.56629       46.135103      377.49685    
   5780000   30.892215      33.555798      274.56768    
   5790000   24.084766      39.6904        324.76358    
   5800000   27.952116      35.806384      292.98293    
   5810000   24.251179      42.405061      346.97608    
   5820000   15.374897      52.502846      429.60041    
   5830000   24.192509      35.179717      287.85527    
   5840000   32.125406      40.433026      330.84006    
   5850000   29.264481      38.734752      316.94407    
   5860000   24.073446      42.690719      349.31345    
   5870000   21.487696      48.662219      398.17478    
   5880000   25.735962      45.143159      369.38035    
   5890000   28.700864      34.813125      284.85566    
   5900000   27.383351      39.879929      326.31438    
   5910000   36.714878      39.85546       326.11417    
   5920000   25.531618      36.609139      299.5514     
   5930000   27.750831      44.810717      366.66017    
   5940000   28.173272      40.862559      334.35467    
   5950000   19.133059      33.200093      271.65715    
   5960000   18.052021      38.294368      313.34066    
   5970000   23.264707      43.113203      352.7704     
   5980000   20.022797      42.004578      343.69916    
   5990000   14.223285      55.012935      450.13902    
   6000000   22.60363       46.587676      381.19999    
   6010000   23.831025      48.83558       399.59329    
   6020000   26.619692      54.573747      446.54539    
   6030000   37.471519      35.815398      293.05668    
   6040000   27.030486      40.569796      331.95917    
   6050000   29.897428      41.379684      338.58601    
   6060000   28.996804      36.068853      295.13055    
   6070000   23.228636      50.653878      414.47138    
   6080000   34.207902      54.404829      445.16324    
   6090000   33.338717      52.666602      430.94033    
   6100000   40.08242       38.419725      314.36638    
   6110000   27.571737      48.289768      395.12723    
   6120000   30.890608      52.617849      430.54141    
   6130000   28.26902       48.197931      394.37578    
   6140000   29.815209      45.120765      369.19711    
   6150000   26.783545      38.442978      314.55665    
   6160000   26.040514      38.491153      314.95083    
   6170000   20.277707      37.666163      308.20042    
   6180000   25.270752      44.503895      364.14963    
   6190000   19.383089      42.812622      350.31092    
   6200000   30.4039        39.95267       326.90958    
   6210000   23.500008      35.898279      293.73485    
   6220000   28.00443       49.61116       405.93942    
   6230000   34.458292      39.402055      322.40422    
   6240000   31.993379      46.246979      378.41227    
   6250000   26.220963      48.467993      396.58554    
   6260000   24.170808      49.983769      408.98826    
   6270000   30.678333      52.756639      431.67705    
   6280000   30.146209      47.681844      390.15294    
   6290000   27.155953      41.047159      335.86515    
   6300000   24.50243       49.487819      404.93019    
   6310000   19.372428      49.344116      403.75435    
   6320000   28.430679      54.479071      445.77072    
   6330000   31.373048      34.834632      285.03164    
   6340000   17.647027      35.205445      288.06579    
   6350000   25.076249      45.204432      369.88171    
   6360000   27.879332      57.596258      471.27685    
   6370000   16.935915      55.390665      453.22976    
   6380000   24.05103       56.164815      459.56419    
   6390000   27.298249      47.566753      389.21122    
   6400000   29.571139      47.403616      387.87637    
   6410000   26.34388       46.510732      380.57041    
   6420000   17.489563      56.220781      460.02212    
   6430000   20.981269      51.097003      418.09721    
   6440000   31.736397      39.162795      320.44649    
   6450000   30.745729      44.638237      365.24886    
   6460000   27.973204      44.562094      364.62583    
   6470000   36.903624      44.861571      367.07628    
   6480000   31.35671       39.935684      326.7706     
   6490000   29.529295      36.73946       300.61775    
   6500000   24.212825      41.727787      341.43434    
   6510000   25.225687      48.663901      398.18855    
   6520000   30.604706      45.983502      376.25639    
   6530000   35.657694      46.021044      376.56358    
   6540000   31.337672      54.674842      447.3726     
   6550000   35.588393      49.2159        402.70524    
   6560000   30.411508      42.052901      344.09455    
   6570000   29.327292      47.607403      389.54383    
   6580000   31.553547      57.656998      471.77385    
   6590000   28.068259      45.007352      368.26912    
   6600000   24.189376      50.430044      412.63987    
   6610000   29.036753      39.217579      320.89476    
   6620000   23.619511      49.126532      401.97399    
   6630000   21.854967      44.068295      360.58536    
   6640000   17.950078      36.400942      297.84785    
   6650000   24.046728      39.645061      324.39259    
   6660000   30.13172       40.784412      333.71524    
   6670000   28.833791      52.664679      430.9246     
   6680000   39.193653      47.8194        391.27848    
   6690000   17.945641      47.116037      385.52327    
   6700000   30.547979      50.465205      412.92757    
   6710000   34.598862      41.58592       340.27352    
   6720000   30.826531      53.02927       433.90783    
   6730000   29.567986      59.562804      487.36796    
   6740000   34.771994      49.350286      403.80484    
   6750000   24.482728      45.739577      374.26049    
   6760000   25.911836      42.623784      348.76576    
   6770000   22.031376      47.345463      387.40053    
   6780000   28.765799      45.805742      374.80188    
   6790000   36.755789      39.27797       321.3889     
   6800000   27.731781      53.240548      435.6366     
   6810000   41.779943      53.840968      440.54949    
   6820000   19.316358      50.044843      409.488      
   6830000   25.255732      48.230762      394.64442    
   6840000   22.694882      52.235934      427.41643    
   6850000   25.498819      52.005179      425.52829    
   6860000   23.028659      44.364414      363.00833    
   6870000   23.568649      35.830314      293.17873    
   6880000   27.179891      43.609127      356.82825    
   6890000   22.536807      47.123568      385.58489    
   6900000   20.46375       51.83424       424.12959    
   6910000   23.577184      54.920637      449.38379    
   6920000   22.787031      43.810537      358.47628    
   6930000   29.677495      44.238242      361.97593    
   6940000   26.870041      39.477089      323.01818    
   6950000   20.571376      39.653116      324.4585     
   6960000   26.373779      50.487673      413.11142    
   6970000   31.575975      43.265319      354.01507    
   6980000   22.767251      51.988239      425.38968    
   6990000   26.28158       41.850619      342.4394     
   7000000   31.300821      45.197005      369.82094    
   7010000   24.572661      39.772211      325.43299    
   7020000   23.449073      47.828509      391.35302    
   7030000   26.866609      43.549491      356.34029    
   7040000   29.123397      42.949742      351.43289    
   7050000   32.51142       41.930009      343.089      
   7060000   28.520228      31.135296      254.76211    
   7070000   29.983751      35.454756      290.10575    
   7080000   26.081729      41.108632      336.36815    
   7090000   21.566705      50.975627      417.10406    
   7100000   27.936924      42.743252      349.7433     
   7110000   22.163612      42.826267      350.42256    
   7120000   23.913779      45.32346       370.85565    
   7130000   26.923025      44.674793      365.54798    
   7140000   29.922076      53.795779      440.17973    
   7150000   33.519064      46.935677      384.04749    
   7160000   35.238547      46.530785      380.73449    
   7170000   29.731038      54.792526      448.33554    
   7180000   30.761809      51.108564      418.19181    
   7190000   29.87275       50.615106      414.15412    
   7200000   36.871408      52.210915      427.21171    
   7210000   28.303653      47.944577      392.30273    
   7220000   29.498124      53.516443      437.89408    
   7230000   38.33596       55.034406      450.3147     
   7240000   38.406592      48.684334      398.35573    
   7250000   30.091364      61.099009      499.93783    
   7260000   22.909231      62.167691      508.68224    
   7270000   34.636627      56.832489      465.02737    
   7280000   29.274397      53.649213      438.98047    
   7290000   28.673999      53.84702       440.59901    
   7300000   32.783891      54.679908      447.41405    
   7310000   25.34406       50.31957       411.73593    
   7320000   21.477413      51.988768      425.39401    
   7330000   22.671141      52.952885      433.28281    
   7340000   30.243814      56.125428      459.2419     
   7350000   29.742351      39.749351      325.24594    
   7360000   27.112848      38.24723       312.95495    
   7370000   31.531276      44.150158      361.2552     
   7380000   24.768559      50.314525      411.69464    
   7390000   25.627422      44.434244      363.57971    
   7400000   24.948634      47.887584      391.83639    
   7410000   32.297313      41.866209      342.56696    
   7420000   22.861914      42.074015      344.26732    
   7430000   30.67507       44.289652      362.39659    
   7440000   24.080657      41.771069      341.78849    
   7450000   28.533459      51.401541      420.58907    
   7460000   28.826397      40.224162      329.13104    
   7470000   20.727454      40.393665      330.51799    
   7480000   26.478097      44.417126      363.43964    
   7490000   26.225239      50.021732      409.29889    
   7500000   23.008318      54.65658       447.22317    
   7510000   30.868565      50.746083      415.22583    
   7520000   24.661322      55.50218       454.14223    
   7530000   24.590818      48.955002      400.57046    
   7540000   31.771917      51.413355      420.68574    
   7550000   28.681559      52.851038      432.44946    
   7560000   29.260495      52.513322      429.68613    
   7570000   33.18793       36.401515      297.85253    
   7580000   30.205306      41.975046      343.45751    
   7590000   31.479229      43.134773      352.94689    
   7600000   19.190179      50.511647      413.30758    
   7610000   26.526273      54.195924      443.45389    
   7620000   37.454025      54.376367      444.93035    
   7630000   37.663886      49.867449      408.03648    
   7640000   34.861093      54.987134      449.9279     
   7650000   35.599164      50.805425      415.7114     
   7660000   33.220021      44.482134      363.97156    
   7670000   30.944448      43.577058      356.56585    
   7680000   28.147445      40.942901      335.01207    
   7690000   26.913918      40.955216      335.11284    
   7700000   33.178013      50.998477      417.29103    
   7710000   26.427933      51.739129      423.35136    
   7720000   30.299098      44.415185      363.42376    
   7730000   33.500475      53.520818      437.92988    
   7740000   26.035396      36.79965       301.11024    
   7750000   31.127596      50.795051      415.62651    
   7760000   39.354665      45.411736      371.57796    
   7770000   34.335585      57.106751      467.2715     
   7780000   40.106078      48.584513      397.53896    
   7790000   30.597325      51.646661      422.59474    
   7800000   36.013201      46.721975      382.29889    
   7810000   30.336529      44.441567      363.63963    
   7820000   30.175206      46.633198      381.57248    
   7830000   35.820169      55.628126      455.17277    
   7840000   20.322141      54.380944      444.9678     
   7850000   25.608168      44.780474      366.41271    
   7860000   22.280688      47.596275      389.45278    
   7870000   24.447886      36.279639      296.85529    
   7880000   19.098246      56.236359      460.14958    
   7890000   27.139806      47.741021      390.63715    
   7900000   26.981025      57.543771      470.84738    
   7910000   29.942978      62.667526      512.7721     
   7920000   32.842828      44.662414      365.44669    
   7930000   25.019601      49.841154      407.82132    
   7940000   27.3068        46.578348      381.12367    
   7950000   27.921718      52.824823      432.23496    
   7960000   30.333146      49.872992      408.08183    
   7970000   28.798627      45.570959      372.88079    
   7980000   28.351117      55.390182      453.22581    
   7990000   37.014867      47.892406      391.87584    
   8000000   26.716117      54.268054      444.04408    
   8010000   28.911909      59.427615      486.26179    
   8020000   32.519395      58.507183      478.73043    
   8030000   35.457005      53.031927      433.92958    
   8040000   25.809798      40.437912      330.88004    
   8050000   26.365384      43.789966      358.30796    
   8060000   26.227225      60.672796      496.45038    
   8070000   34.29597       48.762469      398.99507    
   8080000   33.112337      54.672847      447.35627    
   8090000   39.585903      39.924391      326.67819    
   8100000   36.711936      40.872649      334.43724    
   8110000   27.854453      58.095443      475.36139    
   8120000   33.520386      56.23967       460.17668    
   8130000   34.722597      46.627281      381.52406    
   8140000   34.502856      60.862302      498.001      
   8150000   32.642285      42.890722      350.94996    
   8160000   27.96224       44.359103      362.96487    
   8170000   27.242816      44.410304      363.38382    
   8180000   31.379047      50.751359      415.26901    
   8190000   23.834018      55.359391      452.97386    
   8200000   36.684685      52.122588      426.48898    
   8210000   32.616939      45.012863      368.31421    
   8220000   31.50632       49.965683      408.84027    
   8230000   25.508945      52.363532      428.46049    
   8240000   25.408738      58.887282      481.84055    
   8250000   30.560365      47.385883      387.73127    
   8260000   28.027194      46.617855      381.44694    
   8270000   35.329006      44.393366      363.24523    
   8280000   34.461667      45.372109      371.25372    
   8290000   33.242154      43.38622       355.00434    
   8300000   26.060868      56.571955      462.89557    
   8310000   27.061027      67.009643      548.30114    
   8320000   31.61148       40.579877      332.04165    
   8330000   23.914853      58.873533      481.72806    
   8340000   34.156848      51.571893      421.98296    
   8350000   25.310724      49.895018      408.26206    
   8360000   26.024375      47.624081      389.6803     
   8370000   26.611829      56.93228       465.84391    
   8380000   28.040606      50.37923       412.22409    
   8390000   27.484052      56.267436      460.40387    
   8400000   39.966457      42.928186      351.25651    
   8410000   26.783751      56.243442      460.20755    
   8420000   37.421485      51.569942      421.967      
   8430000   39.536199      46.611464      381.39464    
   8440000   33.621893      60.206519      492.63511    
   8450000   37.16326       43.539856      356.26145    
   8460000   33.785106      65.799181      538.39662    
   8470000   35.676505      52.27142       427.70678    
   8480000   28.914291      45.4373        371.78714    
   8490000   40.336179      52.569511      430.14589    
   8500000   38.629563      61.742716      505.20492    
   8510000   38.978161      53.41576       437.07026    
   8520000   31.410985      58.196622      476.18929    
   8530000   31.247214      51.258308      419.41708    
   8540000   30.786001      55.080793      450.69426    
   8550000   37.228464      57.125663      467.42625    
   8560000   34.279044      53.992972      441.79325    
   8570000   29.321416      57.400515      469.6752     
   8580000   23.95126       45.088593      368.93387    
   8590000   27.593428      55.975641      458.01628    
   8600000   30.565404      54.15751       443.13957    
   8610000   31.160707      53.703181      439.42206    
   8620000   27.58724       51.815099      423.97298    
   8630000   28.178084      55.019747      450.19476    
   8640000   28.47813       60.782233      497.34585    
   8650000   27.456273      60.874218      498.09851    
   8660000   31.836767      45.051985      368.63433    
   8670000   32.307677      59.39102       485.96235    
   8680000   29.601028      53.930188      441.27952    
   8690000   24.030812      45.761406      374.43911    
   8700000   20.889057      40.414772      330.6907     
   8710000   29.467237      40.124984      328.31953    
   8720000   36.529248      48.412748      396.13351    
   8730000   31.236216      53.263625      435.82542    
   8740000   36.108993      53.656555      439.04054    
   8750000   26.609374      53.597266      438.55542    
   8760000   31.628957      52.542332      429.9235     
   8770000   34.866928      38.762774      317.17335    
   8780000   41.340864      56.524275      462.50544    
   8790000   45.597648      54.883634      449.08102    
   8800000   39.044324      56.487548      462.20492    
   8810000   29.800088      48.26414       394.91753    
   8820000   33.272705      48.128451      393.80726    
   8830000   29.135307      55.811524      456.67341    
   8840000   30.817408      47.815061      391.24298    
   8850000   25.926476      60.180112      492.41903    
   8860000   28.705834      52.148357      426.69983    
   8870000   29.692263      57.379603      469.50409    
   8880000   34.809066      36.505542      298.70373    
   8890000   33.740353      47.085565      385.27393    
   8900000   25.16324       57.055427      466.85155    
   8910000   33.266452      39.002465      319.13461    
   8920000   36.084504      52.508283      429.6449     
   8930000   35.323712      58.857297      481.5952     
   8940000   34.434679      69.775826      570.93521    
   8950000   30.415212      52.728382      431.44584    
   8960000   34.194406      47.634525      389.76576    
   8970000   31.177463      51.88313       424.52963    
   8980000   26.032636      59.875914      489.92996    
   8990000   27.005037      60.97983       498.96267    
   9000000   31.158457      47.027873      384.80188    
   9010000   34.557701      50.538474      413.52709    
   9020000   31.654233      42.883279      350.88906    
   9030000   29.721632      59.901606      490.14019    
   9040000   31.285723      58.286233      476.92252    
   9050000   33.28797       50.021338      409.29566    
   9060000   29.83634       53.340333      436.45309    
   9070000   36.660967      52.945209      433.22001    
   9080000   33.016264      50.896391      416.45572    
   9090000   31.381753      50.544546      413.57678    
   9100000   35.678056      56.899004      465.57163    
   9110000   27.926454      57.249527      468.43975    
   9120000   28.952831      62.586907      512.11245    
   9130000   43.291448      63.941061      523.1927     
   9140000   35.740348      61.773002      505.45273    
   9150000   34.828542      57.325007      469.05736    
   9160000   38.210313      59.391         485.96219    
   9170000   36.252687      58.282819      476.89459    
   9180000   40.422441      68.994626      564.54311    
   9190000   31.959412      63.923527      523.04924    
   9200000   29.15369       52.849852      432.43976    
   9210000   23.895946      59.506108      486.90405    
   9220000   32.364827      61.473352      503.00087    
   9230000   33.401047      56.443044      461.84077    
   9240000   38.665144      50.673877      414.63502    
   9250000   40.277032      67.84245       555.11551    
   9260000   30.399585      56.645115      463.4942     
   9270000   38.211624      43.284486      354.1719     
   9280000   20.138433      50.75167       415.27155    
   9290000   31.836594      55.293132      452.4317     
   9300000   37.274003      54.608798      446.83219    
   9310000   34.142169      63.96999       523.42941    
   9320000   33.316576      55.036418      450.33116    
   9330000   35.784792      52.734694      431.49749    
   9340000   34.628872      55.479405      453.95587    
   9350000   40.093976      41.603081      340.41394    
   9360000   35.063213      48.656767      398.13017    
   9370000   28.304331      53.719592      439.55634    
   9380000   22.041486      49.618974      406.00336    
   9390000   24.587816      71.368775      583.96939    
   9400000   28.735456      51.07508       417.91783    
   9410000   33.319467      47.998241      392.74183    
   9420000   44.995626      51.986261      425.37349    
   9430000   27.212112      55.809548      456.65724    
   9440000   24.438718      61.040679      499.46056    
   9450000   32.410982      57.431099      469.92545    
   9460000   32.635914      53.259423      435.79104    
   9470000   41.042905      54.876918      449.02607    
   9480000   26.610944      52.056211      425.94585    
   9490000   25.907335      52.480629      429.41862    
   9500000   35.513202      53.040622      434.00072    
   9510000   32.706409      54.226023      443.70017    
   9520000   31.585664      52.499601      429.57386    
   9530000   42.732473      43.623178      356.94323    
   9540000   45.576445      61.379702      502.23458    
   9550000   36.417932      50.540384      413.54272    
   9560000   31.164127      67.124375      549.23992    
   9570000   31.674144      59.323434      485.40934    
   9580000   31.997753      48.643839      398.02439    
   9590000   24.644761      53.197714      435.28611    
   9600000   45.294491      46.567176      381.03225    
   9610000   31.216529      54.533322      446.21462    
   9620000   38.115882      48.815065      399.42544    
   9630000   28.889904      39.053484      319.55206    
   9640000   30.577133      56.811298      464.85398    
   9650000   33.921639      46.86801       383.4938     
   9660000   34.130421      56.392564      461.42772    
   9670000   33.345288      55.921987      457.57726    
   9680000   40.442276      61.563527      503.73872    
   9690000   30.112899      58.609211      479.56526    
   9700000   30.245686      44.440899      363.63417    
   9710000   35.513608      48.656023      398.12408    
   9720000   32.508036      58.880209      481.78268    
   9730000   24.051453      63.730668      521.47118    
   9740000   34.017179      55.74515       456.13031    
   9750000   36.639641      54.689383      447.49158    
   9760000   36.730269      36.297993      297.00547    
   9770000   34.063193      66.907866      547.46836    
   9780000   40.719664      67.125193      549.24662    
   9790000   36.580629      51.306826      419.81407    
   9800000   35.1267        57.418874      469.82543    
   9810000   23.938752      55.590182      454.8623     
   9820000   39.240699      42.456484      347.39684    
   9830000   35.309045      63.885058      522.73447    
   9840000   38.479595      54.499392      445.93699    
   9850000   23.468903      48.544987      397.21554    
   9860000   29.923019      51.028411      417.53596    
   9870000   37.451977      47.999305      392.75054    
   9880000   35.009457      50.332077      411.83826    
   9890000   31.141723      45.975129      376.18788    
   9900000   22.42078       49.110929      401.84632    
   9910000   26.759038      58.680117      480.14545    
   9920000   29.595168      58.005786      474.62778    
   9930000   35.641709      58.282394      476.89111    
   9940000   29.089572      44.451411      363.72018    
   9950000   24.926547      40.571897      331.97636    
   9960000   32.58177       51.154097      418.56437    
   9970000   29.485962      50.41313       412.50147    
   9980000   24.763201      49.687768      406.56625    
   9990000   27.211763      49.123761      401.95131    
  10000000   30.230868      55.125302      451.05845    
  10010000   41.407659      56.385574      461.37053    
  10020000   33.641103      52.441375      429.09743    
  10030000   41.84333       60.023964      491.14137    
  10040000   38.6538        48.674055      398.27163    
  10050000   27.476741      66.683385      545.63156    
  10060000   47.450697      55.211479      451.76358    
  10070000   37.964614      43.447948      355.50942    
  10080000   30.23011       47.193043      386.15336    
  10090000   36.496346      48.233205      394.66441    
  10100000   39.505968      48.090375      393.49572    
  10110000   36.34169       57.944195      474.12382    
  10120000   32.837246      59.156122      484.04031    
  10130000   43.153803      53.667359      439.12895    
  10140000   41.431611      58.042706      474.92988    
  10150000   31.179926      55.263385      452.1883     
  10160000   30.298167      53.763661      439.91693    
  10170000   30.245778      45.478828      372.12693    
  10180000   22.089321      43.206842      353.53659    
  10190000   30.163086      41.255199      337.56742    
  10200000   27.934278      43.787037      358.28399    
  10210000   30.485626      54.243237      443.84102    
  10220000   25.672482      62.50961       511.47997    
  10230000   30.418357      55.648579      455.34013    
  10240000   36.064503      55.081953      450.70375    
  10250000   35.766635      58.799869      481.1253     
  10260000   31.919117      77.241628      632.02355    
  10270000   45.900434      56.186111      459.73844    
  10280000   36.605081      53.075272      434.28424    
  10290000   24.596035      74.030545      605.74911    
  10300000   24.793437      56.13866       459.35017    
  10310000   36.986352      45.887497      375.47084    
  10320000   27.71841       54.080098      442.50615    
  10330000   31.117607      55.188041      451.57181    
  10340000   38.141942      61.614911      504.15917    
  10350000   27.466488      61.812439      505.77542    
  10360000   36.770817      59.644152      488.03359    
  10370000   37.056816      60.405956      494.26699    
  10380000   50.964134      58.332436      477.30057    
  10390000   38.853872      69.865254      571.66695    
  10400000   33.450198      63.871876      522.6266     
  10410000   30.106905      59.737726      488.79925    
  10420000   38.898541      55.264937      452.201      
  10430000   28.294639      54.628622      446.99441    
  10440000   32.327366      55.539867      454.4506     
  10450000   28.02848       41.496219      339.53955    
  10460000   25.452121      54.365515      444.84155    
  10470000   29.315546      58.811835      481.22322    
  10480000   33.102441      57.36107       469.35245    
  10490000   42.808822      46.85912       383.42107    
  10500000   34.543194      54.519405      446.10074    
  10510000   32.384222      51.017998      417.45076    
  10520000   27.280675      61.730689      505.10651    
  10530000   24.808013      69.629231      569.73571    
  10540000   33.660639      67.088296      548.94471    
  10550000   46.498857      59.675646      488.29129    
  10560000   33.51195       64.036364      523.97252    
  10570000   33.134612      55.655889      455.39993    
  10580000   34.506666      50.912282      416.58575    
  10590000   42.978621      60.592431      495.79281    
  10600000   40.904523      46.939525      384.07897    
  10610000   37.37248       44.939912      367.7173     
  10620000   35.90653       56.098014      459.01759    
  10630000   39.890141      61.911057      506.58236    
  10640000   37.844609      63.474359      519.37396    
  10650000   34.445256      60.299904      493.39923    
  10660000   41.596737      60.801824      497.50615    
  10670000   36.434559      53.091983      434.42098    
  10680000   26.578472      59.99987       490.94422    
  10690000   28.040476      57.476522      470.29712    
  10700000   34.534037      63.063155      516.00931    
  10710000   29.547626      49.417778      404.35708    
  10720000   34.212244      43.036913      352.14615    
  10730000   38.845229      48.990893      400.86413    
  10740000   40.786867      61.594734      503.99407    
  10750000   43.567113      64.231682      525.57069    
  10760000   32.11239       65.946657      539.60334    
  10770000   33.501367      58.037019      474.88334    
  10780000   35.191408      51.108077      418.18782    
  10790000   26.060259      67.967938      556.14231    
  10800000   37.893165      56.724952      464.14746    
  10810000   46.935744      61.260132      501.25622    
  10820000   30.655169      56.735024      464.22987    
  10830000   34.309407      54.683408      447.44269    
  10840000   34.044496      48.168092      394.13163    
  10850000   21.93667       59.444946      486.40359    
  10860000   29.339776      56.906956      465.63669    
  10870000   27.652198      62.522895      511.58867    
  10880000   34.320584      55.319104      452.64422    
  10890000   47.750144      42.945056      351.39455    
  10900000   31.331959      57.726016      472.33858    
  10910000   38.379389      67.181644      549.70852    
  10920000   31.793967      75.864097      620.75201    
  10930000   44.752978      57.064336      466.92444    
  10940000   32.075909      68.988001      564.4889     
  10950000   35.753694      61.235106      501.05144    
  10960000   43.041007      68.180348      557.88033    
  10970000   36.251472      68.962481      564.28008    
  10980000   34.976792      75.935691      621.33783    
  10990000   35.888264      67.127414      549.26479    
  11000000   40.294538      63.15192       516.73562    
  11010000   38.890992      48.03808       393.06782    
  11020000   32.333279      49.88531       408.18262    
  11030000   33.99628       66.321948      542.67412    
  11040000   39.645941      55.03413       450.31245    
  11050000   29.721592      62.991989      515.427      
  11060000   37.846564      49.08957       401.67154    
  11070000   31.277437      70.324758      575.4268     
  11080000   35.122611      60.906778      498.36493    
  11090000   34.29302       64.010336      523.75954    
  11100000   35.635394      69.581811      569.3477     
  11110000   37.027439      80.28721       656.94378    
  11120000   33.560468      69.340901      567.37647    
  11130000   40.320709      47.924129      392.13542    
  11140000   27.42829       49.339412      403.71586    
  11150000   35.208527      54.902348      449.23414    
  11160000   35.040021      65.525991      536.16127    
  11170000   34.18836       66.617167      545.08973    
  11180000   35.547658      58.783428      480.99078    
  11190000   29.746033      55.835951      456.87328    
  11200000   33.352225      53.524091      437.95666    
  11210000   43.478714      55.777911      456.39837    
  11220000   32.475864      54.296612      444.27776    
  11230000   41.447674      60.631705      496.11416    
  11240000   39.150174      60.939234      498.63049    
  11250000   33.530715      51.425656      420.78639    
  11260000   29.027817      49.765347      407.20104    
  11270000   37.289735      65.317181      534.4527     
  11280000   47.06731       57.943432      474.11758    
  11290000   32.778303      77.766393      636.3174     
  11300000   31.640009      72.062309      589.64418    
  11310000   34.613701      58.936213      482.24093    
  11320000   35.180751      55.300302      452.49038    
  11330000   33.577335      48.591093      397.5928     
  11340000   33.925429      57.928739      473.99735    
  11350000   35.732057      70.720298      578.66328    
  11360000   32.173705      75.865311      620.76194    
  11370000   39.371688      70.689597      578.41207    
  11380000   37.379555      56.474398      462.09732    
  11390000   36.06008       74.860427      612.53956    
  11400000   36.581894      49.876352      408.10933    
  11410000   29.019585      58.686434      480.19713    
  11420000   33.002865      68.377667      559.49488    
  11430000   47.044634      58.972027      482.53397    
  11440000   34.881363      61.795789      505.63918    
  11450000   41.138757      52.099865      426.30305    
  11460000   38.26825       64.339554      526.45334    
  11470000   26.708662      53.009741      433.74804    
  11480000   28.495447      47.528371      388.89716    
  11490000   34.260243      57.390775      469.5955     
  11500000   38.92327       62.930638      514.925      
  11510000   39.808657      65.220099      533.65833    
  11520000   31.894966      70.371349      575.80803    
  11530000   31.590506      59.137043      483.8842     
  11540000   29.273849      61.929835      506.73601    
  11550000   28.480715      54.790018      448.31502    
  11560000   42.535662      50.637317      414.33587    
  11570000   33.551593      60.740269      497.00248    
  11580000   34.631684      64.635959      528.87865    
  11590000   29.452036      59.555044      487.30446    
  11600000   18.9342        50.488567      413.11873    
  11610000   29.825527      51.623393      422.40436    
  11620000   28.884253      58.774036      480.91393    
  11630000   33.157611      51.259602      419.42766    
  11640000   27.018288      54.924701      449.41705    
  11650000   36.069628      57.156234      467.67639    
  11660000   36.618719      56.03849       458.53054    
  11670000   28.776572      65.542111      536.29317    
  11680000   33.628575      61.174613      500.55646    
  11690000   37.338202      57.236102      468.32991    
  11700000   41.179052      47.749313      390.705      
  11710000   42.395518      69.670298      570.07173    
  11720000   46.093318      67.231864      550.11944    
  11730000   40.167893      73.95462       605.12786    
  11740000   34.179432      59.318734      485.37088    
  11750000   38.326365      78.031981      638.49055    
  11760000   44.792417      49.937786      408.61201    
  11770000   37.66823       56.984796      466.27361    
  11780000   35.953084      46.741         382.45455    
  11790000   30.436934      50.540406      413.5429     
  11800000   33.970003      57.667326      471.85836    
  11810000   38.987746      56.440981      461.82389    
  11820000   32.649421      54.557406      446.41169    
  11830000   37.848862      61.314022      501.69716    
  11840000   35.675002      60.905111      498.35129    
  11850000   42.215396      69.596054      569.46424    
  11860000   54.936655      59.3321        485.48024    
  11870000   47.888699      69.131462      565.66275    
  11880000   39.950449      64.449554      527.35341    
  11890000   41.799144      65.199807      533.4923     
  11900000   38.730916      71.746824      587.06274    
  11910000   45.998945      66.434056      543.59144    
  11920000   32.20683       73.081767      597.98582    
  11930000   32.943318      49.888929      408.21224    
  11940000   34.217816      45.488279      372.20427    
  11950000   32.641374      62.080738      507.97076    
  11960000   47.558857      61.481224      503.06528    
  11970000   38.498262      80.750306      660.73303    
  11980000   36.142957      59.14433       483.94383    
  11990000   30.513116      58.720481      480.47572    
  12000000   38.081802      56.530133      462.55337    
Loop time of 98.3486 on 1 procs for 8000000 steps with 42 atoms

Performance: 70280.637 ns/day, 0.000 hours/ns, 81343.330 timesteps/s, 3.416 Matom-step/s
99.2% CPU use with 1 MPI tasks x 1 OpenMP threads

MPI task timing breakdown:
Section |  min time  |  avg time  |  max time  |%varavg| %total
---------------------------------------------------------------
Pair    | 54.974     | 54.974     | 54.974     |   0.0 | 55.90
Bond    | 23.192     | 23.192     | 23.192     |   0.0 | 23.58
Neigh   | 4.0257     | 4.0257     | 4.0257     |   0.0 |  4.09
Comm    | 4.5923     | 4.5923     | 4.5923     |   0.0 |  4.67
Output  | 0.19652    | 0.19652    | 0.19652    |   0.0 |  0.20
Modify  | 10.003     | 10.003     | 10.003     |   0.0 | 10.17
Other   |            | 1.365      |            |       |  1.39

Nlocal:             42 ave          42 max          42 min
Histogram: 1 0 0 0 0 0 0 0 0 0
Nghost:             30 ave          30 max          30 min
Histogram: 1 0 0 0 0 0 0 0 0 0
Neighs:            127 ave         127 max         127 min
Histogram: 1 0 0 0 0 0 0 0 0 0

Total # of neighbors = 127
Ave neighs/atom = 3.0238095
Ave special neighs/atom = 5.4285714
Neighbor list builds = 22555
Dangerous builds = 0
Generated 0 of 6 mixed pair_coeff terms from geometric mixing rule
Setting up Verlet run ...
  Unit style    : real
  Current step  : 12000000
  Time step     : 10
Per MPI rank memory allocation (min/avg/max) = 9.624 | 9.624 | 9.624 Mbytes
   Step         PotEng         KinEng          Temp     
  12000000   38.081802      56.530133      462.55337    
  12010000   44.749204      56.143766      459.39195    
  12020000   40.678897      72.828241      595.91136    
  12030000   37.303963      62.292274      509.70164    
  12040000   34.049758      58.116324      475.53225    
  12050000   45.023006      59.808096      489.37504    
  12060000   38.573948      67.004339      548.25774    
  12070000   36.171011      41.976196      343.46692    
  12080000   31.012933      52.719402      431.37236    
  12090000   40.392209      64.862616      530.73325    
  12100000   40.760273      59.37094       485.79805    
  12110000   34.186308      74.102014      606.3339     
  12120000   41.70666       68.341443      559.19849    
  12130000   35.40258       54.871982      448.98568    
  12140000   32.264795      74.06773       606.05337    
  12150000   26.392988      69.410841      567.94875    
  12160000   36.731444      58.83732       481.43175    
  12170000   30.251546      85.226722      697.36095    
  12180000   24.974711      68.270282      558.61621    
  12190000   41.319622      57.048138      466.7919     
  12200000   37.353013      71.976931      588.94558    
  12210000   46.376423      65.852607      538.83378    
  12220000   44.877966      73.944298      605.0434     
  12230000   34.878184      64.570056      528.33941    
  12240000   31.336476      67.713481      554.06024    
  12250000   36.851011      64.946805      531.42213    
  12260000   32.838486      56.57143       462.89128    
  12270000   31.132004      67.212843      549.9638     
  12280000   33.335816      54.317922      444.45213    
  12290000   23.559011      57.575998      471.11107    
  12300000   28.937074      61.256471      501.22626    
  12310000   31.033323      72.213508      590.88135    
  12320000   35.704835      56.578181      462.94652    
  12330000   38.601301      79.953117      654.21009    
  12340000   32.125444      64.338812      526.44727    
  12350000   44.543925      57.483348      470.35298    
  12360000   36.464093      70.136678      573.88785    
  12370000   40.893885      76.569397      626.52307    
  12380000   32.170317      72.261377      591.27304    
  12390000   33.958122      65.395287      535.0918     
  12400000   41.221115      64.713426      529.51252    
  12410000   34.374926      71.435108      584.51215    
  12420000   43.850179      62.422792      510.76959    
  12430000   50.907969      59.336913      485.51963    
  12440000   36.265643      71.803255      587.52449    
  12450000   42.405432      50.425235      412.60052    
  12460000   33.222412      54.292917      444.24753    
  12470000   34.440727      61.613121      504.14452    
  12480000   40.558702      70.610192      577.76234    
  12490000   37.211276      56.251101      460.27021    
  12500000   38.160455      59.594549      487.62771    
  12510000   33.557775      57.046784      466.78083    
  12520000   29.448374      56.416095      461.62026    
  12530000   32.398263      61.462272      502.91021    
  12540000   32.056546      60.934553      498.59219    
  12550000   34.560834      64.640619      528.91679    
  12560000   34.240897      62.452009      511.00865    
  12570000   30.020549      73.088151      598.03805    
  12580000   38.030654      58.506276      478.72301    
  12590000   37.931508      48.63459       397.94871    
  12600000   32.571521      52.157538      426.77496    
  12610000   27.716959      58.666325      480.03259    
  12620000   31.286116      56.381708      461.3389     
  12630000   41.646554      54.739946      447.9053     
  12640000   44.063199      62.298808      509.7551     
  12650000   46.798213      58.408665      477.92431    
  12660000   34.21529       75.948411      621.4419     
  12670000   42.819373      62.293284      509.7099     
  12680000   35.114987      62.081471      507.97676    
  12690000   33.907099      73.545157      601.77746    
  12700000   35.09518       56.322182      460.85183    
  12710000   44.414776      64.095019      524.45246    
  12720000   34.650898      63.934983      523.14297    
  12730000   41.181209      58.275777      476.83696    
  12740000   31.017398      76.950835      629.64416    
  12750000   33.713108      62.329734      510.00815    
  12760000   32.299393      49.331653      403.65237    
  12770000   43.099356      50.440024      412.72153    
  12780000   33.285379      49.730221      406.91362    
  12790000   27.032782      65.79207       538.33844    
  12800000   33.132656      55.875923      457.20035    
  12810000   38.258803      56.413973      461.6029     
  12820000   36.570448      68.939557      564.09251    
  12830000   25.428564      60.648736      496.25351    
  12840000   48.604971      66.096255      540.82741    
  12850000   39.565025      70.561122      577.36083    
  12860000   37.695035      56.297818      460.65247    
  12870000   28.194809      45.482411      372.15625    
  12880000   33.089381      56.973194      466.17868    
  12890000   34.445516      61.907405      506.55247    
  12900000   33.220833      60.241684      492.92284    
  12910000   29.86668       66.034716      540.32387    
  12920000   41.108247      47.476031      388.46889    
  12930000   50.376706      58.627779      479.71719    
  12940000   39.424818      67.618881      553.28618    
  12950000   42.563141      69.546827      569.06145    
  12960000   40.871374      63.105001      516.35171    
  12970000   43.989851      54.912803      449.31969    
  12980000   36.697501      63.075057      516.10669    
  12990000   35.320419      63.749289      521.62354    
  13000000   46.842792      67.823057      554.95683    
  13010000   35.23178       70.9451        580.5027     
  13020000   48.653598      55.535488      454.41477    
  13030000   46.780151      55.072372      450.62536    
  13040000   45.417286      68.233554      558.31569    
  13050000   32.602485      72.592202      593.97999    
  13060000   31.800953      63.367975      518.50348    
[...]
 404740000  -4.9995597      42.235659      345.58996    
 404750000  -3.6070963      43.290185      354.21854    
 404760000  -2.9893876      31.149144      254.87542    
 404770000  -12.500277      43.64212       357.09821    
 404780000  -2.2374821      38.378111      314.02587    
 404790000   5.5371936      29.279732      239.57911    
 404800000  -0.60997031     40.375116      330.36621    
 404810000  -10.643148      51.44829       420.97159    
 404820000   4.0303576      41.352605      338.36444    
 404830000  -0.024247462    35.425717      289.86814    
 404840000  -4.5033482      35.36947       289.40791    
 404850000  -0.45346842     30.341027      248.26307    
 404860000   2.5595645      44.229143      361.90149    
 404870000   11.752709      39.228633      320.9852     
 404880000   5.0336769      44.83073       366.82393    
 404890000   2.2410359      40.829908      334.08752    
 404900000   6.0136028      35.865663      293.46797    
 404910000   8.2371837      29.601993      242.21598    
 404920000   13.706755      43.453933      355.55839    
 404930000   16.302639      37.719409      308.63609    
 404940000   11.482323      43.051511      352.26561    
 404950000   19.499428      34.904793      285.60573    
 404960000   25.59682       33.278877      272.3018     
 404970000   22.794693      32.909199      269.27694    
 404980000   20.723692      37.956431      310.57551    
 404990000   20.634127      38.726635      316.87764    
 405000000   21.059841      35.268756      288.58383    
 405010000   29.21482       36.69804       300.27883    
 405020000   24.749614      39.268236      321.30925    
 405030000   20.941836      48.118648      393.72706    
 405040000   25.823421      45.401809      371.49673    
 405050000   19.740248      32.941324      269.53979    
 405060000   19.894176      34.379256      281.30556    
 405070000   20.212833      47.349433      387.43301    
 405080000   19.673564      43.481949      355.78763    
 405090000   23.77211       32.326111      264.50586    
 405100000   22.893754      40.43991       330.89638    
 405110000   25.2814        33.813938      276.67989    
 405120000   26.107073      33.098846      270.82871    
 405130000   15.368559      37.528452      307.07361    
 405140000   8.710123       30.917877      252.9831     
 405150000   16.096964      35.435926      289.95168    
 405160000   15.538504      42.365759      346.6545     
 405170000   21.845683      41.76269       341.71993    
 405180000   22.576832      40.334494      330.03382    
 405190000   27.472179      46.90105       383.76415    
 405200000   29.341771      39.145512      320.30508    
 405210000   21.885547      48.260722      394.88956    
 405220000   23.628116      44.221046      361.83524    
 405230000   19.32707       36.539629      298.98264    
 405240000   28.00158       34.809162      284.82323    
 405250000   31.510884      28.41771       232.52567    
 405260000   20.142626      44.22864       361.89737    
 405270000   20.65638       42.834403      350.48914    
 405280000   12.08816       49.514775      405.15076    
 405290000   12.512981      36.100453      295.38912    
 405300000   10.51886       43.601642      356.76701    
 405310000   17.725072      42.456484      347.39685    
 405320000   23.094051      40.856501      334.30511    
 405330000   16.373106      42.261648      345.80261    
 405340000   16.890128      31.912318      261.12004    
 405350000   2.3745354      37.160355      304.06169    
 405360000   2.1945034      34.081303      278.86758    
 405370000   6.218304       31.338524      256.42501    
 405380000  -4.6970897      30.175115      246.90551    
 405390000  -6.1463016      37.675425      308.2762     
 405400000   1.1845098      36.442223      298.18562    
 405410000   6.5326295      40.911609      334.75602    
 405420000   1.486381       47.585547      389.36499    
 405430000   3.4792307      40.937805      334.97037    
 405440000   3.3588217      31.493557      257.69355    
 405450000   3.2888996      38.446698      314.58708    
 405460000   12.169708      31.89181       260.95223    
 405470000  -3.5865422      34.521708      282.47116    
 405480000   1.3128324      32.092126      262.5913     
 405490000   3.2977063      32.178487      263.29794    
 405500000   8.7859605      37.604195      307.69337    
 405510000   7.1101142      36.870914      301.69336    
 405520000  -0.054149593    39.67827       324.66433    
 405530000   0.20311523     34.558286      282.77046    
 405540000   7.4179672      30.531608      249.82248    
 405550000   0.67477196     28.07878       229.75241    
 405560000  -1.0345479      28.890733      236.39615    
 405570000  -4.2577506      39.508585      323.27589    
 405580000   4.6228502      40.552083      331.81423    
 405590000   1.4817386      34.471636      282.06145    
 405600000   6.9398085      39.381182      322.23342    
 405610000   11.382222      37.584712      307.53395    
 405620000   6.1679836      36.28566       296.90456    
 405630000  -0.7591328      44.835869      366.86598    
 405640000   5.1419442      31.625358      258.77201    
 405650000  -6.5359352      39.187562      320.64915    
 405660000  -5.1125988      35.098924      287.19419    
 405670000   6.4763274      35.378696      289.4834     
 405680000   7.7356444      48.698384      398.4707     
 405690000   10.705267      31.733698      259.65849    
 405700000   15.272135      33.606606      274.98342    
 405710000   7.9413939      40.239228      329.25432    
 405720000  -5.1652317      40.805872      333.89084    
 405730000   4.2474767      35.50991       290.55705    
 405740000   11.332008      35.08554       287.08468    
 405750000   5.7748334      48.583201      397.52823    
 405760000   11.398595      40.872631      334.43709    
 405770000   0.53947293     48.991636      400.87021    
 405780000  -0.11798918     35.583642      291.16035    
 405790000  -0.08842958     31.221688      255.46901    
 405800000  -7.3796136      34.100487      279.02456    
 405810000   2.256049       40.440102      330.89795    
 405820000  -0.12040419     34.797817      284.7304     
 405830000   7.2177973      36.567878      299.21378    
 405840000   12.199963      39.040073      319.44233    
 405850000   4.84803        41.771694      341.7936     
 405860000  -0.9358151      34.04957       278.60793    
 405870000   0.073278872    40.420891      330.74076    
 405880000  -8.0438479      36.15778       295.85819    
 405890000  -0.96698268     36.688305      300.19917    
 405900000   0.1403375      35.479951      290.31191    
 405910000  -1.9164836      40.618683      332.35918    
 405920000   1.6723383      45.046105      368.58621    
 405930000   8.0295102      32.21591       263.60415    
 405940000   2.8686349      39.070011      319.6873     
 405950000  -7.6252183      41.917781      342.98895    
 405960000  -7.7431998      46.140771      377.54323    
 405970000   2.970395       36.806971      301.17014    
 405980000  -0.084982512    34.003557      278.23143    
 405990000   6.0072813      35.478626      290.30106    
 406000000  -1.2644873      41.879861      342.67867    
 406010000   9.2126792      34.303566      280.68623    
 406020000  -1.5156478      45.634447      373.40027    
 406030000   15.059995      42.080118      344.31726    
 406040000   6.0724689      33.796669      276.53859    
 406050000  -3.0654341      43.854163      358.83324    
 406060000  -4.1101983      37.849666      309.70191    
 406070000  -1.439251       33.737048      276.05074    
 406080000  -5.635311       35.802245      292.94906    
 406090000  -2.7381968      33.88041       277.22379    
 406100000  -7.075615       28.988949      237.1998     
 406110000  -9.6620943      38.512724      315.12734    
 406120000  -0.99894964     39.571248      323.78862    
 406130000  -1.2673037      41.968916      343.40735    
 406140000   11.53999       36.844585      301.47792    
 406150000   4.1507305      29.335179      240.0328     
 406160000  -1.4621099      33.039927      270.34661    
 406170000  -3.3245609      31.548749      258.14516    
 406180000  -3.6967955      38.202562      312.58946    
 406190000  -8.2501417      39.712087      324.94103    
 406200000   0.90859041     40.193863      328.88313    
 406210000   6.0735006      32.252938      263.90713    
 406220000   7.427956       31.710559      259.46916    
 406230000   3.1571743      41.631737      340.64841    
 406240000   0.28962233     31.363228      256.62715    
 406250000   4.6424128      33.832264      276.82984    
 406260000   3.0716039      43.965668      359.74563    
 406270000   3.8260232      36.214346      296.32104    
 406280000   5.2177319      35.822585      293.11549    
 406290000   1.1704041      47.891698      391.87005    
 406300000  -1.8981988      31.35081       256.52554    
 406310000  -5.5530043      36.029071      294.80504    
 406320000  -8.3828979      36.581466      299.32497    
 406330000   2.0239881      36.549467      299.06314    
 406340000  -3.0462935      43.294875      354.25691    
 406350000   3.300354       36.817915      301.25969    
 406360000  -12.777946      44.496008      364.08509    
 406370000  -5.8245525      32.50435       265.96429    
 406380000  -8.0911526      33.873723      277.16908    
 406390000  -5.3031721      35.933747      294.02506    
 406400000   3.119346       38.131107      312.00479    
 406410000  -2.0081923      41.19151       337.04629    
 406420000   1.4883771      40.63863       332.5224     
 406430000  -8.9026284      34.317142      280.79732    
 406440000  -7.3768682      35.22467       288.22309    
 406450000   0.74839487     34.224521      280.03945    
 406460000  -3.7788207      35.876086      293.55325    
 406470000  -2.5704558      30.700459      251.20409    
 406480000   0.19075539     37.833316      309.56814    
 406490000   1.3083299      38.526878      315.24315    
 406500000   2.6028733      40.017355      327.43886    
 406510000  -5.3951222      33.488554      274.01746    
 406520000  -1.4874151      38.265828      313.10713    
 406530000   1.4590939      42.839667      350.53221    
 406540000   2.3598886      42.239189      345.61884    
 406550000   0.93335878     40.76714       333.57391    
 406560000   6.8923181      42.816193      350.34013    
 406570000   8.6822134      34.211334      279.93155    
 406580000   3.0032404      45.601303      373.12908    
 406590000   1.9681945      29.555919      241.83898    
 406600000   6.0873821      29.856908      244.3018     
 406610000   3.8418732      35.184242      287.8923     
 406620000   5.0708748      38.853097      317.91241    
 406630000   4.4113643      28.804356      235.68938    
 406640000  -2.885354       38.052892      311.3648     
 406650000  -5.9444276      39.72578       325.05307    
 406660000  -4.1141896      38.246107      312.94576    
 406670000  -3.0448682      31.901776      261.03377    
 406680000  -8.3363398      35.985341      294.44723    
 406690000  -3.7283143      38.481457      314.87149    
 406700000   0.45117402     35.948409      294.14503    
 406710000  -6.6157431      45.848688      375.15329    
 406720000   3.0279219      36.844741      301.4792     
 406730000  -5.2128199      36.77304       300.89251    
 406740000   0.97289397     35.590991      291.22049    
 406750000  -8.1214324      42.657087      349.03826    
 406760000   0.95838436     44.364431      363.00847    
 406770000   0.55064937     34.896189      285.53533    
 406780000  -0.2221459      34.48955       282.20803    
 406790000   12.28433       34.000394      278.20555    
 406800000   4.4249015      42.119333      344.63813    
 406810000  -1.4212408      37.573689      307.44376    
 406820000   2.6471897      28.859061      236.137      
 406830000  -5.872856       33.730218      275.99486    
 406840000  -0.13325797     30.872063      252.60823    
 406850000   3.4850985      32.658679      267.22707    
 406860000   4.1076737      34.303879      280.68879    
 406870000   9.1697969      31.140632      254.80577    
 406880000   7.0596816      26.628773      217.88784    
 406890000   12.287248      26.058735      213.22355    
 406900000   5.3656863      39.411361      322.48036    
 406910000   9.7187722      41.750453      341.6198     
 406920000   20.381407      43.114668      352.78238    
 406930000   8.4088081      39.61586       324.15366    
 406940000   4.6431347      32.885714      269.08477    
 406950000   4.6581202      41.322736      338.12004    
 406960000   10.626381      29.734114      243.29705    
 406970000   15.118952      40.646284      332.58502    
 406980000   13.726193      40.545862      331.76333    
 406990000   15.166236      30.172033      246.88029    
 407000000   4.3635505      37.399905      306.02178    
 407010000  -5.632687       45.997062      376.36734    
 407020000   4.5193291      33.103352      270.86558    
 407030000   0.14532452     35.171545      287.7884     
 407040000  -10.596176      30.749581      251.60603    
 407050000  -3.6661805      36.012861      294.6724     
 407060000  -3.0050322      38.640521      316.17303    
 407070000  -9.9255212      38.682516      316.51664    
 407080000  -3.2344353      38.606541      315.89499    
 407090000  -1.4446197      33.181769      271.50722    
 407100000   6.3445532      33.930337      277.63232    
 407110000  -0.84142065     40.41702       330.70909    
 407120000  -10.175031      34.847747      285.13895    
 407130000  -10.603915      29.084537      237.98194    
 407140000  -7.0870293      31.758699      259.86306    
 407150000  -7.3335468      36.910457      302.01692    
 407160000  -6.8766162      35.02618       286.59897    
 407170000  -13.66969       28.830054      235.89965    
 407180000  -0.74845448     23.532069      192.54931    
 407190000  -2.437667       27.632854      226.10366    
 407200000  -4.9512159      36.23266       296.47089    
 407210000  -1.7050094      32.945902      269.57726    
 407220000   2.364451       41.42963       338.99469    
 407230000   11.906051      41.06905       336.04427    
 407240000   1.429647       49.816487      407.61949    
 407250000   10.337211      43.469025      355.68188    
 407260000   6.3518434      38.929703      318.53923    
 407270000  -2.7624795      42.456845      347.3998     
 407280000   12.320388      35.114925      287.32511    
 407290000  -0.54229475     37.793903      309.24564    
 407300000  -6.2251264      33.768751      276.31015    
 407310000  -1.1040579      36.387708      297.73956    
 407320000  -0.93213182     37.327984      305.4333     
 407330000  -4.4911843      32.302631      264.31374    
 407340000  -10.019812      33.934313      277.66485    
 407350000  -9.9934692      48.888626      400.02734    
 407360000   0.47603236     36.559617      299.14619    
 407370000   0.82456497     39.021116      319.28722    
 407380000   12.15161       37.403234      306.04902    
 407390000   0.63284075     45.159685      369.51558    
 407400000   3.758582       43.70799       357.63719    
 407410000   2.8452185      32.118473      262.80688    
 407420000   9.0863159      31.221997      255.47154    
 407430000   2.2155895      51.7364        423.32903    
 407440000   6.8205702      41.225049      337.32072    
 407450000   6.7394272      36.163971      295.90885    
 407460000   0.28586939     34.895226      285.52745    
 407470000   0.09423165     45.147113      369.41271    
 407480000   1.86675        32.879417      269.03325    
 407490000  -0.69603729     36.031731      294.82681    
 407500000   0.53121324     36.597586      299.45687    
 407510000   3.6179685      38.107208      311.80924    
 407520000   1.8663698      40.439613      330.89395    
 407530000   2.3115816      36.717921      300.4415     
 407540000   13.030322      44.024279      360.22521    
 407550000   9.9659048      39.140227      320.26183    
 407560000   1.4650929      37.606639      307.71337    
 407570000  -2.9924072      29.405619      240.60917    
 407580000   1.3431265      33.608032      274.99508    
 407590000  -0.13477734     38.282781      313.24585    
 407600000   2.1274633      35.423405      289.84923    
 407610000  -0.3393508      32.087677      262.5549     
 407620000   0.32326659     35.652077      291.72032    
 407630000   2.5965568      30.511079      249.6545     
 407640000   1.8684733      38.666367      316.38451    
 407650000  -2.133606       36.472454      298.43298    
 407660000  -3.9340683      40.665284      332.74049    
 407670000   0.13347464     30.478843      249.39073    
 407680000   6.1987237      37.209579      304.46446    
 407690000   5.4571731      41.045125      335.84851    
 407700000  -3.7513524      45.093263      368.97208    
 407710000  -8.5369109      30.932671      253.10415    
 407720000  -1.2782308      37.459497      306.50939    
 407730000  -1.8661937      38.45115       314.62351    
 407740000  -9.5841404      43.730297      357.81972    
 407750000  -1.9606225      32.710054      267.64744    
 407760000  -1.3355759      41.685501      341.08834    
 407770000   9.4835065      37.859791      309.78476    
 407780000  -3.5319015      42.924808      351.22887    
 407790000   8.9983695      40.724399      333.22419    
 407800000   0.34792707     41.21306       337.22262    
 407810000  -1.0229541      40.508702      331.45927    
 407820000   5.4645958      37.951068      310.53163    
 407830000   0.61119615     35.273317      288.62114    
 407840000   4.2728153      33.781475      276.41427    
 407850000  -0.81710125     36.761575      300.7987     
 407860000   6.5320644      45.574175      372.9071     
 407870000   15.440595      47.745952      390.6775     
 407880000   14.262184      54.150024      443.07832    
 407890000   15.849215      47.278798      386.85505    
 407900000   8.9235275      39.112624      320.03597    
 407910000   13.169698      42.918948      351.18092    
 407920000   9.7254766      36.722528      300.4792     
 407930000   1.3666245      43.28804       354.20099    
 407940000   3.4942739      44.781667      366.42247    
 407950000   0.50088831     33.466142      273.83407    
 407960000   2.0755439      33.052515      270.44961    
 407970000  -8.4105796      38.570661      315.6014     
 407980000  -5.968338       34.291698      280.58912    
 407990000   1.2698625      36.509342      298.73482    
 408000000  -8.2262624      45.617102      373.25835    
Loop time of 93.1412 on 1 procs for 4000000 steps with 42 atoms

Performance: 37104.960 ns/day, 0.001 hours/ns, 42945.555 timesteps/s, 1.804 Matom-step/s
99.0% CPU use with 1 MPI tasks x 1 OpenMP threads

MPI task timing breakdown:
Section |  min time  |  avg time  |  max time  |%varavg| %total
---------------------------------------------------------------
Pair    | 70.698     | 70.698     | 70.698     |   0.0 | 75.90
Bond    | 12.006     | 12.006     | 12.006     |   0.0 | 12.89
Neigh   | 1.8213     | 1.8213     | 1.8213     |   0.0 |  1.96
Comm    | 2.5        | 2.5        | 2.5        |   0.0 |  2.68
Output  | 0.11205    | 0.11205    | 0.11205    |   0.0 |  0.12
Modify  | 5.2493     | 5.2493     | 5.2493     |   0.0 |  5.64
Other   |            | 0.7549     |            |       |  0.81

Nlocal:             42 ave          42 max          42 min
Histogram: 1 0 0 0 0 0 0 0 0 0
Nghost:              9 ave           9 max           9 min
Histogram: 1 0 0 0 0 0 0 0 0 0
Neighs:            207 ave         207 max         207 min
Histogram: 1 0 0 0 0 0 0 0 0 0

Total # of neighbors = 207
Ave neighs/atom = 4.9285714
Ave special neighs/atom = 5.4285714
Neighbor list builds = 9062
Dangerous builds = 0
System init for write_data ...
Generated 0 of 6 mixed pair_coeff terms from geometric mixing rule
Total wall time: 1:41:10
