LAMMPS (29 Aug 2024)
  using 1 OpenMP thread(s) per MPI task
  using 1 OpenMP thread(s) per MPI task
Reading data file ...
  orthogonal box = (-500.6 -500.6 -500.6) to (500.6 500.6 500.6)
  1 by 1 by 1 MPI processor grid
  reading atoms ...
  47 atoms
  scanning bonds ...
  1 = max bonds/atom
  scanning angles ...
  1 = max angles/atom
  orthogonal box = (-500.6 -500.6 -500.6) to (500.6 500.6 500.6)
  1 by 1 by 1 MPI processor grid
  reading bonds ...
  46 bonds
  reading angles ...
  45 angles
Finding 1-2 1-3 1-4 neighbors ...
  special bond factors lj:    0        0        0       
  special bond factors coul:  0        0        0       
     2 = max # of 1-2 neighbors
     2 = max # of 1-3 neighbors
     4 = max # of 1-4 neighbors
     6 = max # of special neighbors
  special bonds CPU = 0.000 seconds
  read_data CPU = 0.025 seconds
Finding 1-2 1-3 1-4 neighbors ...
  special bond factors lj:    0        0        1       
  special bond factors coul:  0        0        0       
     2 = max # of 1-2 neighbors
     2 = max # of 1-3 neighbors
     4 = max # of 1-4 neighbors
     6 = max # of special neighbors
  special bonds CPU = 0.000 seconds

CITE-CITE-CITE-CITE-CITE-CITE-CITE-CITE-CITE-CITE-CITE-CITE-CITE

Your simulation uses code contributions which should be cited:
- Type Label Framework: https://doi.org/10.1021/acs.jpcb.3c08419
The log file lists these citations in BibTeX format.

CITE-CITE-CITE-CITE-CITE-CITE-CITE-CITE-CITE-CITE-CITE-CITE-CITE

Generated 0 of 6 mixed pair_coeff terms from geometric mixing rule
Neighbor list info ...
  update: every = 10 steps, delay = 0 steps, check = yes
  max neighbors/atom: 2000, page size: 100000
  master list distance cutoff = 33
  ghost atom cutoff = 33
  binsize = 16.5, bins = 61 61 61
  2 neighbor lists, perpetual/occasional/extra = 2 0 0
  (1) pair lj/cut, perpetual, trim from (2)
      attributes: half, newton on, cut 25
      pair build: trim
      stencil: none
      bin: none
  (2) pair base/rna, perpetual
      attributes: half, newton on
      pair build: half/bin/newton
      stencil: half/bin/3d
      bin: standard
Setting up Verlet run ...
  Unit style    : real
  Current step  : 0
  Time step     : 10
Per MPI rank memory allocation (min/avg/max) = 8.368 | 8.368 | 8.368 Mbytes
   Step         PotEng         KinEng          Temp     
         0   16315.246      0              0            
     10000   1249.2198      3839.803       28003.79     
     20000   563.48882      833.49068      6078.6706    
     30000   172.53121      259.3553       1891.4854    
     40000   69.796476      109.10217      795.68516    
     50000   41.472643      66.014172      481.44319    
     60000   40.731911      47.61317       347.24417    
     70000   29.551806      43.768014      319.20134    
     80000   10.273073      40.207263      293.23269    
     90000   10.92804       41.236992      300.74252    
    100000  -4.1896645      49.574458      361.5479     
    110000  -5.2802456      45.51649       331.95303    
    120000   2.568376       40.733464      297.07029    
    130000   6.3940784      44.963185      327.91776    
    140000   5.583387       40.710264      296.90109    
    150000   5.7486482      42.73896       311.69642    
    160000  -1.4247243      46.819274      341.45426    
    170000  -1.7983841      40.452167      295.01878    
    180000  -7.1146319      46.541271      339.42678    
    190000  -5.8824764      37.94197       276.71184    
    200000   0.54089208     40.809098      297.62189    
    210000  -5.1017272      44.204234      322.3827     
    220000   0.43323923     40.532054      295.60139    
    230000   2.1928017      44.323286      323.25096    
    240000  -3.7234839      44.829881      326.94557    
    250000  -7.870716       44.671366      325.78951    
    260000  -5.8881353      41.370095      301.71325    
    270000  -0.40015362     39.465188      287.82071    
    280000  -0.25383137     41.2807        301.06129    
    290000  -5.4666548      37.57358       274.02516    
    300000  -7.6962396      43.084803      314.21867    
    310000  -16.609157      45.479104      331.68037    
    320000  -22.266854      36.085326      263.17129    
    330000  -17.985275      47.009669      342.84282    
    340000  -28.065381      49.489667      360.92952    
    350000  -17.739104      41.755531      304.52425    
    360000  -13.863845      41.978806      306.1526     
    370000  -13.502996      34.546079      251.94551    
    380000  -29.172526      41.564131      303.12836    
    390000  -19.256822      37.78926       275.59812    
    400000  -19.524623      43.849033      319.79222    
    410000   4.4591087      38.056946      277.55036    
    420000  -7.8212532      40.109702      292.52117    
    430000  -20.343693      49.747195      362.80767    
    440000  -17.915501      46.802497      341.33191    
    450000  -26.016292      42.865531      312.61951    
    460000  -27.573275      37.246827      271.64215    
    470000  -25.874165      36.23399       264.25549    
    480000  -29.401529      36.787645      268.29332    
    490000  -16.856829      37.730361      275.16857    
    500000  -10.174695      35.369892      257.9536     
    510000  -27.053301      44.361214      323.52756    
    520000  -20.006103      44.933676      327.70255    
    530000  -17.530246      41.181828      300.34022    
    540000  -22.547273      48.168738      351.29594    
    550000  -26.14241       44.34894       323.43805    
    560000  -28.497516      45.00494       328.22228    
    570000  -22.060903      37.401558      272.7706     
    580000  -17.856853      42.680673      311.27134    
    590000  -19.04257       41.073106      299.5473     
    600000  -26.539476      42.51214       310.04222    
    610000  -27.735556      39.522716      288.24026    
    620000  -14.946374      37.948619      276.76033    
    630000  -7.5086178      41.937605      305.85212    
    640000  -11.265326      33.980525      247.82091    
    650000  -22.288539      47.089736      343.42675    
    660000  -28.67839       46.280463      337.5247     
    670000  -34.716622      42.197435      307.74707    
    680000  -25.500406      26.319599      191.94957    
    690000  -34.58929       34.990477      255.18652    
    700000  -22.31827       36.439456      265.75396    
    710000  -22.413371      42.142797      307.34859    
    720000  -16.461585      43.441465      316.81981    
    730000  -15.334293      33.124164      241.57545    
    740000  -21.157783      33.952097      247.61358    
    750000  -22.233217      41.50842       302.72206    
    760000  -14.243333      41.395106      301.89566    
    770000  -23.213251      37.038238      270.1209     
    780000  -21.590004      38.453539      280.44273    
    790000  -30.327699      48.249341      351.88378    
    800000  -23.150444      41.106974      299.7943     
    810000  -36.829497      49.542374      361.31391    
    820000  -24.409804      43.227958      315.2627     
    830000  -18.304353      43.019228      313.74043    
    840000  -22.857233      51.972107      379.03402    
    850000  -20.845016      42.202082      307.78095    
    860000  -12.580131      37.92751       276.60639    
    870000  -7.9778997      47.176304      344.0581     
    880000  -8.8167349      44.616914      325.39239    
    890000  -4.4888906      45.851498      334.39625    
    900000  -6.5019998      42.544099      310.2753     
    910000  -2.6224367      45.176854      329.47605    
    920000  -6.4980914      48.295212      352.21832    
    930000  -11.324242      45.567718      332.32663    
    940000  -10.976411      45.026343      328.37837    
    950000  -10.807177      50.764346      370.22579    
    960000  -21.510687      40.324086      294.08468    
    970000  -29.380736      34.785295      253.69012    
    980000  -35.948482      40.279376      293.75861    
    990000  -36.225685      43.205588      315.09955    
   1000000  -28.043119      43.514645      317.35351    
   1010000  -16.119764      43.387487      316.42615    
   1020000  -14.23782       51.148108      373.02457    
   1030000  -12.894699      37.627823      274.42076    
   1040000  -15.524932      38.754407      282.63696    
   1050000  -19.534686      37.12999       270.79005    
   1060000  -28.694232      43.786286      319.3346     
   1070000  -23.710405      47.178409      344.07345    
   1080000  -32.245407      51.183995      373.2863     
   1090000  -21.557595      34.605499      252.37886    
   1100000  -24.302568      43.203032      315.08091    
   1110000  -26.353602      46.141927      336.51435    
   1120000  -18.593123      41.446007      302.26688    
   1130000  -22.447802      34.254883      249.82181    
   1140000  -27.418718      38.612617      281.60289    
   1150000  -29.332615      40.10821       292.51029    
   1160000  -20.025238      43.391046      316.4521     
   1170000  -19.925796      49.501911      361.01881    
   1180000  -21.987361      47.570392      346.93219    
   1190000  -22.65383       40.268662      293.68047    
   1200000  -24.94595       37.467151      273.24897    
   1210000  -20.212402      47.403421      345.71447    
   1220000  -12.336874      41.111783      299.82938    
   1230000  -10.381896      42.299232      308.48947    
   1240000  -14.641805      35.871908      261.61482    
   1250000  -25.297847      43.539947      317.53804    
   1260000  -14.750115      36.741486      267.95667    
   1270000  -26.270349      48.888724      356.54682    
   1280000  -20.109411      36.531186      266.42295    
   1290000  -29.054723      42.908373      312.93195    
   1300000  -16.396316      39.105983      285.20102    
   1310000  -27.394764      38.079661      277.71602    
   1320000  -27.17811       31.281598      228.13756    
   1330000  -31.532714      41.8771        305.41085    
   1340000  -20.845915      37.352823      272.41518    
   1350000  -12.799352      30.589806      223.0923     
   1360000  -31.078119      40.49852       295.35683    
   1370000  -28.3112        45.140806      329.21315    
   1380000  -17.658883      43.64801       318.32615    
   1390000  -31.886126      43.86633       319.91837    
   1400000  -28.171906      39.783926      290.14528    
   1410000  -14.511471      41.13627       300.00796    
   1420000  -19.55375       40.264652      293.65122    
   1430000  -21.168161      48.339195      352.53909    
   1440000  -17.814381      38.236694      278.86127    
   1450000  -24.110191      42.425784      309.41242    
   1460000  -21.707159      40.716369      296.94561    
   1470000  -22.106227      44.404091      323.84027    
   1480000  -15.29626       39.281637      286.48207    
   1490000  -7.9461137      43.577501      317.81193    
   1500000  -16.376709      46.772912      341.11615    
   1510000  -9.7465621      49.915091      364.03214    
   1520000  -13.490643      43.085045      314.22043    
   1530000  -19.027136      38.00746       277.18946    
   1540000  -27.989124      44.722809      326.16469    
   1550000  -19.510728      45.694971      333.25469    
   1560000  -18.083238      42.734893      311.66676    
   1570000  -3.8522656      43.577366      317.81094    
   1580000  -4.1769689      34.923207      254.69592    
   1590000  -26.231381      37.606119      274.26247    
   1600000  -25.123159      41.787671      304.75865    
   1610000  -29.114901      40.502684      295.3872     
   1620000  -27.145475      43.898222      320.15095    
   1630000  -26.135623      36.967799      269.60718    
   1640000  -8.3984726      43.029354      313.81427    
   1650000  -9.8390101      40.377852      294.4768     
   1660000  -22.579431      38.614778      281.61865    
   1670000  -19.695451      36.973818      269.65108    
   1680000  -29.196899      42.484134      309.83797    
   1690000  -26.371081      48.125483      350.98048    
   1700000  -23.342772      49.675775      362.28681    
   1710000  -27.059068      40.952392      298.66693    
   1720000  -24.86941       44.203226      322.37535    
   1730000  -36.908954      37.691165      274.88271    
   1740000  -33.012319      34.707643      253.1238     
   1750000  -36.186638      43.19227       315.00243    
   1760000  -25.209881      49.735222      362.72036    
   1770000  -25.644765      41.64389       303.71005    
   1780000  -34.854555      52.890044      385.72856    
   1790000  -18.591435      44.580652      325.12793    
   1800000  -27.334925      38.363561      279.78651    
   1810000  -36.131883      37.940089      276.69812    
   1820000  -28.416645      29.75658       217.01557    
   1830000  -19.600529      35.52595       259.09174    
   1840000  -22.987812      40.648612      296.45146    
   1850000  -18.606472      41.720458      304.26846    
   1860000  -20.613214      44.936817      327.72546    
   1870000  -9.4658235      40.363447      294.37174    
   1880000  -26.892609      47.974367      349.87839    
   1890000  -26.405658      42.65104       311.05522    
   1900000  -20.968808      36.744159      267.97617    
   1910000  -21.806748      38.828315      283.17598    
   1920000  -16.367247      41.599789      303.38842    
   1930000  -21.848576      38.764299      282.70911    
   1940000  -31.681806      49.423103      360.44406    
   1950000  -31.14479       43.881135      320.02634    
   1960000  -17.681609      44.085598      321.51749    
   1970000  -15.676303      46.604741      339.88967    
   1980000  -15.105314      43.256134      315.46819    
   1990000  -17.794656      40.784934      297.44565    
   2000000  -18.862688      39.542739      288.38629    
   2010000  -27.082576      37.499622      273.48579    
   2020000  -20.964572      32.279446      235.41489    
   2030000  -25.235745      34.873392      254.33262    
   2040000  -26.451938      47.905243      349.37427    
   2050000  -21.481931      43.915071      320.27383    
   2060000  -24.687121      33.656955      245.46111    
   2070000  -34.543002      40.563683      295.83206    
   2080000  -33.918297      33.708652      245.83813    
   2090000  -32.735875      36.151856      263.65649    
   2100000  -19.351926      37.900489      276.40932    
   2110000  -21.236619      44.100461      321.62588    
   2120000  -17.800047      39.460669      287.78776    
   2130000  -21.560004      48.030302      350.28632    
   2140000  -21.297661      44.485275      324.43235    
   2150000  -16.694265      43.892889      320.11206    
   2160000  -15.750416      52.106926      380.01725    
   2170000  -30.679925      49.749009      362.8209     
   2180000  -16.271493      45.006294      328.23215    
   2190000  -13.101538      37.982958      277.01077    
   2200000  -14.691238      42.798728      312.13231    
   2210000  -14.547894      33.594351      245.00453    
   2220000  -7.3583584      40.015611      291.83496    
   2230000  -23.349777      41.046243      299.35139    
   2240000  -27.53294       36.98007       269.69667    
   2250000  -30.666508      41.468352      302.42984    
   2260000  -21.038253      37.087438      270.47971    
   2270000  -26.977862      38.197111      278.57259    
   2280000  -23.904662      36.574111      266.73601    
   2290000  -20.140536      34.344304      250.47396    
   2300000  -8.4480088      40.98737       298.92202    
   2310000  -8.9435227      37.00634       269.88827    
   2320000  -20.59876       48.654769      354.84058    
   2330000  -16.168991      42.182722      307.63976    
   2340000  -25.008617      53.633976      391.15407    
   2350000  -15.801311      41.414345      302.03597    
   2360000  -10.612405      45.194745      329.60653    
   2370000  -20.602882      46.530648      339.34931    
   2380000  -21.369909      47.144397      343.82539    
   2390000  -20.712807      44.000993      320.90046    
   2400000  -13.49509       47.249921      344.59499    
   2410000   1.7403681      38.953682      284.09029    
   2420000  -6.4317748      48.434443      353.23374    
   2430000  -21.520167      42.452919      309.61032    
   2440000  -14.482961      49.389026      360.19553    
   2450000  -8.5919884      41.771485      304.6406     
   2460000  -16.435913      50.407528      367.6235     
   2470000  -15.492937      48.651765      354.81867    
   2480000  -8.183124       41.590124      303.31793    
   2490000  -17.839554      51.736115      377.31292    
   2500000  -19.346122      54.539552      397.75847    
   2510000  -16.024598      49.339386      359.83351    
   2520000  -16.639683      47.104618      343.53529    
   2530000  -11.534873      39.660914      289.24815    
   2540000  -11.753035      39.068407      284.92698    
   2550000  -17.531861      44.038655      321.17513    
   2560000  -23.942213      41.322849      301.36868    
   2570000  -18.764204      40.273131      293.71306    
   2580000  -12.28231       35.091685      255.92463    
   2590000  -23.318347      33.681486      245.64001    
   2600000  -37.776493      41.793412      304.80051    
   2610000  -29.58214       56.828547      414.45217    
   2620000  -18.241493      46.432955      338.63683    
   2630000  -12.476679      40.634659      296.3497     
   2640000  -16.459346      48.917129      356.75398    
   2650000  -17.957632      35.462267      258.6273     
   2660000  -13.602571      39.980553      291.57928    
   2670000  -28.457772      47.425         345.87184    
   2680000  -28.190479      42.82395       312.31626    
   2690000  -26.535213      48.36409       352.72065    
   2700000  -16.652218      46.438872      338.67998    
   2710000  -24.759149      45.572498      332.36149    
   2720000  -14.386692      46.257762      337.35914    
   2730000  -17.350737      51.155794      373.08062    
   2740000  -19.109081      39.688159      289.44684    
   2750000  -18.640559      45.423607      331.27563    
   2760000  -20.688629      43.911795      320.24994    
   2770000  -21.675426      44.274761      322.89706    
   2780000  -25.40562       45.43172       331.3348     
   2790000  -16.631442      35.189513      256.63809    
   2800000  -27.458184      41.514215      302.76432    
   2810000  -23.920113      44.886126      327.35576    
   2820000  -21.432272      40.169546      292.95761    
   2830000  -13.761339      34.171004      249.21008    
   2840000  -19.600179      45.777837      333.85904    
   2850000  -21.290988      43.021405      313.7563     
   2860000  -18.142331      52.705591      384.38334    
   2870000  -25.532542      45.646139      332.89856    
   2880000  -23.333832      34.350778      250.52117    
   2890000  -24.065703      41.309201      301.26915    
   2900000  -19.790403      39.360953      287.06052    
   2910000  -27.50107       39.113809      285.2581     
   2920000  -24.435834      38.287729      279.23347    
   2930000  -22.995754      33.29038       242.78766    
   2940000  -25.737491      38.485287      280.67427    
   2950000  -20.792154      41.613485      303.4883     
   2960000  -22.294554      39.785583      290.15736    
   2970000  -14.365731      40.035099      291.97709    
   2980000  -19.48541       45.636492      332.8282     
   2990000  -24.854573      44.493783      324.4944     
   3000000  -33.09472       53.327471      388.91873    
   3010000  -28.555909      42.252148      308.14609    
   3020000  -16.464166      34.701802      253.08121    
   3030000  -21.9645        38.310046      279.39623    
   3040000  -24.498217      36.818781      268.52039    
   3050000  -21.848944      33.387238      243.49406    
   3060000  -22.286703      38.951422      284.0738     
   3070000  -17.753702      46.568243      339.62349    
   3080000  -8.2141551      39.446287      287.68287    
   3090000  -17.034742      43.097314      314.3099     
   3100000  -25.760219      46.795371      341.27994    
   3110000  -22.007457      38.978505      284.27132    
   3120000  -36.564429      42.849555      312.503      
   3130000  -22.77025       40.570752      295.88362    
   3140000  -31.959169      36.259065      264.43837    
   3150000  -15.940047      37.653835      274.61046    
   3160000  -17.070916      37.465239      273.23503    
   3170000  -17.334814      43.512326      317.3366     
   3180000  -19.253515      49.850274      363.55943    
   3190000  -7.9813179      37.00786       269.89935    
   3200000  -13.235781      47.146292      343.83921    
   3210000  -16.71055       37.789698      275.60132    
   3220000  -24.588509      44.387269      323.71758    
   3230000  -23.288901      37.747384      275.29272    
   3240000  -26.607776      41.073183      299.54786    
   3250000  -12.825339      36.291399      264.67418    
   3260000  -24.264358      39.05079       284.79849    
   3270000  -16.489482      37.760908      275.39135    
   3280000  -32.118498      37.023424      270.01286    
   3290000  -23.392356      37.948361      276.75845    
   3300000  -29.442053      45.723808      333.465      
   3310000  -23.876638      44.912939      327.55131    
   3320000  -20.316749      36.214693      264.11476    
   3330000  -28.789112      43.009711      313.67102    
   3340000  -26.565742      36.424108      265.64203    
   3350000  -27.354151      39.015048      284.53783    
   3360000  -16.098804      49.236962      359.08653    
   3370000  -16.229009      40.3699        294.4188     
   3380000  -8.1233857      45.576175      332.38831    
   3390000  -12.584021      44.176037      322.17707    
   3400000  -25.622993      45.3297        330.59076    
   3410000  -21.279864      39.371384      287.13659    
   3420000  -28.785771      52.173345      380.50165    
   3430000  -23.577962      33.549344      244.6763     
   3440000  -23.62449       42.035878      306.56882    
   3450000  -15.905726      42.615292      310.79451    
   3460000  -31.154239      43.308966      315.85349    
   3470000  -25.048506      45.871543      334.54244    
   3480000  -18.287367      36.446545      265.80567    
   3490000  -27.355775      40.694597      296.78682    
   3500000  -26.752975      43.773807      319.24359    
   3510000  -29.311008      38.615704      281.6254     
   3520000  -26.751548      39.34709       286.95942    
   3530000  -30.566911      47.000335      342.77475    
   3540000  -13.913767      35.58528       259.52444    
   3550000  -31.538938      33.546165      244.65311    
   3560000  -35.017106      36.888546      269.02919    
   3570000  -22.976934      34.506573      251.65739    
   3580000  -31.047423      29.309059      213.75178    
   3590000  -24.12996       39.153019      285.54406    
   3600000  -11.967028      32.452716      236.67856    
   3610000  -20.128605      54.7629        399.38735    
   3620000  -10.552988      42.062045      306.75966    
   3630000  -21.768127      35.346871      257.78571    
   3640000  -11.073803      35.531353      259.13115    
   3650000  -8.4012142      40.940285      298.57864    
   3660000  -12.19042       46.762637      341.04121    
   3670000  -7.8597026      36.716971      267.77789    
   3680000  -19.490902      45.281821      330.24158    
   3690000  -9.8246199      38.623352      281.68118    
   3700000  -25.718302      61.29636       447.03606    
   3710000  -19.468977      41.478846      302.50637    
   3720000  -21.556752      46.804973      341.34997    
   3730000  -18.612645      45.121024      329.06888    
   3740000  -10.674353      40.21825       293.31281    
   3750000  -12.259228      37.335251      272.28703    
   3760000  -21.386458      42.990444      313.5305     
   3770000  -31.42051       45.600314      332.56435    
   3780000  -30.89878       38.448611      280.40679    
   3790000  -23.155581      38.07134       277.65534    
   3800000  -29.574903      41.227924      300.67639    
   3810000  -33.079908      37.326647      272.22427    
   3820000  -27.838977      38.896352      283.67217    
   3830000  -29.533727      48.991317      357.29504    
   3840000  -27.18404       46.244323      337.26113    
   3850000  -37.284891      39.104647      285.19128    
   3860000  -26.567209      39.015759      284.54301    
   3870000  -21.548623      43.329113      316.00043    
   3880000  -18.305369      45.713619      333.39069    
   3890000  -26.194217      43.185882      314.95583    
   3900000  -30.164062      43.68263       318.57863    
   3910000  -19.22337       41.322818      301.36846    
   3920000  -24.919411      42.120119      307.1832     
   3930000  -33.453763      41.452086      302.31122    
   3940000  -19.060658      35.448907      258.52986    
   3950000  -15.055011      32.842851      239.52382    
   3960000  -22.51021       35.712454      260.45192    
   3970000  -26.885495      34.513051      251.70464    
   3980000  -28.550411      43.542512      317.55675    
   3990000  -23.170035      39.263981      286.3533     
   4000000  -21.587793      41.48094       302.52165    
Loop time of 147.164 on 1 procs for 4000000 steps with 47 atoms

Performance: 23483.967 ns/day, 0.001 hours/ns, 27180.517 timesteps/s, 1.277 Matom-step/s
99.6% CPU use with 1 MPI tasks x 1 OpenMP threads

MPI task timing breakdown:
Section |  min time  |  avg time  |  max time  |%varavg| %total
---------------------------------------------------------------
Pair    | 128.98     | 128.98     | 128.98     |   0.0 | 87.64
Bond    | 9.637      | 9.637      | 9.637      |   0.0 |  6.55
Neigh   | 1.2412     | 1.2412     | 1.2412     |   0.0 |  0.84
Comm    | 1.7165     | 1.7165     | 1.7165     |   0.0 |  1.17
Output  | 0.073335   | 0.073335   | 0.073335   |   0.0 |  0.05
Modify  | 4.8845     | 4.8845     | 4.8845     |   0.0 |  3.32
Other   |            | 0.6321     |            |       |  0.43

Nlocal:             47 ave          47 max          47 min
Histogram: 1 0 0 0 0 0 0 0 0 0
Nghost:              0 ave           0 max           0 min
Histogram: 1 0 0 0 0 0 0 0 0 0
Neighs:            379 ave         379 max         379 min
Histogram: 1 0 0 0 0 0 0 0 0 0

Total # of neighbors = 379
Ave neighs/atom = 8.0638298
Ave special neighs/atom = 5.7446809
Neighbor list builds = 7931
Dangerous builds = 2
Generated 0 of 6 mixed pair_coeff terms from geometric mixing rule
Setting up Verlet run ...
  Unit style    : real
  Current step  : 4000000
  Time step     : 10
Per MPI rank memory allocation (min/avg/max) = 9.624 | 9.624 | 9.624 Mbytes
   Step         PotEng         KinEng          Temp     
   4000000  -21.587793      41.48094       302.52165    
   4010000  -21.026466      42.725039      311.59489    
   4020000  -25.032216      38.552482      281.16432    
   4030000  -17.635697      40.916013      298.40162    
   4040000  -14.657657      38.707436      282.2944     
   4050000  -24.920952      50.556513      368.71006    
   4060000  -22.575345      48.950127      356.99463    
   4070000  -8.9963487      39.263103      286.3469     
   4080000  -24.037801      49.228782      359.02687    
   4090000  -15.782107      41.082077      299.61272    
   4100000  -22.733653      51.046211      372.28143    
   4110000  -12.916994      40.518925      295.50564    
   4120000  -24.548941      43.926143      320.35458    
   4130000  -27.815496      45.256357      330.05587    
   4140000  -14.90605       44.454354      324.20684    
   4150000  -5.0817999      37.762405      275.40227    
   4160000  -12.082203      41.785931      304.74595    
   4170000  -22.621391      40.112916      292.54461    
   4180000  -20.065027      40.703465      296.8515     
   4190000  -20.522821      41.432224      302.16636    
   4200000  -19.491381      39.144007      285.47833    
   4210000  -25.138096      41.002327      299.03111    
   4220000  -19.551277      32.838333      239.49088    
   4230000  -17.035016      39.874303      290.8044     
   4240000  -4.6642356      41.374928      301.7485     
   4250000  -17.386918      55.998849      408.40116    
   4260000  -12.588679      50.698573      369.7461     
   4270000  -6.8203808      41.046476      299.35309    
   4280000  -18.573497      54.703171      398.95175    
   4290000  -16.843302      51.764614      377.52077    
   4300000  -19.232374      44.65566       325.67497    
   4310000  -19.331692      42.997064      313.57878    
   4320000  -27.441443      38.449005      280.40966    
   4330000  -25.691757      43.811953      319.52179    
   4340000  -25.956838      41.342471      301.51179    
   4350000  -17.816147      35.9591        262.25072    
   4360000  -24.847402      44.862286      327.1819     
   4370000  -11.882292      46.396153      338.36843    
   4380000  -10.753259      43.076266      314.1564     
   4390000  -10.162817      37.793765      275.63098    
   4400000  -22.442886      41.239925      300.76392    
   4410000  -29.044684      44.377192      323.6441     
   4420000  -30.20729       41.267656      300.96616    
   4430000  -29.76226       52.332068      381.65922    
   4440000  -18.657741      43.017881      313.7306     
   4450000  -14.020304      44.297531      323.06313    
   4460000  -15.891228      39.46895       287.84815    
   4470000  -18.610453      36.702876      267.6751     
   4480000  -16.28714       45.985712      335.37507    
   4490000  -17.370916      45.956668      335.16326    
   4500000  -23.562477      47.337616      345.23455    
   4510000  -16.052284      44.748736      326.35377    
   4520000  -17.118201      43.650918      318.34736    
   4530000  -18.409449      49.268755      359.3184     
   4540000  -17.799463      52.530003      383.10277    
   4550000  -16.476818      50.693311      369.70773    
   4560000  -11.349434      45.349916      330.7382     
   4570000  -11.497058      39.31976       286.7601     
   4580000  -8.4356714      38.49202       280.72337    
   4590000  -11.908256      51.272742      373.93353    
   4600000  -19.225431      39.204584      285.92012    
   4610000  -24.805346      37.521046      273.64203    
   4620000  -25.588616      45.498506      331.82187    
   4630000  -14.05335       48.114517      350.90051    
   4640000  -19.93766       48.263414      351.98642    
   4650000  -33.710639      46.963533      342.50635    
   4660000  -16.05339       40.61109       296.1778     
   4670000  -18.143318      49.09817       358.07432    
   4680000  -15.127186      48.291325      352.18997    
   4690000  -17.413109      42.576016      310.50807    
   4700000  -9.8828145      37.370992      272.54768    
   4710000  -10.206297      48.89233       356.57312    
   4720000  -11.639382      48.636071      354.70421    
   4730000  -16.665593      51.456847      375.27621    
   4740000  -9.1824485      44.444615      324.13581    
   4750000  -17.910283      48.136378      351.05994    
   4760000  -16.454254      42.160262      307.47596    
   4770000  -16.935887      42.2089        307.83068    
   4780000  -22.152924      46.339451      337.9549     
   4790000  -22.723354      56.900001      414.97329    
   4800000  -22.625833      54.530124      397.68971    
   4810000  -2.8237547      55.575634      405.31464    
   4820000  -18.471352      50.940107      371.50761    
   4830000  -28.007204      40.431538      294.86833    
   4840000  -16.830655      42.327022      308.69215    
   4850000  -14.674962      42.012524      306.3985     
   4860000  -19.501985      44.865324      327.20405    
   4870000  -5.982837       41.765732      304.59864    
   4880000   1.1866077      41.294817      301.16425    
   4890000  -14.509609      45.723024      333.45928    
   4900000  -11.097224      45.344625      330.69961    
   4910000  -26.783304      54.080947      394.41385    
   4920000  -34.755178      50.872458      371.01425    
   4930000  -17.981307      38.712174      282.32896    
   4940000  -17.983847      41.225092      300.65574    
   4950000  -22.942909      45.329822      330.59165    
   4960000  -16.218205      37.474949      273.30584    
   4970000  -11.600049      49.017593      357.48666    
   4980000  -15.582308      58.23185       424.6865     
   4990000  -16.024874      42.460747      309.6674     
   5000000  -14.544311      42.955094      313.2727     
   5010000  -10.643085      41.66195       303.84176    
   5020000  -1.1014242      38.381447      279.91696    
   5030000  -14.658559      48.952625      357.01285    
   5040000  -8.2014101      39.401248      287.3544     
   5050000  -23.620152      52.645037      383.94171    
   5060000  -24.342025      56.01333       408.50677    
   5070000  -16.611707      46.844489      341.63816    
   5080000  -21.160192      47.055524      343.17724    
   5090000  -15.505191      47.079333      343.35088    
   5100000  -12.365567      41.013009      299.10901    
   5110000  -20.163953      47.996671      350.04105    
   5120000  -13.22166       40.120259      292.59816    
   5130000  -17.219342      48.022183      350.22712    
   5140000  -6.6249003      50.30416       366.86964    
   5150000  -4.5797318      45.113945      329.01725    
   5160000  -9.7592485      41.95937       306.01085    
   5170000  -13.557185      47.950708      349.70584    
   5180000  -8.0196237      44.288113      322.99444    
   5190000  -14.671406      51.427158      375.05969    
   5200000  -3.6497816      46.149325      336.56831    
   5210000   1.0876262      46.341085      337.96682    
   5220000  -14.322987      41.722039      304.27999    
   5230000  -3.3431905      31.688314      231.10375    
   5240000   7.6246744      39.806851      290.31247    
   5250000  -9.1563855      48.380689      352.84171    
   5260000  -11.071575      43.355675      316.19414    
   5270000  -23.036904      52.251999      381.07528    
   5280000   3.1925275      45.159493      329.34943    
   5290000  -6.1734729      53.852752      392.74961    
   5300000   5.123689       44.173081      322.1555     
   5310000  -9.8588582      56.135966      409.40116    
   5320000  -19.56763       47.897495      349.31776    
   5330000   2.0786871      43.354349      316.18447    
   5340000  -7.017615       36.317546      264.86487    
   5350000  -12.731625      39.609234      288.87124    
   5360000  -10.472611      51.021122      372.09846    
   5370000  -20.168134      43.572892      317.77831    
   5380000  -5.4505         44.253753      322.74385    
   5390000  -4.0708905      45.059868      328.62287    
   5400000  -6.7754923      54.599192      398.19342    
   5410000  -6.3189977      43.485203      317.13879    
   5420000  -18.125986      55.266391      403.05932    
   5430000  -0.0031150244   46.024892      335.66082    
   5440000  -14.569763      46.282532      337.53979    
   5450000  -3.4385         52.315408      381.53772    
   5460000   0.21818429     42.742179      311.7199     
   5470000  -8.6156374      55.977053      408.2422     
   5480000  -3.868249       38.383256      279.93015    
   5490000  -13.492473      42.514301      310.05798    
   5500000  -21.278431      42.821736      312.30011    
   5510000  -15.985798      38.634495      281.76244    
   5520000  -17.922855      38.552301      281.163      
   5530000  -7.5723686      47.524902      346.60043    
   5540000  -11.355384      39.026276      284.61971    
   5550000  -10.537107      44.979764      328.03867    
   5560000  -4.5942661      48.494299      353.67027    
   5570000  -2.5731631      44.224567      322.53099    
   5580000  -7.5911575      40.495764      295.33673    
   5590000  -10.990186      53.507587      390.23232    
   5600000  -8.0883343      45.147971      329.2654     
   5610000  -15.982251      52.918729      385.93776    
   5620000  -9.0957256      52.910851      385.88031    
   5630000  -11.100319      43.651202      318.34943    
   5640000  -2.9653996      40.353767      294.30114    
   5650000  -15.30763       59.021628      430.44637    
   5660000   2.9252288      50.744194      370.07882    
   5670000   2.1176729      46.266303      337.42143    
   5680000  -11.895062      48.312079      352.34133    
   5690000  -22.35786       48.057367      350.48371    
   5700000  -6.4665097      39.07878       285.00263    
   5710000  -11.02407       45.688894      333.21037    
   5720000  -1.5252416      44.670202      325.78103    
   5730000  -0.73552227     48.414907      353.09126    
   5740000  -13.09739       40.462555      295.09453    
   5750000  -16.940226      41.137595      300.01762    
   5760000  -10.812451      38.754279      282.63603    
   5770000  -22.104358      50.199719      366.10794    
   5780000  -9.8966202      52.871919      385.59637    
   5790000  -16.849967      43.877367      319.99885    
   5800000  -16.23073       34.666656      252.82489    
   5810000  -10.525854      48.949608      356.99085    
   5820000  -1.3835198      49.085494      357.98187    
   5830000  -10.554167      54.034658      394.07626    
   5840000  -5.0223139      53.025238      386.71453    
   5850000   3.7530361      46.287525      337.5762     
   5860000   5.6310027      50.41127       367.65079    
   5870000   8.0790023      51.289764      374.05767    
   5880000   15.581672      50.988916      371.86358    
   5890000   16.524421      44.300128      323.08206    
   5900000   9.2562368      48.507463      353.76627    
   5910000   16.595153      46.81857       341.44913    
   5920000   13.109447      40.919958      298.43039    
   5930000   9.5178679      43.983913      320.7759     
   5940000   17.218268      44.031341      321.12179    
   5950000   20.691119      37.788965      275.59597    
   5960000   21.002753      49.449793      360.63871    
   5970000   14.198885      53.632777      391.14533    
   5980000   18.374705      54.509509      397.53936    
   5990000   19.435495      51.451315      375.23587    
   6000000   7.9760032      44.016523      321.01372    
   6010000   17.990952      43.232009      315.29224    
   6020000   13.441967      45.533127      332.07436    
   6030000  -0.82433391     42.882548      312.74361    
   6040000  -4.0902601      40.019566      291.86381    
   6050000  -7.8536979      58.326745      425.37857    
   6060000   19.43637       49.333711      359.79212    
   6070000   17.53715       52.798109      385.05808    
   6080000   11.244613      50.105093      365.41784    
   6090000   7.0652535      49.774614      363.00764    
   6100000   1.2966058      49.248668      359.1719     
   6110000   3.4770447      52.551139      383.25691    
   6120000   8.9237066      45.671302      333.08208    
   6130000   8.6468495      39.835769      290.52337    
   6140000   7.129867       48.876945      356.46091    
   6150000   11.625633      46.863479      341.77665    
   6160000   15.687815      50.551361      368.67248    
   6170000   15.035981      39.7459        289.86795    
   6180000   21.254357      39.795009      290.2261     
   6190000   8.2913798      48.900664      356.6339     
   6200000   18.574483      38.757103      282.65663    
   6210000   10.384206      50.937611      371.48941    
   6220000   20.459657      45.924197      334.92645    
   6230000   20.544392      51.060433      372.38516    
   6240000   27.832907      55.109582      401.91571    
   6250000   19.967859      58.290853      425.11681    
   6260000   33.438719      49.592864      361.68213    
   6270000   33.633847      54.839954      399.94931    
   6280000   43.195554      48.411835      353.06886    
   6290000   24.209861      44.105279      321.66102    
   6300000   31.546431      43.676824      318.53629    
   6310000   41.074421      46.031627      335.70993    
   6320000   33.918112      48.217706      351.65307    
   6330000   25.456595      50.500239      368.29964    
   6340000   32.58077       53.814876      392.47338    
   6350000   33.935675      42.458423      309.65046    
   6360000   23.766528      48.967914      357.12435    
   6370000   28.656837      50.604208      369.0579     
   6380000   30.609429      46.040664      335.77584    
   6390000   28.915133      56.708537      413.57694    
   6400000   26.51421       49.049991      357.72294    
   6410000   28.77604       51.506168      375.63591    
   6420000   31.244299      46.071474      336.00054    
   6430000   40.42839       52.539844      383.17454    
   6440000   41.685603      57.874521      422.08049    
   6450000   41.709875      64.972618      473.84711    
   6460000   34.145439      51.412979      374.95628    
   6470000   32.698149      55.766747      406.70843    
   6480000   24.251796      65.768379      479.65062    
   6490000   28.821581      39.179314      285.73582    
   6500000   36.527922      40.60309       296.11946    
   6510000   37.411683      50.12995       365.59911    
   6520000   28.928395      54.526421      397.6627     
   6530000   34.785611      53.379443      389.29776    
   6540000   29.365704      58.976468      430.11702    
   6550000   40.237837      44.683804      325.88022    
   6560000   34.398651      44.528729      324.74926    
   6570000   30.453992      40.004172      291.75153    
   6580000   33.598225      52.18719       380.60263    
   6590000   27.647053      55.56118       405.20922    
   6600000   41.944865      60.450824      440.86953    
   6610000   40.901875      56.973405      415.50862    
   6620000   31.446648      59.010856      430.36781    
   6630000   32.001401      52.684159      384.22704    
   6640000   33.374021      53.165965      387.74086    
   6650000   41.991406      45.128562      329.12385    
   6660000   32.762872      47.3555        345.36498    
   6670000   31.769546      40.572622      295.89726    
   6680000   22.997981      53.536116      390.44038    
   6690000   30.560131      53.920532      393.24393    
   6700000   33.037054      55.863512      407.41414    
   6710000   30.814035      53.008254      386.59067    
   6720000   29.484085      54.266131      395.7644     
   6730000   15.500605      59.412025      433.29354    
   6740000   31.48816       41.336545      301.46857    
   6750000   8.4442926      50.806717      370.5348     
   6760000   25.073496      43.878028      320.00367    
   6770000   14.990651      48.865604      356.37821    
   6780000   27.356559      44.249537      322.7131     
   6790000   30.21576       47.048264      343.12429    
   6800000   39.102482      53.501482      390.18779    
   6810000   30.411203      61.164769      446.07636    
   6820000   28.780084      58.917705      429.68845    
   6830000   29.108573      51.466684      375.34795    
   6840000   34.658224      53.328666      388.92744    
   6850000   30.279198      51.392284      374.80535    
   6860000   39.406905      56.554603      412.45429    
   6870000   30.052152      51.394583      374.82212    
   6880000   34.897548      56.9656        415.45171    
   6890000   31.665498      49.034267      357.60827    
   6900000   31.608259      39.324653      286.79579    
   6910000   31.072583      54.400112      396.74152    
   6920000   35.129067      64.036429      467.01946    
   6930000   28.262343      52.721888      384.50219    
   6940000   33.471557      63.466627      462.86387    
   6950000   24.438467      51.486821      375.49482    
   6960000   25.019222      56.959231      415.40525    
   6970000   26.705596      53.728023      391.83997    
   6980000   28.065778      45.892376      334.69437    
   6990000   8.1424008      51.556159      376.0005     
   7000000   31.608944      49.87578       363.74545    
   7010000   33.331101      50.964882      371.6883     
   7020000   28.173955      56.524575      412.2353     
   7030000   31.883295      58.399108      425.90632    
   7040000   36.751769      67.257228      490.50883    
   7050000   34.163749      48.192243      351.46736    
   7060000   35.146171      57.158118      416.85574    
   7070000   31.187779      43.398753      316.50831    
   7080000   35.972723      46.982928      342.6478     
   7090000   33.543033      49.962268      364.37621    
   7100000   37.183385      46.74817       340.9357     
   7110000   29.048568      49.129947      358.30607    
   7120000   38.691715      52.264566      381.16693    
   7130000   26.801519      51.793947      377.73469    
   7140000   28.016938      50.55055       368.66656    
   7150000   31.915247      50.541724      368.6022     
   7160000   25.734856      49.874442      363.73569    
   7170000   27.90153       59.074722      430.83359    
   7180000   34.515633      44.479956      324.39356    
   7190000   38.228189      51.896251      378.4808     
   7200000   34.497699      53.333709      388.96422    
   7210000   36.397831      44.952477      327.83966    
   7220000   34.975425      63.698129      464.55223    
   7230000   40.923322      44.523609      324.71192    
   7240000   24.157496      47.321414      345.11639    
   7250000   24.354254      52.667245      384.10368    
   7260000   28.035327      57.995609      422.96358    
   7270000   14.709836      69.427083      506.33364    
   7280000   21.762174      47.022723      342.93803    
   7290000   33.994883      41.925662      305.76501    
   7300000   12.492478      60.790288      443.34525    
   7310000   18.796573      49.061886      357.8097     
   7320000   14.311739      46.860229      341.75295    
   7330000   18.484744      54.424952      396.92269    
   7340000   20.761242      48.873798      356.43797    
   7350000   16.994967      56.466124      411.80901    
   7360000   25.885581      46.995029      342.73605    
   7370000   11.28327       68.522986      499.74004    
   7380000   31.175405      42.438016      309.50163    
   7390000   27.413833      51.520965      375.74383    
   7400000   38.780561      49.239673      359.1063     
   7410000   34.507288      57.775794      421.36047    
   7420000   42.558659      57.577185      419.912      
   7430000   40.512558      47.231486      344.46054    
   7440000   32.678508      45.840071      334.31291    
   7450000   25.045419      52.462046      382.60716    
   7460000   31.829336      47.571122      346.93751    
   7470000   33.834362      51.996897      379.21481    
   7480000   34.42937       47.572116      346.94476    
   7490000   33.344873      56.95864       415.40094    
   7500000   40.745719      58.742027      428.40723    
   7510000   35.20224       54.953052      400.77413    
   7520000   36.635042      70.133275      511.48392    
   7530000   40.798128      73.137788      533.39592    
   7540000   27.815028      49.890643      363.85385    
   7550000   41.153295      57.747215      421.15204    
   7560000   30.312687      56.840924      414.54243    
   7570000   29.256294      44.36361       323.54504    
   7580000   19.512716      52.372109      381.95125    
   7590000   32.943945      53.131619      387.49037    
   7600000   30.195015      53.258016      388.41219    
   7610000   30.290429      59.98184       437.44922    
   7620000   38.334259      45.311203      330.45586    
   7630000   40.090264      52.904977      385.83746    
   7640000   37.172446      54.510683      397.54792    
   7650000   34.374436      57.478584      419.19291    
   7660000   34.84088       56.548034      412.40638    
   7670000   33.357758      50.160933      365.82508    
   7680000   31.563369      56.494025      412.01249    
   7690000   41.359053      49.777196      363.02647    
   7700000   14.284152      71.436939      520.99158    
   7710000   29.285082      57.741978      421.11385    
   7720000   29.732271      55.884453      407.56686    
   7730000   42.212269      64.198238      468.19953    
   7740000   37.51945       50.232755      366.34887    
   7750000   30.917117      56.621785      412.94425    
   7760000   29.949849      54.613671      398.29902    
   7770000   26.637851      60.308993      439.83516    
   7780000   49.537534      50.889911      371.14154    
   7790000   37.138311      49.233902      359.06421    
   7800000   24.607109      42.147788      307.38499    
   7810000   27.746594      51.00808       372.00334    
   7820000   34.904261      55.156609      402.25868    
   7830000   38.153285      52.238468      380.9766     
   7840000   27.092009      52.420912      382.30717    
   7850000   33.398622      52.663473      384.07617    
   7860000   35.233522      63.329886      461.86662    
   7870000   36.736391      54.14258       394.86334    
   7880000   43.768217      51.190421      373.33316    
   7890000   37.570695      52.406055      382.19882    
   7900000   33.84091       47.719709      348.02116    
   7910000   36.122375      55.08153       401.71113    
   7920000   34.245526      52.446888      382.49661    
   7930000   29.364206      53.762493      392.09135    
   7940000   35.818453      52.881536      385.66651    
   7950000   15.619231      58.259022      424.88467    
   7960000   24.063505      56.991614      415.64142    
   7970000   26.925867      55.023569      401.28842    
   7980000   33.50445       62.637265      456.81532    
   7990000   41.813382      55.872173      407.47731    
   8000000   40.993097      54.445035      397.06916    
   8010000   33.334838      65.930601      480.83371    
   8020000   41.459012      57.709508      420.87705    
   8030000   32.328741      57.263161      417.62183    
   8040000   41.023089      49.243123      359.13146    
   8050000   45.380808      60.079288      438.15992    
   8060000   30.736898      49.539254      361.29115    
   8070000   39.961846      53.981757      393.69045    
   8080000   40.308235      44.758043      326.42165    
   8090000   31.675988      43.091064      314.26432    
   8100000   42.238285      70.527315      514.35767    
   8110000   42.293193      58.007284      423.04873    
   8120000   32.404211      66.650271      486.08227    
   8130000   31.336684      58.88378       429.44104    
   8140000   36.431707      52.658064      384.03672    
   8150000   31.846255      50.52549       368.4838     
   8160000   27.527594      53.689453      391.55867    
   8170000   42.895054      80.638715      588.10038    
   8180000   35.595088      54.557696      397.89079    
   8190000   39.190394      52.178243      380.53737    
   8200000   29.499271      69.38229       506.00697    
   8210000   42.947635      48.467199      353.47263    
   8220000   42.686309      53.255302      388.3924     
   8230000   24.855387      63.676603      464.39523    
   8240000   21.380718      62.540413      456.10897    
   8250000   31.274222      52.027169      379.43559    
   8260000   35.134686      50.17662       365.93948    
   8270000   39.653064      53.609956      390.9789     
   8280000   32.212076      52.586804      383.51702    
   8290000   30.154481      50.293774      366.79389    
   8300000   38.534988      56.719218      413.65483    
   8310000   34.835848      51.451764      375.23914    
   8320000   30.204096      71.095399      518.50072    
   8330000   39.468074      56.499439      412.05198    
   8340000   36.141032      48.23514       351.78021    
   8350000   34.442646      56.621898      412.94507    
   8360000   47.511165      44.3027        323.10082    
   8370000   36.535215      59.342955      432.78982    
   8380000   38.977931      59.058743      430.71705    
   8390000   44.522264      52.275842      381.24917    
   8400000   44.766934      65.169772      475.28496    
   8410000   45.992863      61.22756       446.5343     
   8420000   30.558137      73.677717      537.33364    
   8430000   31.208187      63.597982      463.82185    
   8440000   45.774926      52.858494      385.49846    
   8450000   49.916602      61.82937       450.92331    
   8460000   23.072585      67.673438      493.54426    
   8470000   35.674385      65.766668      479.63814    
   8480000   34.237793      55.820094      407.09749    
   8490000   34.994281      66.578224      485.55684    
   8500000   37.216504      56.416388      411.44628    
   8510000   32.210065      50.547971      368.64775    
   8520000   36.183083      61.498767      448.51221    
   8530000   34.111758      49.409273      360.3432     
   8540000   35.221429      55.380665      403.89273    
   8550000   35.2409        54.99156       401.05497    
   8560000   34.499757      53.922184      393.25599    
   8570000   30.003656      50.755826      370.16365    
   8580000   26.41511       60.115258      438.42225    
   8590000   32.102293      48.006478      350.11257    
   8600000   29.762306      47.250386      344.59838    
   8610000   43.021561      55.798253      406.93821    
   8620000   35.98154       59.383537      433.08578    
   8630000   38.264141      59.976925      437.41338    
   8640000   41.17276       52.928213      386.00693    
   8650000   42.394927      62.567135      456.30385    
   8660000   36.611714      56.209689      409.93883    
   8670000   30.487065      56.483818      411.93805    
   8680000   36.264147      69.963435      510.24527    
   8690000   36.1916        57.262931      417.62015    
   8700000   25.694894      51.260203      373.84208    
   8710000   36.810925      58.392245      425.85626    
   8720000   39.333206      61.633245      449.49296    
   8730000   50.733373      55.007756      401.17309    
   8740000   33.252182      58.166175      424.20753    
   8750000   32.052166      52.68584       384.23929    
   8760000   33.44445       55.664236      405.96082    
   8770000   36.14803       65.183489      475.38499    
   8780000   29.792552      59.033015      430.52941    
   8790000   33.798843      63.71562       464.67979    
   8800000   41.059327      71.963459      524.8315     
   8810000   39.992171      56.730614      413.73794    
   8820000   33.594084      45.856751      334.43456    
   8830000   35.865825      54.862253      400.11193    
   8840000   36.719056      54.627744      398.40165    
   8850000   30.627583      51.901624      378.51998    
   8860000   36.133016      72.363936      527.75219    
   8870000   37.976809      72.389162      527.93617    
   8880000   34.893976      70.975144      517.6237     
   8890000   35.875585      47.335582      345.21971    
   8900000   29.899489      56.900878      414.97968    
   8910000   28.425265      49.543619      361.32299    
   8920000   32.053453      51.552424      375.97326    
   8930000   42.802925      57.966715      422.75286    
   8940000   41.590543      59.746044      435.72956    
   8950000   33.310694      43.58724       317.88295    
   8960000   42.827146      54.916743      400.50933    
   8970000   40.165069      70.882686      516.9494     
   8980000   43.5443        75.229669      548.65207    
   8990000   48.646554      44.258614      322.7793     
   9000000   45.034525      53.621901      391.06601    
   9010000   29.162532      55.120505      401.99537    
   9020000   22.213572      52.29966       381.42287    
   9030000   21.993658      64.613104      471.22516    
   9040000   44.272004      59.148581      431.37224    
   9050000   40.339577      63.96903       466.52791    
   9060000   38.870471      67.178264      489.93294    
   9070000   38.716597      56.077714      408.97633    
   9080000   35.131253      58.105181      423.7627     
   9090000   39.723272      55.811679      407.03613    
   9100000   42.36978       53.634165      391.15546    
   9110000   42.506139      55.96327       408.14168    
   9120000   37.254482      58.156879      424.13973    
   9130000   31.173461      73.764972      537.96999    
   9140000   36.582289      63.32333       461.81881    
   9150000   23.355728      49.519672      361.14834    
   9160000   27.815367      54.360331      396.45141    
   9170000   33.914951      67.085713      489.25796    
   9180000   45.41437       68.024455      496.10424    
   9190000   33.034906      52.513516      382.98253    
   9200000   36.941601      64.719654      472.00223    
   9210000   44.482232      52.787969      384.98412    
   9220000   29.681933      60.961379      444.59303    
   9230000   33.294097      71.00155       517.81627    
   9240000   23.556693      60.768169      443.18394    
   9250000   35.925195      57.044816      416.02943    
   9260000   31.195529      63.794162      465.25259    
   9270000   40.616979      57.356764      418.30447    
   9280000   29.115242      61.055097      445.27652    
   9290000   39.978185      71.262704      519.72088    
   9300000   38.676404      60.30922       439.83682    
   9310000   36.463108      53.583988      390.78952    
   9320000   31.863167      57.740335      421.10186    
   9330000   35.47745       51.312012      374.21993    
   9340000   36.938023      68.198015      497.37002    
   9350000   32.492858      57.968         422.76223    
   9360000   37.812947      52.703887      384.37091    
   9370000   44.843277      50.636887      369.29623    
   9380000   29.939223      57.446699      418.96037    
   9390000   44.536715      59.54658       434.27486    
   9400000   49.740506      65.506032      477.73731    
   9410000   38.282228      49.549544      361.3662     
   9420000   46.801481      56.722983      413.68229    
   9430000   42.867218      65.284222      476.11964    
   9440000   34.43667       75.472364      550.42205    
   9450000   42.448466      50.469174      368.07308    
   9460000   35.990765      48.579101      354.28873    
   9470000   39.09274       56.650723      413.15529    
   9480000   35.354557      57.752237      421.18866    
   9490000   34.363441      54.013184      393.91965    
   9500000   36.516262      52.447582      382.50167    
   9510000   31.218862      47.536402      346.6843     
   9520000   32.573906      68.320746      498.2651     
   9530000   47.413178      57.31569       418.00492    
   9540000   37.516064      56.118724      409.27541    
   9550000   40.618665      67.683329      493.6164     
   9560000   48.426105      56.955152      415.37551    
   9570000   34.770397      55.42674       404.22875    
   9580000   32.550527      56.459484      411.76058    
   9590000   44.828768      63.680951      464.42694    
   9600000   31.899877      54.170561      395.0674     
   9610000   44.536929      67.078888      489.2082     
   9620000   45.108264      59.441138      433.50587    
   9630000   31.30221       67.858172      494.89153    
   9640000   42.219917      72.244542      526.88145    
   9650000   40.047117      72.194103      526.51359    
   9660000   46.533731      61.207952      446.39129    
   9670000   41.518869      73.771507      538.01765    
   9680000   37.071426      69.650565      507.96351    
   9690000   35.399918      54.314183      396.11484    
   9700000   41.785116      72.673518      530.00998    
   9710000   36.604848      56.838361      414.52375    
   9720000   43.935333      55.335256      403.56156    
   9730000   50.015639      59.645487      434.99619    
   9740000   34.272926      68.054015      496.31982    
   9750000   42.699485      71.784792      523.52848    
   9760000   47.201102      58.642091      427.6784     
   9770000   28.573821      75.221626      548.59341    
   9780000   28.476664      66.105556      482.10966    
   9790000   37.767578      67.35714       491.23749    
   9800000   37.436875      61.270998      446.85109    
   9810000   43.144789      61.577646      449.08748    
   9820000   32.673759      70.706313      515.6631     
   9830000   36.891689      73.693177      537.44638    
   9840000   34.996967      64.148909      467.83977    
   9850000   41.667564      51.509015      375.65667    
   9860000   38.203677      63.727022      464.76294    
   9870000   29.545466      53.86463       392.83624    
   9880000   36.384698      52.095189      379.93166    
   9890000   35.139759      49.17911       358.66461    
   9900000   34.928398      51.605354      376.35928    
   9910000   24.887866      69.10417       503.97863    
   9920000   39.119786      56.142318      409.44748    
   9930000   46.341099      59.79684       436.10002    
   9940000   33.517419      66.084374      481.95517    
   9950000   45.099288      54.579347      398.04869    
   9960000   31.222729      71.12346       518.70537    
   9970000   36.91957       65.375307      476.78393    
   9980000   44.674982      46.918139      342.17529    
   9990000   39.595702      71.64454       522.50562    
  10000000   37.42937       65.389429      476.88692    
  10010000   29.404215      56.668961      413.2883     
  10020000   44.517338      53.745522      391.96758    
  10030000   43.029817      52.590854      383.54656    
  10040000   40.743909      61.921428      451.59469    
  10050000   47.142812      54.506118      397.51463    
  10060000   47.3574        55.908784      407.74431    
  10070000   39.893077      72.605449      529.51355    
  10080000   35.613248      79.020681      576.30002    
  10090000   32.145412      64.188376      468.1276     
  10100000   43.770181      56.324287      410.77459    
  10110000   40.631397      60.071415      438.10249    
  10120000   30.274566      66.511447      485.06983    
  10130000   31.063831      62.056209      452.57765    
  10140000   40.091701      77.344021      564.07209    
  10150000   34.011715      68.267924      497.87986    
  10160000   41.867592      60.471907      441.0233     
  10170000   37.131809      65.787938      479.79326    
  10180000   46.439591      66.500572      484.99052    
  10190000   36.645067      70.122182      511.40302    
  10200000   42.318218      53.778711      392.20963    
  10210000   35.509987      59.228972      431.95854    
  10220000   34.230578      70.208419      512.03195    
  10230000   32.976264      64.668332      471.62794    
  10240000   39.645048      57.065234      416.17833    
  10250000   35.137317      58.487534      426.55121    
  10260000   40.228101      56.223344      410.03841    
  10270000   34.646268      64.64037       471.42401    
  10280000   34.17061       64.510563      470.47733    
  10290000   38.921944      64.008153      466.81324    
  10300000   32.214587      71.643412      522.49739    
  10310000   40.146883      57.750538      421.17628    
  10320000   36.226661      48.337436      352.52626    
  10330000   45.428322      55.880272      407.53637    
  10340000   34.073624      61.987838      452.07902    
  10350000   32.250748      62.631837      456.77572    
  10360000   46.283318      67.229859      490.30923    
  10370000   38.128264      64.858875      473.01758    
  10380000   38.946854      65.775815      479.70484    
  10390000   35.533365      61.184749      446.22207    
  10400000   33.176944      52.722037      384.50328    
  10410000   44.368308      53.575313      390.72624    
  10420000   34.193423      63.397442      462.3593     
  10430000   40.557581      56.221181      410.02263    
  10440000   37.815967      61.863762      451.17413    
  10450000   47.62433       67.978558      495.76951    
  10460000   51.953752      76.473417      557.72275    
  10470000   38.611873      76.969865      561.34336    
  10480000   43.665931      64.504716      470.43468    
  10490000   37.606562      57.299307      417.88544    
  10500000   40.738519      46.45013       338.76209    
  10510000   34.935181      54.733024      399.16946    
  10520000   33.437402      76.044506      554.59469    
  10530000   48.905052      65.270035      476.01617    
  10540000   42.635152      66.963324      488.36538    
  10550000   41.712817      73.933987      539.20262    
  10560000   36.101586      62.150296      453.26383    
  10570000   31.247161      71.760167      523.34889    
  10580000   40.956224      72.923207      531.83097    
  10590000   38.499421      61.647422      449.59636    
  10600000   39.485953      65.182613      475.3786     
  10610000   35.239143      58.400324      425.91518    
  10620000   31.827335      79.09177       576.81847    
  10630000   42.262859      57.834512      421.7887     
  10640000   40.748069      52.463577      382.61832    
  10650000   43.285365      58.94181       429.86426    
  10660000   44.251559      53.501575      390.18847    
  10670000   34.246098      68.09684       496.63215    
  10680000   45.570775      57.34546       418.22203    
  10690000   41.696281      77.656443      566.35059    
  10700000   46.063932      59.254751      432.14654    
  10710000   49.899709      68.733115      501.27251    
  10720000   38.718348      72.294281      527.2442     
  10730000   31.249783      66.291163      483.46329    
  10740000   34.577254      58.352127      425.56368    
  10750000   47.216051      59.072959      430.82073    
  10760000   36.884653      54.045334      394.15412    
  10770000   42.764524      63.198045      460.9051     
  10780000   39.70749       57.338073      418.16816    
  10790000   45.647872      58.805998      428.87378    
  10800000   36.358119      63.733682      464.81151    
  10810000   34.670218      78.338727      571.32651    
  10820000   40.607823      70.878032      516.91546    
  10830000   48.005282      69.027653      503.42059    
  10840000   42.510709      65.797265      479.86128    
  10850000   49.119901      66.220604      482.94871    
  10860000   58.33831       61.277581      446.8991     
  10870000   40.147481      54.417276      396.8667     
  10880000   35.589471      53.197774      387.97284    
  10890000   36.497082      60.782407      443.28778    
  10900000   33.719876      66.909905      487.9758     
  10910000   47.012721      63.563467      463.57013    
  10920000   43.939117      57.74989       421.17155    
  10930000   36.994438      58.715118      428.21099    
  10940000   41.899853      60.128702      438.52029    
  10950000   41.187907      56.711471      413.59833    
  10960000   34.722956      64.459397      470.10417    
  10970000   38.791184      70.699256      515.61164    
  10980000   39.180353      65.630555      478.64546    
  10990000   33.050094      76.713616      559.47453    
  11000000   51.459913      61.439726      448.08163    
  11010000   48.18887       58.941499      429.86199    
  11020000   37.302365      72.297289      527.26613    
  11030000   38.783625      56.263323      410.32998    
  11040000   39.799151      65.094695      474.73742    
  11050000   43.75216       66.286212      483.42718    
  11060000   43.909851      64.040037      467.04577    
  11070000   32.998558      66.148121      482.42008    
  11080000   23.136906      72.825621      531.11928    
  11090000   41.01843       70.650733      515.25776    
  11100000   37.498006      62.11666       453.01853    
  11110000   32.340724      57.207846      417.21841    
  11120000   43.698689      65.521881      477.8529     
  11130000   51.499338      68.100935      496.66201    
  11140000   43.077193      80.083943      584.05442    
  11150000   40.279053      63.619863      463.98143    
  11160000   36.149628      68.03255       496.16327    
  11170000   42.345039      68.310066      498.18721    
  11180000   50.404868      70.278432      512.54255    
  11190000   43.053322      74.246276      541.48015    
  11200000   53.448424      74.369849      542.38137    
  11210000   54.926821      59.509633      434.00541    
  11220000   37.523113      75.975503      554.09146    
  11230000   46.088695      58.327198      425.38187    
  11240000   36.839578      74.19347       541.09504    
  11250000   50.091351      56.042714      408.72107    
  11260000   37.291651      79.90659       582.76098    
  11270000   32.761824      63.914044      466.1269     
  11280000   47.683583      66.117436      482.1963     
  11290000   42.156861      54.533653      397.71544    
  11300000   53.395181      62.438501      455.36572    
  11310000   45.673927      66.865164      487.6495     
  11320000   49.48294       60.250248      439.40673    
  11330000   45.872874      76.065682      554.74913    
  11340000   54.449096      64.155326      467.88657    
  11350000   41.581407      72.528914      528.95538    
  11360000   42.455547      51.630415      376.54205    
  11370000   35.590196      67.047194      488.97705    
  11380000   42.865303      63.534288      463.35733    
  11390000   40.109997      57.42271       418.78542    
  11400000   39.061439      67.972844      495.72784    
  11410000   42.598644      71.618605      522.31647    
  11420000   35.479732      70.906947      517.12633    
  11430000   46.970983      69.540183      507.15848    
  11440000   42.430729      72.930115      531.88135    
  11450000   41.358889      66.901655      487.91563    
  11460000   44.498696      55.27883       403.15004    
  11470000   48.020731      57.578788      419.9237     
  11480000   47.69448       70.655077      515.28944    
  11490000   42.085902      65.171439      475.29711    
  11500000   41.257215      79.365464      578.81453    
  11510000   45.046629      67.445837      491.88436    
  11520000   37.259937      62.791322      457.93886    
  11530000   50.271307      76.379352      557.03674    
  11540000   41.890437      76.267996      556.22461    
  11550000   43.250995      62.810624      458.07963    
  11560000   36.859551      58.557237      427.05956    
  11570000   39.270649      62.599651      456.54099    
  11580000   35.953469      64.194331      468.17104    
  11590000   33.071172      70.995107      517.76928    
  11600000   56.683904      78.30933       571.11212    
  11610000   44.939002      68.566778      500.05941    
  11620000   44.542642      59.256127      432.15658    
  11630000   44.462997      67.452109      491.93011    
  11640000   39.607018      66.148293      482.42134    
  11650000   40.228038      86.749984      632.67004    
  11660000   47.387398      63.182927      460.79484    
  11670000   35.007058      90.49567       659.98743    
  11680000   55.279947      63.786844      465.19922    
  11690000   37.534473      77.882926      568.00234    
  11700000   33.091694      69.380156      505.9914     
  11710000   35.393842      75.550456      550.99158    
  11720000   44.921058      73.750799      537.86663    
  11730000   38.915904      73.949417      539.31515    
  11740000   48.387395      60.848866      443.77247    
  11750000   46.01819       47.722189      348.03925    
  11760000   50.75095       58.100244      423.72669    
  11770000   45.884692      80.012871      583.53609    
  11780000   40.177645      60.938277      444.42455    
  11790000   34.90598       74.735242      545.0462     
  11800000   44.228115      54.753545      399.31912    
  11810000   37.347247      67.875423      495.01734    
  11820000   45.51195       58.36592       425.66428    
  11830000   52.180206      71.602835      522.20146    
  11840000   46.320339      59.132494      431.25492    
  11850000   42.671916      81.494739      594.34339    
  11860000   42.807796      70.176806      511.80139    
  11870000   44.394846      67.249772      490.45445    
  11880000   45.812102      68.134392      496.90601    
  11890000   47.851155      56.695707      413.48337    
  11900000   39.334694      71.522499      521.61557    
  11910000   41.374008      65.763305      479.61361    
  11920000   43.157746      67.980672      495.78492    
  11930000   38.16745       80.622774      587.98413    
  11940000   42.08945       65.350226      476.60101    
  11950000   47.044326      58.605247      427.40969    
  11960000   50.153261      54.590554      398.13043    
  11970000   35.40129       72.579428      529.32378    
  11980000   42.980907      74.728275      544.99538    
  11990000   42.16852       68.722251      501.19328    
  12000000   54.41036       78.118389      569.71958    
Loop time of 145.893 on 1 procs for 8000000 steps with 47 atoms

Performance: 47377.200 ns/day, 0.001 hours/ns, 54834.723 timesteps/s, 2.577 Matom-step/s
99.5% CPU use with 1 MPI tasks x 1 OpenMP threads

MPI task timing breakdown:
Section |  min time  |  avg time  |  max time  |%varavg| %total
---------------------------------------------------------------
Pair    | 109.38     | 109.38     | 109.38     |   0.0 | 74.97
Bond    | 19.079     | 19.079     | 19.079     |   0.0 | 13.08
Neigh   | 2.9712     | 2.9712     | 2.9712     |   0.0 |  2.04
Comm    | 3.3031     | 3.3031     | 3.3031     |   0.0 |  2.26
Output  | 0.2602     | 0.2602     | 0.2602     |   0.0 |  0.18
Modify  | 9.6315     | 9.6315     | 9.6315     |   0.0 |  6.60
Other   |            | 1.268      |            |       |  0.87

Nlocal:             47 ave          47 max          47 min
Histogram: 1 0 0 0 0 0 0 0 0 0
Nghost:              0 ave           0 max           0 min
Histogram: 1 0 0 0 0 0 0 0 0 0
Neighs:            193 ave         193 max         193 min
Histogram: 1 0 0 0 0 0 0 0 0 0

Total # of neighbors = 193
Ave neighs/atom = 4.106383
Ave special neighs/atom = 5.7446809
Neighbor list builds = 20885
Dangerous builds = 0
Generated 0 of 6 mixed pair_coeff terms from geometric mixing rule
Setting up Verlet run ...
  Unit style    : real
  Current step  : 12000000
  Time step     : 10
Per MPI rank memory allocation (min/avg/max) = 9.624 | 9.624 | 9.624 Mbytes
   Step         PotEng         KinEng          Temp     
  12000000   54.41036       78.118389      569.71958    
  12010000   58.822568      57.522572      419.51371    
  12020000   33.064763      63.173854      460.72867    
  12030000   41.657966      69.319831      505.55145    
  12040000   37.676397      80.355602      586.03564    
  12050000   42.866455      67.983369      495.8046     
  12060000   37.538615      75.316587      549.28596    
  12070000   43.70286       67.472039      492.07545    
  12080000   49.710495      73.290879      534.51241    
  12090000   49.488819      83.139286      606.33712    
  12100000   45.262089      83.156059      606.45945    
  12110000   42.829636      69.472368      506.6639     
  12120000   38.629976      78.249274      570.67413    
  12130000   36.890146      88.306019      644.01824    
  12140000   42.174158      76.383159      557.0645     
  12150000   37.260399      80.122409      584.33495    
  12160000   46.962773      74.760331      545.22917    
  12170000   36.29184       72.47767       528.58166    
  12180000   41.176954      90.321219      658.71516    
  12190000   43.312739      76.023203      554.43933    
  12200000   40.970557      69.069958      503.72912    
  12210000   41.90451       66.688211      486.35897    
  12220000   51.299183      67.682565      493.61082    
  12230000   54.78529       65.315317      476.34642    
  12240000   41.256071      69.10612       503.99285    
  12250000   45.586366      84.393939      615.48734    
  12260000   55.96366       68.055406      496.32997    
  12270000   41.919695      66.748508      486.79872    
  12280000   42.798626      69.769724      508.83254    
  12290000   35.570487      76.355929      556.86591    
  12300000   37.632147      67.977582      495.7624     
  12310000   40.363103      75.430411      550.11608    
  12320000   61.851699      76.793557      560.05754    
  12330000   31.749882      74.069447      540.19053    
  12340000   48.215992      66.989407      488.5556     
  12350000   41.768451      87.887569      640.96648    
  12360000   46.975719      74.726544      544.98276    
  12370000   33.010954      78.65376       573.62406    
  12380000   51.992925      65.764912      479.62533    
  12390000   42.587054      62.513893      455.91556    
  12400000   56.703363      61.867997      451.20502    
  12410000   50.187593      70.332688      512.93825    
  12420000   42.957697      76.155294      555.40268    
  12430000   41.050337      61.074867      445.4207     
  12440000   54.609593      63.868318      465.79342    
  12450000   55.337673      53.187892      387.90077    
  12460000   43.87442       76.264269      556.19743    
  12470000   51.76093       82.430096      601.16498    
  12480000   55.58098       81.188924      592.11307    
  12490000   55.879184      74.031907      539.91675    
  12500000   56.507715      62.647396      456.8892     
  12510000   35.780774      66.540215      485.27963    
  12520000   42.494058      64.307681      468.9977     
  12530000   28.743469      69.873078      509.5863     
  12540000   34.335487      85.443093      623.13885    
  12550000   59.610888      68.754156      501.42597    
  12560000   50.468876      83.042823      605.63361    
  12570000   49.552008      65.021347      474.20249    
  12580000   39.582727      64.947609      473.66471    
  12590000   40.433784      66.461192      484.70332    
  12600000   45.029899      76.707588      559.43057    
  12610000   49.089697      69.636896      507.86382    
  12620000   45.553983      62.001844      452.18117    
  12630000   50.278556      72.587648      529.38373    
  12640000   45.468537      72.692985      530.15196    
  12650000   61.952628      70.81712       516.47122    
  12660000   35.980967      68.055696      496.33208    
  12670000   45.941344      61.377775      447.62981    
  12680000   45.372304      78.802207      574.70668    
  12690000   39.137054      59.247861      432.0963     
  12700000   40.362154      61.515137      448.6316     
  12710000   50.228363      61.110247      445.67873    
  12720000   39.944114      63.63841       464.11669    
  12730000   48.517472      77.675552      566.48996    
  12740000   40.334427      76.970877      561.35074    
  12750000   51.37074       76.403937      557.21603    
  12760000   43.296468      61.34603       447.3983     
  12770000   31.126194      59.006008      430.33245    
  12780000   46.905866      68.405009      498.87963    
  12790000   46.597         64.887859      473.22895    
  12800000   40.496781      70.053533      510.90236    
  12810000   47.042201      54.815048      399.76766    
  12820000   42.267542      72.860975      531.37712    
  12830000   46.667351      62.868342      458.50056    
  12840000   42.0569        71.317644      520.12156    
  12850000   41.96766       67.190158      490.01969    
  12860000   48.87984       62.518709      455.95068    
  12870000   41.593154      60.553121      441.61559    
  12880000   55.412076      66.898159      487.89013    
  12890000   46.90391       72.026188      525.28899    
  12900000   43.295521      70.178349      511.81265    
  12910000   40.152317      59.203049      431.76948    
  12920000   38.213445      67.289448      490.74381    
  12930000   34.657723      62.308688      454.41899    
  12940000   42.887835      84.339338      615.08913    
  12950000   33.477013      75.161674      548.15618    
  12960000   32.739081      76.83326       560.3471     
  12970000   33.536287      76.88767       560.74391    
  12980000   50.722514      61.854162      451.10412    
  12990000   46.036025      64.709554      471.92857    
  13000000   29.777485      61.040238      445.16815    
  13010000   38.412153      68.937409      502.76244    
  13020000   27.347754      65.09997       474.77589    
  13030000   39.406686      68.897561      502.47183    
  13040000   45.062778      50.802515      370.50415    
  13050000   46.326882      64.100585      467.48735    
  13060000   42.38542       72.974893      532.20792    
[...]
 404740000  -20.327207      41.04429       299.33714    
 404750000  -37.150616      42.67984       311.26526    
 404760000  -35.112143      38.377326      279.8869     
 404770000  -21.369251      37.513625      273.58791    
 404780000  -15.973008      33.949934      247.59781    
 404790000  -25.197971      42.24074       308.06289    
 404800000  -19.032045      33.567034      244.80531    
 404810000  -20.665844      42.835648      312.40157    
 404820000  -18.870817      45.089922      328.84205    
 404830000  -27.016627      39.631765      289.03556    
 404840000  -18.410974      32.873902      239.75028    
 404850000  -36.357343      43.34652       316.12737    
 404860000  -36.809818      46.93366       342.28849    
 404870000  -26.747117      35.951466      262.19504    
 404880000  -22.593484      30.892018      225.29634    
 404890000  -29.629943      41.487094      302.56653    
 404900000  -28.390792      38.65499       281.91192    
 404910000  -30.974542      38.620776      281.66239    
 404920000  -25.99403       50.634746      369.28061    
 404930000  -17.483225      38.19614       278.56551    
 404940000  -30.894185      47.371405      345.48097    
 404950000  -28.446457      39.70952       289.60263    
 404960000  -25.499499      34.930931      254.75225    
 404970000  -20.758081      39.903837      291.01979    
 404980000  -19.066866      41.308179      301.2617     
 404990000  -11.577363      46.616216      339.97336    
 405000000  -22.250695      47.98604       349.96352    
 405010000  -16.493153      45.520134      331.9796     
 405020000  -22.575982      43.456385      316.92862    
 405030000  -7.1460781      33.403745      243.61444    
 405040000  -18.064231      38.569234      281.28649    
 405050000  -24.297287      47.658439      347.57432    
 405060000  -21.282469      36.827444      268.58357    
 405070000  -25.371345      40.782033      297.4245     
 405080000  -18.692861      40.431072      294.86493    
 405090000  -15.996585      35.008028      255.31452    
 405100000  -24.33241       42.389758      309.14968    
 405110000  -36.137936      44.147535      321.9692     
 405120000  -22.445652      35.438597      258.45467    
 405130000  -30.084746      47.596548      347.12295    
 405140000  -26.060397      42.12258       307.20114    
 405150000  -39.252119      44.643299      325.58482    
 405160000  -27.609173      34.911686      254.61189    
 405170000  -28.538373      44.825481      326.91348    
 405180000  -25.746996      50.538647      368.57975    
 405190000  -14.789646      40.508173      295.42723    
 405200000  -10.837075      36.833811      268.63       
 405210000  -14.153406      39.465972      287.82643    
 405220000  -13.423079      33.786464      246.40562    
 405230000  -21.615826      48.846903      356.24182    
 405240000  -16.622339      35.631619      259.86239    
 405250000  -17.434255      44.192456      322.29681    
 405260000  -11.685401      35.894219      261.77754    
 405270000  -16.981048      42.090523      306.96735    
 405280000  -15.046625      47.618874      347.28577    
 405290000  -11.366065      43.643212      318.29116    
 405300000  -23.234303      46.27926       337.51592    
 405310000  -13.864533      36.949565      269.47421    
 405320000  -15.943338      36.861949      268.83521    
 405330000  -22.355787      50.902515      371.23346    
 405340000  -20.873494      48.759424      355.60384    
 405350000  -21.90569       48.388103      352.89578    
 405360000  -26.338158      39.960286      291.43147    
 405370000  -29.202272      36.669933      267.43484    
 405380000  -17.62919       30.029917      219.00901    
 405390000  -33.644364      42.28873       308.41288    
 405400000  -17.212904      47.192156      344.1737     
 405410000  -18.786999      41.384143      301.81571    
 405420000  -20.283906      44.793262      326.6785     
 405430000  -28.562266      48.804279      355.93096    
 405440000  -28.272054      39.680653      289.3921     
 405450000  -25.748932      43.32932       316.00194    
 405460000  -20.659306      39.682339      289.4044     
 405470000  -22.246914      39.66339       289.26621    
 405480000  -3.1775667      43.583796      317.85783    
 405490000  -6.9653086      34.867953      254.29295    
 405500000  -5.6970122      39.425457      287.53095    
 405510000  -1.0015968      38.392272      279.99591    
 405520000  -22.212078      40.535869      295.62921    
 405530000  -30.030641      43.74128       319.00637    
 405540000  -21.553341      34.815417      253.9098     
 405550000  -33.254184      48.799104      355.89322    
 405560000  -19.229618      35.77091       260.87824    
 405570000  -25.448913      39.620569      288.95391    
 405580000  -23.917417      41.197258      300.45274    
 405590000  -24.6231        46.628853      340.06552    
 405600000  -17.646091      47.397308      345.66988    
 405610000   2.1484984      35.252998      257.1011     
 405620000  -1.0625502      44.923921      327.63141    
 405630000  -9.9811208      46.353636      338.05835    
 405640000   3.3004276      40.006521      291.76867    
 405650000  -4.0546893      41.724871      304.30064    
 405660000  -0.36179526     40.498547      295.35702    
 405670000  -10.666135      38.661395      281.95863    
 405680000  -15.627094      39.345303      286.94638    
 405690000  -11.791236      35.86863       261.59091    
 405700000  -3.9208621      47.052366      343.15421    
 405710000  -7.487181       41.966526      306.06304    
 405720000  -18.478928      52.623413      383.78401    
 405730000   1.5748532      43.928637      320.37277    
 405740000  -12.567711      41.019001      299.15271    
 405750000  -22.406938      39.792875      290.21054    
 405760000  -19.287449      39.387324      287.25285    
 405770000  -11.882162      40.785602      297.45053    
 405780000  -14.676767      45.602195      332.57807    
 405790000  -9.4298829      46.445355      338.72727    
 405800000  -22.705354      46.120215      336.35601    
 405810000  -27.257712      50.769649      370.26446    
 405820000  -33.721729      37.217297      271.42678    
 405830000  -16.896783      35.012087      255.34412    
 405840000  -22.280081      37.515543      273.60189    
 405850000  -24.225495      34.5471        251.95296    
 405860000  -25.942801      32.974289      240.48241    
 405870000  -24.322053      45.43254       331.34078    
 405880000  -26.240503      38.868021      283.46556    
 405890000  -34.790022      41.868343      305.34699    
 405900000  -23.16511       37.128244      270.77731    
 405910000  -30.761861      39.29073       286.54839    
 405920000  -41.917544      37.240451      271.59564    
 405930000  -19.396293      38.539672      281.0709     
 405940000  -22.769568      39.974288      291.53359    
 405950000  -38.034678      53.800033      392.36513    
 405960000  -10.700173      42.869824      312.65082    
 405970000  -24.118156      47.929068      349.54803    
 405980000  -25.071695      45.154306      329.31161    
 405990000  -13.267284      35.853578      261.48114    
 406000000  -15.704004      48.452139      353.3628     
 406010000  -24.787415      46.115079      336.31855    
 406020000  -21.67714       48.397478      352.96415    
 406030000  -27.093966      43.886229      320.06349    
 406040000  -16.404597      42.783286      312.01969    
 406050000  -21.004045      47.115161      343.61217    
 406060000  -21.242685      35.137071      256.25563    
 406070000  -24.924068      37.854192      276.07168    
 406080000  -13.362372      33.969227      247.73851    
 406090000  -8.9395373      40.849443      297.91612    
 406100000  -23.159714      41.27445       301.01571    
 406110000  -22.835544      38.005383      277.17432    
 406120000  -20.684355      37.381794      272.62646    
 406130000  -17.69853       45.150967      329.28725    
 406140000  -20.782166      37.869217      276.18125    
 406150000  -21.436634      39.749616      289.89505    
 406160000  -23.86139       34.350869      250.52184    
 406170000  -26.433803      47.943304      349.65185    
 406180000  -1.486852       45.288502      330.2903     
 406190000  -5.2360861      41.919187      305.71779    
 406200000  -2.7816508      42.864003      312.60836    
 406210000  -20.590363      41.771361      304.6397     
 406220000  -18.472247      43.435107      316.77344    
 406230000  -25.152073      46.384976      338.28692    
 406240000  -14.393948      38.669705      282.01923    
 406250000  -16.960796      37.445592      273.09174    
 406260000  -13.370783      45.109789      328.98694    
 406270000  -9.0894012      45.603992      332.59118    
 406280000  -22.002877      38.156381      278.27555    
 406290000  -3.2890387      38.589116      281.43149    
 406300000  -2.54971        40.031367      291.94987    
 406310000  -6.9209823      46.960427      342.4837     
 406320000  -2.7027961      41.214146      300.57591    
 406330000  -16.363563      46.691473      340.52221    
 406340000  -6.135328       47.611877      347.23474    
 406350000  -2.7638783      57.875078      422.08455    
 406360000  -15.106812      56.453788      411.71905    
 406370000  -9.514109       45.484392      331.71893    
 406380000  -14.659867      46.889479      341.96627    
 406390000  -15.87567       42.706897      311.46259    
 406400000  -22.421051      36.660007      267.36245    
 406410000  -26.362411      40.289597      293.83315    
 406420000  -28.48437       47.802674      348.62623    
 406430000  -29.349979      45.663294      333.02367    
 406440000  -22.687803      34.775536      253.61895    
 406450000  -32.325684      39.386943      287.25007    
 406460000  -23.038981      38.354611      279.72124    
 406470000  -25.552194      43.378232      316.35865    
 406480000  -17.79933       35.420442      258.32227    
 406490000  -25.069529      41.187154      300.37906    
 406500000  -13.866291      40.992448      298.95906    
 406510000  -22.040205      45.963883      335.21587    
 406520000  -11.647631      43.705546      318.74576    
 406530000  -18.948485      36.431497      265.69592    
 406540000  -23.832903      45.148976      329.27274    
 406550000  -15.919811      41.543356      302.97685    
 406560000  -3.9993791      32.503853      237.05151    
 406570000  -7.8894446      39.368072      287.11244    
 406580000  -5.5892051      38.7258        282.42834    
 406590000  -19.382063      43.239778      315.3489     
 406600000  -23.232582      47.468462      346.18881    
 406610000  -5.5658995      36.796645      268.35895    
 406620000  -12.281169      50.027087      364.84894    
 406630000  -1.7053392      38.690263      282.16916    
 406640000  -8.8444752      36.126582      263.47217    
 406650000  -5.8000144      36.410662      265.54397    
 406660000   2.0036941      38.630552      281.73369    
 406670000  -8.1915703      40.384704      294.52677    
 406680000  -18.991931      36.98653       269.74379    
 406690000  -16.275566      41.780772      304.70833    
 406700000  -28.371207      44.46654       324.29571    
 406710000  -22.844925      41.307338      301.25556    
 406720000  -27.504476      42.331164      308.72236    
 406730000  -29.953911      38.57903       281.35794    
 406740000  -25.697857      41.262968      300.93197    
 406750000  -12.911835      38.735321      282.49777    
 406760000  -17.758593      48.100395      350.79752    
 406770000  -18.259872      48.83287       356.13948    
 406780000  -14.051163      51.205754      373.44499    
 406790000  -20.206195      44.608721      325.33264    
 406800000  -18.374974      53.931215      393.32185    
 406810000  -9.9279371      44.318065      323.21288    
 406820000  -7.9461594      45.427954      331.30733    
 406830000  -6.9244608      42.422658      309.38962    
 406840000  -17.37719       40.909784      298.35619    
 406850000  -28.22655       45.814988      334.12998    
 406860000  -14.975021      35.834106      261.33913    
 406870000  -24.586895      44.194953      322.31502    
 406880000  -23.659201      36.865989      268.86468    
 406890000  -20.241483      39.959425      291.4252     
 406900000  -13.082962      39.799868      290.26154    
 406910000  -5.3365742      40.964561      298.75568    
 406920000  -0.16437469     42.168753      307.53789    
 406930000  -7.6105223      44.80591       326.77075    
 406940000  -19.302478      46.83236       341.5497     
 406950000  -13.084358      40.705037      296.86297    
 406960000  -16.057217      38.689161      282.16113    
 406970000  -21.765061      40.242262      293.48794    
 406980000  -33.148095      36.604711      266.95917    
 406990000  -33.789539      25.666806      187.18873    
 407000000  -16.298765      34.237218      249.69298    
 407010000  -23.854261      46.584216      339.73998    
 407020000  -22.900573      47.254977      344.63186    
 407030000  -14.336821      47.373834      345.49869    
 407040000  -13.958841      42.929183      313.08373    
 407050000  -11.556687      40.830513      297.77806    
 407060000  -20.750536      50.025257      364.83559    
 407070000  -19.118088      40.135521      292.70947    
 407080000  -23.068992      39.807099      290.31428    
 407090000  -17.702402      44.113557      321.72139    
 407100000  -16.642897      45.717185      333.4167     
 407110000  -21.176312      35.435797      258.43425    
 407120000  -13.955902      33.542087      244.62337    
 407130000  -23.42987       39.106406      285.20411    
 407140000  -20.618707      44.685901      325.89551    
 407150000  -21.739381      45.882622      334.62324    
 407160000  -13.523954      52.392081      382.0969     
 407170000  -5.2157323      50.297977      366.82454    
 407180000  -16.258756      43.136717      314.59728    
 407190000  -14.46493       41.352665      301.58613    
 407200000  -13.83998       43.058084      314.0238     
 407210000  -6.2047416      35.235468      256.97325    
 407220000  -11.355998      42.936299      313.13562    
 407230000  -17.112826      36.365076      265.21151    
 407240000  -26.907988      45.721178      333.44582    
 407250000  -28.233746      34.565707      252.08866    
 407260000  -17.992256      30.815041      224.73495    
 407270000  -25.16107       44.449746      324.17323    
 407280000  -21.348769      45.429114      331.31579    
 407290000  -24.349458      43.055194      314.00273    
 407300000  -13.880771      38.73788       282.51644    
 407310000  -23.799176      36.847601      268.73058    
 407320000  -5.0639252      38.200887      278.60013    
 407330000  -7.0901435      49.384809      360.16478    
 407340000  -17.096386      47.876841      349.16713    
 407350000  -11.35145       44.006851      320.94318    
 407360000  -16.967893      38.746658      282.58045    
 407370000  -17.66201       42.46479       309.6969     
 407380000  -20.387024      47.424937      345.87138    
 407390000  -11.896725      46.805747      341.35562    
 407400000  -16.083883      40.208512      293.24179    
 407410000  -18.290033      37.642127      274.52508    
 407420000  -11.704666      38.003345      277.15945    
 407430000  -26.566679      35.904179      261.85017    
 407440000  -28.068466      38.788622      282.8865     
 407450000  -32.07047       43.873153      319.96813    
 407460000  -28.190669      41.938013      305.85509    
 407470000  -25.719906      40.700422      296.82931    
 407480000  -30.95201       44.658891      325.69853    
 407490000  -25.144976      38.401895      280.06609    
 407500000  -15.870656      40.870207      298.06755    
 407510000  -6.7713174      35.842874      261.40308    
 407520000  -21.014096      44.691115      325.93355    
 407530000  -22.008162      50.965189      371.69053    
 407540000  -26.522371      35.971973      262.3446     
 407550000  -28.434556      44.524403      324.71771    
 407560000  -9.964109       38.35682       279.73735    
 407570000  -21.781257      43.201399      315.069      
 407580000  -24.521296      33.356556      243.27029    
 407590000  -26.333308      33.081856      241.2669     
 407600000  -23.311175      40.411746      294.72399    
 407610000  -21.742958      44.677502      325.83427    
 407620000  -27.196616      49.836273      363.45732    
 407630000  -23.402304      31.548954      230.0874     
 407640000  -26.484209      32.777057      239.04399    
 407650000  -23.085475      37.560096      273.92682    
 407660000  -32.65643       43.559105      317.67776    
 407670000  -33.851712      41.335887      301.46377    
 407680000  -30.990427      47.162152      343.95488    
 407690000  -23.567473      35.005072      255.29296    
 407700000  -21.79383       39.072919      284.95988    
 407710000  -26.354764      40.35305       294.29591    
 407720000  -32.343663      41.721045      304.27274    
 407730000  -24.362267      34.150842      249.06304    
 407740000  -33.785193      40.576563      295.926      
 407750000  -26.228974      42.766267      311.89557    
 407760000  -9.9986264      42.260036      308.20362    
 407770000  -27.617394      44.691131      325.93366    
 407780000  -14.672439      37.461221      273.20572    
 407790000  -26.821422      40.499273      295.36232    
 407800000  -12.072293      35.458463      258.59956    
 407810000  -29.854919      38.79366       282.92324    
 407820000  -25.259231      30.771875      224.42014    
 407830000  -37.904352      40.468176      295.13553    
 407840000  -23.337092      44.89051       327.38774    
 407850000  -22.488597      35.571503      259.42396    
 407860000  -20.34777       38.291802      279.26317    
 407870000  -21.349771      42.071779      306.83065    
 407880000  -15.428771      41.673257      303.92422    
 407890000  -20.564197      45.207448      329.69917    
 407900000  -27.956904      44.469676      324.31858    
 407910000  -22.375708      39.293448      286.56821    
 407920000  -26.047483      35.667864      260.12672    
 407930000  -34.579985      50.065247      365.12724    
 407940000  -12.974387      33.201571      242.13998    
 407950000  -27.402431      55.580373      405.3492     
 407960000  -21.499012      47.392754      345.63667    
 407970000  -14.790904      43.278901      315.63423    
 407980000  -31.659814      55.73187       406.45408    
 407990000  -14.375267      38.405919      280.09543    
 408000000  -25.623468      44.150352      321.98975    
Loop time of 138.244 on 1 procs for 4000000 steps with 47 atoms

Performance: 24999.342 ns/day, 0.001 hours/ns, 28934.423 timesteps/s, 1.360 Matom-step/s
99.2% CPU use with 1 MPI tasks x 1 OpenMP threads

MPI task timing breakdown:
Section |  min time  |  avg time  |  max time  |%varavg| %total
---------------------------------------------------------------
Pair    | 119.09     | 119.09     | 119.09     |   0.0 | 86.15
Bond    | 9.7497     | 9.7497     | 9.7497     |   0.0 |  7.05
Neigh   | 1.1896     | 1.1896     | 1.1896     |   0.0 |  0.86
Comm    | 2.0077     | 2.0077     | 2.0077     |   0.0 |  1.45
Output  | 0.34739    | 0.34739    | 0.34739    |   0.0 |  0.25
Modify  | 5.1951     | 5.1951     | 5.1951     |   0.0 |  3.76
Other   |            | 0.6628     |            |       |  0.48

Nlocal:             47 ave          47 max          47 min
Histogram: 1 0 0 0 0 0 0 0 0 0
Nghost:             41 ave          41 max          41 min
Histogram: 1 0 0 0 0 0 0 0 0 0
Neighs:            399 ave         399 max         399 min
Histogram: 1 0 0 0 0 0 0 0 0 0

Total # of neighbors = 399
Ave neighs/atom = 8.4893617
Ave special neighs/atom = 5.7446809
Neighbor list builds = 7403
Dangerous builds = 0
System init for write_data ...
Generated 0 of 6 mixed pair_coeff terms from geometric mixing rule
Total wall time: 2:15:46
