LAMMPS (29 Aug 2024)
  using 1 OpenMP thread(s) per MPI task
  using 1 OpenMP thread(s) per MPI task
Reading data file ...
  orthogonal box = (-50 -50 -50) to (50 50 50)
  1 by 1 by 1 MPI processor grid
  reading atoms ...
  42 atoms
  scanning bonds ...
  1 = max bonds/atom
  scanning angles ...
  1 = max angles/atom
  orthogonal box = (-50 -50 -50) to (50 50 50)
  1 by 1 by 1 MPI processor grid
  reading bonds ...
  40 bonds
  reading angles ...
  38 angles
Finding 1-2 1-3 1-4 neighbors ...
  special bond factors lj:    0        0        0       
  special bond factors coul:  0        0        0       
     2 = max # of 1-2 neighbors
     2 = max # of 1-3 neighbors
     4 = max # of 1-4 neighbors
     6 = max # of special neighbors
  special bonds CPU = 0.000 seconds
  read_data CPU = 0.007 seconds
Finding 1-2 1-3 1-4 neighbors ...
  special bond factors lj:    0        0        1       
  special bond factors coul:  0        0        0       
     2 = max # of 1-2 neighbors
     2 = max # of 1-3 neighbors
     4 = max # of 1-4 neighbors
     6 = max # of special neighbors
  special bonds CPU = 0.000 seconds

CITE-CITE-CITE-CITE-CITE-CITE-CITE-CITE-CITE-CITE-CITE-CITE-CITE

Your simulation uses code contributions which should be cited:
- Type Label Framework: https://doi.org/10.1021/acs.jpcb.3c08419
The log file lists these citations in BibTeX format.

CITE-CITE-CITE-CITE-CITE-CITE-CITE-CITE-CITE-CITE-CITE-CITE-CITE

Generated 0 of 6 mixed pair_coeff terms from geometric mixing rule
Neighbor list info ...
  update: every = 10 steps, delay = 0 steps, check = yes
  max neighbors/atom: 2000, page size: 100000
  master list distance cutoff = 33
  ghost atom cutoff = 33
  binsize = 16.5, bins = 7 7 7
  2 neighbor lists, perpetual/occasional/extra = 2 0 0
  (1) pair lj/cut, perpetual, trim from (2)
      attributes: half, newton on, cut 25
      pair build: trim
      stencil: none
      bin: none
  (2) pair base/rna, perpetual
      attributes: half, newton on
      pair build: half/bin/newton
      stencil: half/bin/3d
      bin: standard
Setting up Verlet run ...
  Unit style    : real
  Current step  : 0
  Time step     : 10
Per MPI rank memory allocation (min/avg/max) = 7.278 | 7.278 | 7.278 Mbytes
   Step         PotEng         KinEng          Temp     
         0   11081.633      0              0            
     10000   1312.8653      2361.9304      19326.31     
     20000   293.23104      703.77725      5758.6021    
     30000   120.22069      159.38477      1304.1533    
     40000   62.620082      69.01263       564.69042    
     50000   36.722005      52.037446      425.79231    
     60000   28.711206      42.10231       344.49884    
     70000   15.329311      42.741562      349.72947    
     80000   8.2549997      32.889938      269.11933    
     90000   17.653405      29.801717      243.8502     
    100000   6.8442139      40.360583      330.2473     
    110000   14.722489      43.168297      353.22119    
    120000   11.395443      38.875781      318.09803    
    130000   1.5997168      51.480499      421.23514    
    140000  -1.3174737      37.127834      303.79558    
    150000   2.1436915      26.975378      220.72391    
    160000  -6.8742502      44.754936      366.20374    
    170000   4.0864344      32.353692      264.73154    
    180000   9.0287163      37.904268      310.14869    
    190000  -9.7948394      39.763714      325.36346    
    200000  -12.348875      39.492594      323.14505    
    210000  -3.2887182      30.823857      252.21378    
    220000  -17.750656      46.941494      384.09508    
    230000   1.1439102      33.055478      270.47385    
    240000  -1.7316985      32.873018      268.98088    
    250000   2.4417638      37.011835      302.84643    
    260000  -3.2297987      35.795586      292.89457    
    270000  -1.2648038      33.783271      276.42896    
    280000   3.5815792      37.46991       306.59459    
    290000   8.5827346      36.301168      297.03145    
    300000  -4.3927092      36.548511      299.05532    
    310000  -0.75682805     36.667689      300.03049    
    320000  -8.9233715      30.938757      253.15394    
    330000   3.5590743      37.922211      310.29551    
    340000   1.1118131      42.558999      348.23566    
    350000   5.7518951      33.319396      272.63334    
    360000   10.276566      38.781851      317.32944    
    370000   12.102857      41.849763      342.43239    
    380000   12.090685      33.085173      270.71683    
    390000  -3.6745633      32.960635      269.6978     
    400000  -1.664452       35.854813      293.37919    
    410000  -3.6977128      30.863977      252.54206    
    420000  -0.54462164     31.740299      259.7125     
    430000  -12.606757      45.997604      376.37177    
    440000  -5.7330341      35.004209      286.41919    
    450000  -5.5373823      25.480934      208.49574    
    460000   1.6634987      37.345656      305.57789    
    470000  -7.7984387      40.731912      333.28567    
    480000  -7.7879787      38.380551      314.04584    
    490000  -11.744615      50.28284       411.43538    
    500000  -4.0878775      37.602254      307.67749    
    510000  -7.6957666      40.474572      331.18       
    520000  -22.200614      36.61998       299.64011    
    530000  -7.1632511      33.570332      274.6866     
    540000  -16.997938      40.413717      330.68206    
    550000  -13.605911      38.087887      311.65114    
    560000  -19.756716      39.483131      323.06761    
    570000  -18.379773      33.774112      276.35402    
    580000  -4.6940461      34.460785      281.97266    
    590000  -21.53128       38.455964      314.66291    
    600000  -12.001882      34.392435      281.4134     
    610000  -19.141795      44.163712      361.36611    
    620000  -11.865656      40.263317      329.45142    
    630000  -18.349131      37.517549      306.98439    
    640000  -19.119682      37.059016      303.23249    
    650000  -25.605467      53.69247       439.33441    
    660000  -18.919579      39.491791      323.13847    
    670000  -15.51472       50.292329      411.51303    
    680000  -2.4929462      41.279764      337.76842    
    690000  -1.2147818      42.728412      349.62187    
    700000  -3.2454999      42.570014      348.32579    
    710000   1.7995748      30.949802      253.24433    
    720000  -0.12886812     33.518681      274.26397    
    730000  -4.8418403      31.537075      258.04963    
    740000   2.1718246      42.994798      351.80155    
    750000   0.85879205     41.644619      340.75382    
    760000   7.6098035      37.036929      303.05176    
    770000  -2.5305621      35.911796      293.84545    
    780000  -6.8949731      32.994143      269.97198    
    790000  -6.329718       32.645724      267.12107    
    800000  -15.220413      42.849788      350.61502    
    810000  -11.922944      34.006627      278.25655    
    820000  -12.499786      36.083775      295.25265    
    830000  -26.965898      37.254748      304.83405    
    840000  -36.319218      37.143407      303.92301    
    850000  -22.409094      39.934893      326.76412    
    860000  -30.390939      44.180793      361.50587    
    870000  -24.141607      44.959849      367.88043    
    880000  -17.961079      37.467719      306.57667    
    890000  -18.671317      40.755614      333.47961    
    900000  -12.579904      34.872118      285.33837    
    910000  -17.736476      33.535613      274.40252    
    920000  -34.707668      41.055904      335.9367     
    930000  -23.659252      31.881933      260.87141    
    940000  -30.853565      38.781167      317.32385    
    950000  -14.569428      32.622376      266.93002    
    960000  -14.884163      38.934716      318.58025    
    970000  -12.385502      36.621958      299.65629    
    980000  -16.148733      41.424952      338.95641    
    990000  -17.721092      40.522112      331.569      
   1000000  -18.148628      31.461904      257.43456    
   1010000  -21.28969       39.934123      326.75782    
   1020000  -29.946102      45.873072      375.3528     
   1030000  -23.018191      25.171022      205.95991    
   1040000  -27.212974      40.454591      331.01651    
   1050000  -13.945543      34.274522      280.44858    
   1060000  -30.642996      53.299448      436.11854    
   1070000  -21.998696      38.680346      316.49889    
   1080000  -20.93811       42.901887      351.04132    
   1090000  -23.829491      33.902192      277.40202    
   1100000  -24.979762      43.102951      352.68651    
   1110000  -21.051178      34.210353      279.92353    
   1120000  -27.619478      42.470382      347.51056    
   1130000  -19.597517      39.318766      321.72271    
   1140000  -15.072433      45.783602      374.62073    
   1150000  -5.5461271      40.989942      335.39698    
   1160000  -10.18257       34.400358      281.47822    
   1170000  -20.269832      40.816398      333.97697    
   1180000  -21.092829      39.98759       327.19531    
   1190000  -14.183447      27.968572      228.85065    
   1200000  -18.385835      37.138778      303.88513    
   1210000  -24.260808      32.883672      269.06806    
   1220000  -19.731786      37.68707       308.37149    
   1230000  -27.720258      37.330759      305.456      
   1240000  -24.742615      36.604223      299.51118    
   1250000  -15.551186      41.799222      342.01885    
   1260000  -17.898855      33.704346      275.78316    
   1270000  -27.669729      43.056429      352.30584    
   1280000  -20.490354      34.216511      279.97391    
   1290000  -13.274633      39.497157      323.18238    
   1300000  -12.532809      37.900842      310.12066    
   1310000  -20.452209      31.715116      259.50645    
   1320000  -10.385914      28.211106      230.83516    
   1330000  -26.550939      39.0397        319.43928    
   1340000  -17.477626      34.470915      282.05555    
   1350000  -22.200438      45.673775      373.72207    
   1360000  -13.865502      43.637052      357.05674    
   1370000  -8.7092034      36.956747      302.39568    
   1380000  -24.026801      40.228365      329.16543    
   1390000  -20.566613      36.568868      299.22189    
   1400000  -12.889262      37.022167      302.93097    
   1410000  -11.179024      44.419442      363.45859    
   1420000  -13.502553      41.980535      343.50243    
   1430000  -5.5012774      36.269824      296.77498    
   1440000  -20.811626      27.456381      224.65968    
   1450000  -26.347627      38.912864      318.40145    
   1460000  -23.41628       34.88431       285.43812    
   1470000  -22.259002      30.919582      252.99705    
   1480000  -25.334962      33.885804      277.26792    
   1490000  -19.550088      34.936957      285.86891    
   1500000  -16.282947      35.689186      292.02396    
   1510000  -20.794637      36.009036      294.6411     
   1520000  -21.200554      33.033838      270.29678    
   1530000  -26.667443      43.727236      357.79467    
   1540000  -26.438557      36.10951       295.46322    
   1550000  -26.900353      31.816849      260.33886    
   1560000  -33.571743      29.463713      241.08452    
   1570000  -35.528696      28.677714      234.65314    
   1580000  -36.97698       33.523756      274.30549    
   1590000  -35.565557      33.50273       274.13346    
   1600000  -27.939034      30.835609      252.30995    
   1610000  -31.873109      36.546968      299.0427     
   1620000  -26.506203      32.277708      264.10981    
   1630000  -25.240689      39.849995      326.06945    
   1640000  -27.768877      35.066048      286.92518    
   1650000  -26.444972      35.891852      293.68226    
   1660000  -26.889243      39.428669      322.62198    
   1670000  -31.259955      31.230966      255.54493    
   1680000  -26.922863      34.682027      283.78296    
   1690000  -18.831777      30.297327      247.90549    
   1700000  -21.580941      34.378373      281.29834    
   1710000  -24.923296      32.813621      268.49488    
   1720000  -30.531708      36.689838      300.21171    
   1730000  -33.47047       31.450993      257.34528    
   1740000  -33.292633      26.951899      220.5318     
   1750000  -27.337913      26.500239      216.83612    
   1760000  -21.546302      35.148467      287.59956    
   1770000  -18.86003       32.822042      268.56378    
   1780000  -25.073545      45.638156      373.43062    
   1790000  -14.6714        31.379333      256.75893    
   1800000  -21.125599      35.145994      287.57933    
   1810000  -15.997296      39.318195      321.71804    
   1820000  -20.145601      34.675861      283.7325     
   1830000  -17.588542      36.41135       297.93301    
   1840000  -19.006512      29.748998      243.41883    
   1850000  -24.310479      32.294884      264.25035    
   1860000  -27.028753      35.353485      289.27711    
   1870000  -35.917842      39.79001       325.57863    
   1880000  -25.467007      38.204813      312.60788    
   1890000  -11.253556      34.899607      285.56329    
   1900000  -14.911295      40.169195      328.68128    
   1910000  -19.570558      32.89633       269.17163    
   1920000  -23.854927      39.82951       325.90183    
   1930000  -20.499484      32.783244      268.24631    
   1940000  -24.075079      40.358283      330.22848    
   1950000  -21.925636      39.799983      325.66023    
   1960000  -14.79097       30.763069      251.7164     
   1970000  -13.983545      37.114535      303.68677    
   1980000  -21.376356      36.17158       295.97111    
   1990000  -26.842534      39.95271       326.90991    
   2000000  -16.650526      36.679075      300.12365    
   2010000  -22.261184      31.158214      254.94964    
   2020000  -21.711849      29.292229      239.68136    
   2030000  -21.802785      33.290223      272.39464    
   2040000  -22.296608      31.084085      254.34308    
   2050000  -29.356823      32.330356      264.5406     
   2060000  -17.130136      30.597916      250.36504    
   2070000  -23.630337      47.341444      387.36764    
   2080000  -26.283186      53.811594      440.30914    
   2090000  -24.275523      41.075511      336.09714    
   2100000  -25.490073      37.727488      308.7022     
   2110000  -27.580434      28.889461      236.38575    
   2120000  -32.599396      34.253163      280.27381    
   2130000  -23.893097      31.151609      254.89559    
   2140000  -29.094017      30.554162      250.00703    
   2150000  -28.682973      39.792779      325.60128    
   2160000  -18.566714      40.942076      335.00532    
   2170000  -22.726448      36.745905      300.67048    
   2180000  -18.253113      26.413928      216.12989    
   2190000  -19.902768      34.244068      280.19939    
   2200000  -28.89886       31.934559      261.30202    
   2210000  -29.559817      31.335857      256.40319    
   2220000  -29.838798      37.812432      309.39725    
   2230000  -29.009422      32.748139      267.95908    
   2240000  -35.603867      33.235374      271.94584    
   2250000  -28.121923      35.676662      291.92148    
   2260000  -36.704982      33.003796      270.05097    
   2270000  -32.931497      39.05611       319.57355    
   2280000  -24.352699      38.544874      315.3904     
   2290000  -25.506198      31.420517      257.09591    
   2300000  -23.044477      40.89792       334.64402    
   2310000  -27.928707      48.323188      395.40068    
   2320000  -13.419614      39.690058      324.76078    
   2330000  -21.035455      37.573246      307.44013    
   2340000  -13.100151      25.545576      209.02467    
   2350000  -20.032626      40.45135       330.98999    
   2360000  -18.441646      44.957064      367.85764    
   2370000  -14.968211      42.602371      348.59055    
   2380000  -22.240766      35.1093        287.27909    
   2390000  -15.231227      35.50935       290.55247    
   2400000  -5.6432079      40.446623      330.95131    
   2410000  -15.631424      39.897588      326.45888    
   2420000  -17.053729      44.403196      363.32566    
   2430000  -18.448851      40.798414      333.82982    
   2440000  -18.159933      30.941881      253.17951    
   2450000  -16.971214      40.40888       330.64248    
   2460000  -17.302147      43.179056      353.30923    
   2470000  -14.639929      46.542502      380.83036    
   2480000  -18.600988      34.48513       282.17186    
   2490000  -30.637936      31.436344      257.22541    
   2500000  -24.499099      30.756332      251.66127    
   2510000  -30.211471      33.061016      270.51916    
   2520000  -25.171553      32.784148      268.25371    
   2530000  -22.219213      22.415876      183.41614    
   2540000  -21.401265      35.486115      290.36234    
   2550000  -18.580421      37.092544      303.50682    
   2560000  -18.640177      42.658891      349.05302    
   2570000  -22.231863      37.307202      305.26324    
   2580000  -22.074763      32.522338      266.11148    
   2590000  -27.535795      36.566733      299.20442    
   2600000  -25.064198      35.087815      287.10329    
   2610000  -23.151271      32.6965        267.53654    
   2620000  -6.7359309      33.385366      273.17313    
   2630000  -19.53448       36.788891      301.02221    
   2640000  -18.514761      34.470609      282.05305    
   2650000  -5.2156266      37.875431      309.91274    
   2660000  -22.964505      35.197278      287.99896    
   2670000  -22.928904      29.782542      243.69331    
   2680000  -15.113536      40.408994      330.64342    
   2690000  -22.217702      29.454658      241.01043    
   2700000  -18.008004      34.694365      283.88392    
   2710000  -22.400093      29.478304      241.2039     
   2720000  -27.666534      36.428089      298.06997    
   2730000  -23.099836      28.951982      236.89732    
   2740000  -29.904329      34.284587      280.53094    
   2750000  -18.547393      38.390974      314.13113    
   2760000  -16.500375      33.338035      272.78585    
   2770000  -28.695575      36.250351      296.61564    
   2780000  -25.512759      42.993745      351.79294    
   2790000  -22.716864      32.351439      264.71311    
   2800000  -15.835182      37.184892      304.26246    
   2810000  -22.839101      37.246234      304.76438    
   2820000  -15.404128      26.671124      218.23438    
   2830000  -24.772507      39.377192      322.20078    
   2840000  -13.124897      33.49704       274.0869     
   2850000  -17.730876      33.582881      274.78929    
   2860000  -12.597801      38.548371      315.41901    
   2870000  -3.90065        35.398494      289.6454     
   2880000  -14.81338       35.166354      287.74592    
   2890000  -20.734662      34.341192      280.99411    
   2900000  -27.232155      41.071702      336.06597    
   2910000  -12.267089      32.28269       264.15057    
   2920000  -20.833191      34.016194      278.33483    
   2930000  -17.620204      35.228333      288.25307    
   2940000  -19.160593      35.486471      290.36526    
   2950000  -15.242918      37.77322       309.0764     
   2960000  -4.5340704      34.40648       281.52832    
   2970000  -8.3047159      41.311062      338.02452    
   2980000  -11.449831      39.250066      321.16058    
   2990000  -10.208482      37.022551      302.93411    
   3000000  -12.582174      36.829069      301.35096    
   3010000  -16.095604      35.040308      286.71457    
   3020000  -13.169266      34.860564      285.24382    
   3030000  -25.77659       30.407371      248.80592    
   3040000  -18.003587      28.114307      230.04311    
   3050000  -22.439494      36.235988      296.49813    
   3060000  -23.961854      45.044464      368.57278    
   3070000  -23.46236       37.878899      309.94112    
   3080000  -27.966812      39.57535       323.82219    
   3090000  -13.104603      33.422972      273.48084    
   3100000  -26.468656      38.593295      315.78661    
   3110000  -12.912068      31.25193       255.71646    
   3120000  -14.671219      36.429413      298.08081    
   3130000  -22.536877      36.036998      294.8699     
   3140000  -21.451118      31.054834      254.10374    
   3150000  -17.592677      36.528843      298.89438    
   3160000  -5.3046887      32.730923      267.8182     
   3170000  -20.631355      36.348397      297.4179     
   3180000  -21.88972       36.364438      297.54916    
   3190000  -28.179233      36.035996      294.8617     
   3200000  -29.765972      36.960493      302.42632    
   3210000  -28.699393      35.301878      288.85484    
   3220000  -22.895086      33.173219      271.43726    
   3230000  -28.061887      34.712756      284.0344     
   3240000  -29.147518      38.837458      317.78445    
   3250000  -28.661365      41.472969      339.34931    
   3260000  -16.83483       44.560328      364.61138    
   3270000  -18.884847      33.290298      272.39525    
   3280000  -25.859529      41.497326      339.54861    
   3290000  -15.388501      39.238243      321.06384    
   3300000  -23.291192      47.792504      391.05841    
   3310000  -17.978887      41.385533      338.63387    
   3320000  -24.3017        30.219822      247.27132    
   3330000  -27.427748      33.564735      274.6408     
   3340000  -32.169543      36.778177      300.93454    
   3350000  -36.844111      34.665781      283.65003    
   3360000  -33.946906      28.490233      233.11909    
   3370000  -33.088579      44.724719      365.9565     
   3380000  -21.324788      28.694382      234.78953    
   3390000  -29.68767       31.032557      253.92146    
   3400000  -19.290767      33.902403      277.40375    
   3410000  -20.749415      36.500428      298.66188    
   3420000  -29.581086      45.824755      374.95746    
   3430000  -22.423662      38.204288      312.60359    
   3440000  -14.653306      36.204002      296.2364     
   3450000  -23.814784      39.977585      327.11345    
   3460000  -25.98465       40.703013      333.0492     
   3470000  -29.088975      41.0597        335.96777    
   3480000  -25.548294      34.726153      284.14402    
   3490000  -14.193353      34.190759      279.7632     
   3500000  -25.072551      39.174717      320.54404    
   3510000  -19.709854      37.65663       308.12242    
   3520000  -19.213363      41.10627       336.34882    
   3530000  -15.284822      32.583329      266.61053    
   3540000  -6.7634309      27.159553      222.23091    
   3550000  -15.581347      42.016737      343.79865    
   3560000  -12.615905      44.049947      360.43523    
   3570000  -14.323431      33.950432      277.79674    
   3580000  -28.84651       40.641497      332.54585    
   3590000  -27.809528      29.731886      243.27882    
   3600000  -36.467507      33.61416       275.04522    
   3610000  -29.5954        31.6115        258.65861    
   3620000  -16.278732      43.796732      358.36332    
   3630000  -30.141402      39.924954      326.6828     
   3640000  -22.846849      31.165458      255.00891    
   3650000  -12.92286       26.814289      219.40581    
   3660000  -20.82639       33.948406      277.78016    
   3670000  -26.536105      34.052977      278.63581    
   3680000  -32.719921      42.297312      346.09443    
   3690000  -17.332994      35.854587      293.37734    
   3700000  -27.302103      42.247262      345.6849     
   3710000  -21.276104      40.567857      331.9433     
   3720000  -9.4333241      33.187251      271.55207    
   3730000  -9.9300322      39.97643       327.104      
   3740000  -14.286614      34.404654      281.51338    
   3750000  -22.093151      38.784167      317.3484     
   3760000  -30.272851      38.080625      311.59172    
   3770000  -27.643919      33.994944      278.16096    
   3780000  -13.193975      33.007706      270.08296    
   3790000  -16.154528      27.132023      222.00565    
   3800000  -18.710306      45.43949       371.80505    
   3810000  -22.697365      35.968071      294.30591    
   3820000  -20.906618      36.862435      301.62397    
   3830000  -15.272653      35.616864      291.43219    
   3840000  -9.2865099      45.345281      371.0342     
   3850000  -14.062181      45.370824      371.2432     
   3860000  -3.6039823      35.030203      286.63188    
   3870000  -0.66814756     29.994776      245.42989    
   3880000  -21.044715      39.532368      323.47049    
   3890000  -13.267249      33.965473      277.91981    
   3900000  -17.025856      39.969356      327.04611    
   3910000  -13.367525      31.852242      260.62847    
   3920000  -24.074237      37.51776       306.98612    
   3930000  -18.183859      37.76535       309.01201    
   3940000  -4.1816137      34.896042      285.53412    
   3950000  -22.352067      36.302755      297.04444    
   3960000  -25.789447      34.064112      278.72691    
   3970000  -14.114196      40.94063       334.99349    
   3980000  -19.173544      38.492257      314.95987    
   3990000  -29.567701      42.161264      344.98123    
   4000000  -26.091314      31.289428      256.02328    
   4010000  -21.730379      34.806529      284.80169    
   4020000  -21.491335      39.631348      324.28039    
   4030000  -8.4293599      39.92954       326.72032    
   4040000  -23.81503       43.187452      353.37793    
   4050000  -14.225285      26.362819      215.71169    
   4060000  -12.666475      34.032616      278.4692     
   4070000  -17.195059      38.139651      312.0747     
   4080000  -14.361895      42.640524      348.90273    
   4090000  -11.6448        35.765628      292.64944    
   4100000  -17.036834      33.158462      271.31651    
   4110000  -9.7398845      38.349155      313.78895    
   4120000  -16.745152      45.410405      371.56707    
   4130000  -13.805885      32.790264      268.30375    
   4140000  -4.1915679      28.803655      235.68365    
   4150000  -13.408917      39.110636      320.0197     
   4160000  -17.12635       39.645761      324.39832    
   4170000  -17.538868      35.814193      293.04682    
   4180000  -22.364187      36.875443      301.73041    
   4190000  -21.491687      39.657208      324.49199    
   4200000  -25.669602      39.508046      323.27148    
   4210000  -23.344332      35.46187       290.16397    
   4220000  -29.772085      35.527569      290.70154    
   4230000  -28.627343      37.713337      308.58641    
   4240000  -27.999644      37.223512      304.57846    
   4250000  -26.738978      36.334903      297.30749    
   4260000  -25.832936      32.629864      266.9913     
   4270000  -22.162518      39.304412      321.60526    
   4280000  -22.309693      38.439776      314.53044    
   4290000  -25.631286      31.060045      254.14637    
   4300000  -29.794806      30.088512      246.19688    
   4310000  -25.566862      36.45086       298.2563     
   4320000  -22.090561      42.092857      344.42149    
   4330000  -23.79504       44.020975      360.19817    
   4340000  -23.378671      40.873988      334.44819    
   4350000  -19.825581      34.801508      284.7606     
   4360000  -22.138885      38.639933      316.16821    
   4370000  -25.162938      31.85685       260.66617    
   4380000  -29.829217      36.625621      299.68627    
   4390000  -24.842079      35.539121      290.79606    
   4400000  -8.5045078      34.070113      278.77602    
   4410000  -26.79359       45.325125      370.86927    
   4420000  -25.176358      38.41598       314.33574    
   4430000  -14.377192      29.969734      245.22499    
   4440000  -22.635607      35.054738      286.83264    
   4450000  -23.849054      31.16863       255.03486    
   4460000  -22.294281      30.821551      252.19492    
   4470000  -22.568964      40.866789      334.38929    
   4480000  -18.848251      30.19155       247.03999    
   4490000  -31.575012      31.373161      256.70843    
   4500000  -21.561283      26.531151      217.08906    
   4510000  -31.371338      31.342242      256.45543    
   4520000  -21.487959      29.479579      241.21434    
   4530000  -31.083136      33.967127      277.93335    
   4540000  -31.723375      37.028069      302.97926    
   4550000  -25.61134       30.354368      248.37223    
   4560000  -15.101572      28.728661      235.07001    
   4570000  -29.334397      45.421415      371.65715    
   4580000  -14.454166      37.919038      310.26955    
   4590000  -10.013156      37.10896       303.64115    
   4600000  -24.471627      33.737973      276.05831    
   4610000  -23.658661      40.026732      327.51559    
   4620000  -22.612287      35.074052      286.99067    
   4630000  -24.808489      42.00814       343.72831    
   4640000  -18.665363      35.668334      291.85334    
   4650000  -17.180816      36.844481      301.47707    
   4660000  -16.030329      37.465384      306.55756    
   4670000  -28.109023      36.501025      298.66677    
   4680000  -30.353323      30.452373      249.17415    
   4690000  -26.49948       28.840715      235.98688    
   4700000  -21.248867      31.070501      254.23193    
   4710000  -27.510381      34.021927      278.38174    
   4720000  -25.851738      30.053915      245.9138     
   4730000  -17.584637      37.660597      308.15487    
   4740000  -19.222875      35.4259        289.86964    
   4750000  -24.570176      30.26685       247.65612    
   4760000  -26.995164      38.759076      317.14309    
   4770000  -27.065508      36.762579      300.80691    
   4780000  -22.55579       36.317135      297.16211    
   4790000  -18.858931      36.907395      301.99186    
   4800000  -18.884207      38.858575      317.95723    
   4810000  -13.172646      41.043228      335.83299    
   4820000  -11.772654      35.514484      290.59447    
   4830000  -10.669327      34.03502       278.48888    
   4840000  -7.569604       34.383099      281.337      
   4850000   4.0349746      37.909727      310.19336    
   4860000  -2.404417       37.507373      306.90113    
   4870000  -20.970753      48.626656      397.88379    
   4880000  -19.113733      29.233365      239.19971    
   4890000  -4.1109507      36.050338      294.97906    
   4900000  -12.649987      37.142101      303.91232    
   4910000  -21.446463      37.883795      309.98118    
   4920000  -20.556926      29.718064      243.16573    
   4930000  -24.783311      34.346474      281.03732    
   4940000  -34.508575      35.624944      291.49831    
   4950000  -21.403992      29.754817      243.46645    
   4960000  -30.65229       37.183194      304.24856    
   4970000  -28.277006      34.065059      278.73467    
   4980000  -34.32067       31.298542      256.09786    
   4990000  -30.810588      33.670436      275.5057     
   5000000  -20.979037      40.222225      329.11519    
   5010000  -21.975002      37.833827      309.57232    
   5020000  -25.244076      33.14268       271.18737    
   5030000  -30.66267       36.068021      295.12374    
   5040000  -22.096659      37.768268      309.03589    
   5050000  -22.786717      39.223275      320.94136    
   5060000  -14.093405      34.187974      279.74041    
   5070000  -13.291936      37.909832      310.19422    
   5080000  -22.003614      32.946098      269.57886    
   5090000  -29.390914      35.865199      293.46417    
   5100000  -24.789618      36.096457      295.35642    
   5110000  -31.238525      34.396453      281.44627    
   5120000  -31.193493      30.038559      245.78815    
   5130000  -25.092179      31.728444      259.6155     
   5140000  -27.281174      31.47334       257.52813    
   5150000  -23.272353      31.111053      254.56375    
   5160000  -23.715308      32.134426      262.93741    
   5170000  -24.919755      34.699449      283.92551    
   5180000  -15.491464      39.456473      322.84949    
   5190000  -22.068054      34.445962      281.85138    
   5200000  -30.327101      26.855415      219.74232    
   5210000  -34.961046      32.861951      268.89033    
   5220000  -29.295502      36.706386      300.34712    
   5230000  -26.34816       37.642778      308.00908    
   5240000  -31.703371      35.252575      288.45143    
   5250000  -32.414481      30.376353      248.55212    
   5260000  -41.085268      40.044501      327.66098    
   5270000  -18.240102      30.496993      249.53925    
   5280000  -14.761812      35.639474      291.61719    
   5290000  -27.695171      35.968855      294.31233    
   5300000  -20.546133      37.372694      305.79913    
   5310000  -24.522559      32.92205       269.38209    
   5320000  -15.668378      34.68256       283.78732    
   5330000  -19.139038      45.949263      375.97624    
   5340000  -12.421726      32.957115      269.669      
   5350000  -18.726506      33.819739      276.72736    
   5360000  -22.055622      29.296761      239.71844    
   5370000  -27.474419      33.243398      272.01149    
   5380000  -25.418794      33.908227      277.4514     
   5390000  -15.725403      30.382237      248.60027    
   5400000  -23.487509      35.624367      291.49358    
   5410000  -16.741294      37.992729      310.87252    
   5420000  -24.937607      33.372006      273.06382    
   5430000  -22.932201      32.429299      265.35019    
   5440000  -23.212262      34.366596      281.20197    
   5450000  -12.525479      37.587285      307.555      
   5460000  -15.335601      32.218319      263.62386    
   5470000  -15.325958      30.496775      249.53746    
   5480000  -19.34751       40.047489      327.68543    
   5490000  -16.905825      48.38325       395.89214    
   5500000  -11.015571      41.703431      341.23505    
   5510000  -16.473574      40.651623      332.62871    
   5520000  -12.814136      38.435538      314.49577    
   5530000  -21.618841      37.553293      307.27687    
   5540000  -20.866627      39.515722      323.33429    
   5550000  -21.610922      35.107782      287.26667    
   5560000  -26.521256      36.177897      296.0228     
   5570000  -34.10502       40.680801      332.86746    
   5580000  -26.375102      39.898164      326.46359    
   5590000  -16.905285      37.370921      305.78462    
   5600000  -20.422498      34.238175      280.15118    
   5610000  -15.456849      33.320827      272.64504    
   5620000  -23.051139      33.222711      271.84222    
   5630000  -16.788029      34.274489      280.44832    
   5640000  -22.688985      34.978019      286.20489    
   5650000  -14.046188      33.767734      276.30183    
   5660000  -19.380868      34.896146      285.53497    
   5670000  -23.624824      30.575215      250.17929    
   5680000  -15.683591      33.432927      273.56229    
   5690000  -5.7147516      28.826818      235.87317    
   5700000  -24.159482      39.213402      320.86058    
   5710000  -19.359036      43.559613      356.42311    
   5720000  -10.013929      39.781024      325.5051     
   5730000  -15.365235      41.820533      342.19322    
   5740000   1.4742563      51.783775      423.71667    
   5750000  -12.037668      38.786965      317.37129    
   5760000  -20.359079      32.706079      267.61492    
   5770000  -17.593483      42.507292      347.81258    
   5780000  -18.367203      40.030005      327.54237    
   5790000  -24.405329      41.147966      336.69       
   5800000  -13.434866      32.987428      269.91704    
   5810000  -17.256783      34.118545      279.17231    
   5820000  -9.17598        37.949672      310.5202     
   5830000  -9.3192583      36.050921      294.98382    
   5840000  -15.601042      33.851926      276.99072    
   5850000  -26.836293      41.294769      337.8912     
   5860000  -23.761933      34.03035       278.45066    
   5870000  -27.443418      34.407267      281.53476    
   5880000  -32.14666       37.585066      307.53684    
   5890000  -15.488604      32.908872      269.27426    
   5900000  -20.931781      28.265354      231.27904    
   5910000  -22.78391       33.883016      277.24511    
   5920000  -26.11512       39.503066      323.23073    
   5930000  -25.268548      40.441877      330.91248    
   5940000  -25.291516      40.490852      331.31321    
   5950000  -24.237072      40.402605      330.59114    
   5960000  -23.286465      37.828923      309.53219    
   5970000  -26.22966       33.861772      277.07129    
   5980000  -18.28523       36.012888      294.67263    
   5990000  -8.6478837      34.761254      284.43123    
   6000000  -7.634928       42.942506      351.37368    
   6010000  -12.725423      37.498015      306.82456    
   6020000  -16.509259      36.56826       299.21692    
   6030000  -16.369129      35.21732       288.16295    
   6040000  -22.760509      43.485337      355.81535    
   6050000  -25.626823      31.021276      253.82916    
   6060000  -26.39045       35.238719      288.33805    
   6070000  -21.392364      34.707513      283.9915     
   6080000  -29.293513      38.650394      316.25381    
   6090000  -20.615708      33.458127      273.76849    
   6100000  -15.753812      38.327958      313.6155     
   6110000  -21.942083      38.870041      318.05106    
   6120000  -21.24173       38.584884      315.71778    
   6130000  -28.804651      40.159343      328.60067    
   6140000  -12.007708      26.619271      217.81009    
   6150000  -28.668763      34.386272      281.36297    
   6160000  -34.890993      30.256102      247.56818    
   6170000  -26.041264      32.039432      262.16013    
   6180000  -22.456788      31.743894      259.74192    
   6190000  -26.398362      37.419164      306.17937    
   6200000  -24.359864      40.329052      329.98929    
   6210000  -28.834539      38.857333      317.94707    
   6220000  -39.767519      38.303685      313.41689    
   6230000  -27.682309      33.083973      270.70701    
   6240000  -21.071182      31.213342      255.40072    
   6250000  -16.54834       40.435661      330.86162    
   6260000  -17.478405      32.653152      267.18185    
   6270000  -15.054549      36.282292      296.877      
   6280000  -13.423314      40.016153      327.42903    
   6290000  -10.663407      34.301074      280.66584    
   6300000  -9.5590961      35.49575       290.44119    
   6310000  -25.089743      32.247091      263.85928    
   6320000  -26.089533      36.926942      302.1518     
   6330000  -18.03932       32.806029      268.43275    
   6340000  -15.851858      45.226572      370.06287    
   6350000  -10.151777      37.953995      310.55558    
   6360000  -17.652236      36.947406      302.31925    
   6370000  -17.966464      31.032593      253.92175    
   6380000  -7.2333126      35.435971      289.95205    
   6390000  -6.4589705      37.325556      305.41343    
   6400000  -11.880047      39.873205      326.25937    
   6410000  -22.828288      38.697339      316.63794    
   6420000  -16.089102      31.023768      253.84954    
   6430000  -16.273016      37.602604      307.68035    
   6440000  -29.716507      40.947633      335.05079    
   6450000  -14.139664      33.433115      273.56383    
   6460000  -9.5662239      39.844336      326.02315    
   6470000   1.6443025      37.359524      305.69137    
   6480000  -0.046055051    36.746876      300.67843    
   6490000  -7.6038248      36.469343      298.40753    
   6500000  -6.9318492      37.831695      309.55487    
   6510000  -10.864017      35.042201      286.73005    
   6520000  -22.739186      39.524924      323.40959    
   6530000  -23.857367      34.862441      285.25918    
   6540000  -19.161495      33.427921      273.52133    
   6550000  -23.715155      29.383428      240.42759    
   6560000  -25.838378      25.303165      207.04116    
   6570000  -23.227516      36.102165      295.40313    
   6580000  -19.961862      42.111993      344.57807    
   6590000  -14.280426      37.374627      305.81495    
   6600000  -8.6072651      36.370531      297.59901    
   6610000  -9.0046783      42.017118      343.80177    
   6620000  -13.613929      39.460844      322.88525    
   6630000  -10.476717      40.511113      331.47899    
   6640000  -12.866049      43.454806      355.56553    
   6650000  -17.972129      32.787328      268.27973    
   6660000  -23.320895      39.356533      322.03173    
   6670000  -24.802048      31.594457      258.51916    
   6680000  -20.83801       30.757806      251.67333    
   6690000  -18.431301      35.410285      289.74187    
   6700000  -23.323101      35.882107      293.60252    
   6710000  -15.563527      28.165764      230.46415    
   6720000  -17.098733      33.189809      271.573      
   6730000  -18.920664      34.422845      281.66222    
   6740000  -28.207296      38.25948       313.05519    
   6750000  -26.440923      36.319752      297.18351    
   6760000  -24.69593       31.8776        260.83595    
   6770000  -11.832196      26.926138      220.32101    
   6780000  -16.415307      39.97548       327.09622    
   6790000  -24.755198      35.380634      289.49926    
   6800000  -27.660726      36.569934      299.23061    
   6810000  -29.011569      25.863218      211.62375    
   6820000  -32.121534      36.670291      300.05177    
   6830000  -25.485438      37.41473       306.14309    
   6840000  -13.604265      29.022499      237.47432    
   6850000  -21.987999      34.925897      285.77841    
   6860000  -23.326729      45.339296      370.98523    
   6870000  -22.541365      42.509126      347.82758    
   6880000  -15.999961      37.25433       304.83062    
   6890000  -12.924563      34.634017      283.39012    
   6900000  -12.680403      31.220946      255.46294    
   6910000  -18.38873       33.761204      276.2484     
   6920000  -11.433683      37.412102      306.12158    
   6930000  -18.107366      35.729553      292.35426    
   6940000  -15.622332      27.753703      227.09249    
   6950000  -18.775739      37.418591      306.17468    
   6960000  -19.582543      41.636376      340.68637    
   6970000  -28.32152       39.583453      323.8885     
   6980000  -18.580155      37.733706      308.75308    
   6990000  -13.627654      41.393965      338.70287    
   7000000  -26.236843      37.331748      305.4641     
   7010000  -28.208966      32.429655      265.3531     
   7020000  -21.705257      35.769157      292.67832    
   7030000  -14.818606      37.040156      303.07817    
   7040000  -21.989619      35.873972      293.53595    
   7050000  -20.79785       37.937685      310.42212    
   7060000  -22.375624      31.422291      257.11042    
   7070000  -24.1078        35.28656       288.7295     
   7080000  -21.357381      38.363064      313.90275    
   7090000  -23.427294      41.230767      337.36751    
   7100000  -18.578415      44.18208       361.5164     
   7110000  -19.175194      28.33888       231.88066    
   7120000  -20.931777      29.454206      241.00673    
   7130000  -20.102477      37.848393      309.6915     
   7140000  -26.181006      45.401053      371.49055    
   7150000  -24.940791      33.788197      276.46926    
   7160000  -19.678487      39.614407      324.14177    
   7170000  -15.00136       47.333293      387.30095    
   7180000  -5.53468        39.103044      319.95758    
   7190000  -10.005623      35.608331      291.36237    
   7200000  -13.801555      33.298337      272.46103    
   7210000  -23.876547      30.378374      248.56865    
   7220000  -23.698255      35.019039      286.54054    
   7230000  -23.462312      36.178914      296.03112    
   7240000  -23.747519      35.786953      292.82393    
   7250000  -15.168551      34.346322      281.03608    
   7260000  -19.778972      43.466007      355.65718    
   7270000  -4.7839111      32.15591       263.1132     
   7280000  -19.20202       42.460118      347.42658    
   7290000  -13.776563      35.453693      290.09706    
   7300000  -2.9722015      32.480502      265.76915    
   7310000  -29.331508      32.863665      268.90435    
   7320000  -27.097091      32.096105      262.62386    
   7330000  -24.501287      32.155951      263.11354    
   7340000  -22.163544      37.598948      307.65043    
   7350000  -17.304667      28.721811      235.01396    
   7360000  -19.388904      32.77351       268.16667    
   7370000  -24.720571      38.286018      313.27233    
   7380000  -23.361147      30.018125      245.62095    
   7390000  -16.549065      31.283815      255.97736    
   7400000  -26.090301      34.698998      283.92182    
   7410000  -27.057515      39.835601      325.95167    
   7420000  -27.251778      33.92835       277.61605    
   7430000  -28.723403      38.569185      315.58932    
   7440000  -25.881991      30.867535      252.57118    
   7450000  -31.150624      36.236128      296.49927    
   7460000  -20.406179      33.911711      277.47991    
   7470000  -25.738864      37.156762      304.03228    
   7480000  -16.027559      29.279555      239.57766    
   7490000  -19.755233      41.882485      342.70014    
   7500000  -15.243496      36.605011      299.51762    
   7510000  -21.073183      33.106564      270.89186    
   7520000  -19.786002      32.790717      268.30747    
   7530000  -25.668691      34.029245      278.44162    
   7540000  -27.883236      35.904354      293.78455    
   7550000  -25.690718      42.228738      345.53333    
   7560000  -30.488305      44.887528      367.28867    
   7570000  -19.937361      39.400391      322.3906     
   7580000  -31.115452      49.057162      401.40637    
   7590000  -13.803127      27.752642      227.08381    
   7600000  -22.352673      35.584797      291.1698     
   7610000  -9.9940073      33.155178      271.28964    
   7620000  -26.436544      39.556709      323.66966    
   7630000  -27.701257      36.267277      296.75414    
   7640000  -18.502774      43.318924      354.45369    
   7650000  -12.711835      47.038897      384.89208    
   7660000  -9.4315954      40.415954      330.70036    
   7670000  -14.216635      37.972615      310.70794    
   7680000  -5.8040519      34.909704      285.64591    
   7690000  -11.896639      39.586683      323.91492    
   7700000  -21.801207      41.24257       337.46409    
   7710000  -11.228802      32.940185      269.53048    
   7720000  -24.471981      36.135219      295.67359    
   7730000  -19.972415      39.379906      322.22299    
   7740000  -12.285664      38.499902      315.02242    
   7750000  -19.780675      36.684484      300.16791    
   7760000  -16.633314      44.531518      364.37564    
   7770000  -12.84203       43.161704      353.16725    
   7780000  -15.754826      45.655349      373.5713     
   7790000  -7.5132321      34.334398      280.93852    
   7800000  -9.8631558      35.141814      287.54513    
   7810000  -16.130974      34.461226      281.97628    
   7820000  -16.49604       40.667547      332.75901    
   7830000  -7.3722598      32.969258      269.76836    
   7840000  -8.1397551      28.979662      237.12381    
   7850000  -19.168913      35.343148      289.19253    
   7860000  -29.583981      35.505205      290.51855    
   7870000  -32.035267      33.731174      276.00268    
   7880000  -24.375097      42.294365      346.07031    
   7890000  -32.846795      49.970404      408.8789     
   7900000  -25.921514      38.722309      316.84225    
   7910000  -32.931539      36.088224      295.28905    
   7920000  -26.772601      37.171302      304.15125    
   7930000  -29.761504      37.767173      309.02693    
   7940000  -30.424825      35.748573      292.50989    
   7950000  -20.562833      36.476035      298.46229    
   7960000  -23.410255      38.134546      312.03293    
   7970000  -24.193976      42.861087      350.70747    
   7980000  -21.12817       39.344576      321.9339     
   7990000  -19.721013      45.321247      370.83754    
   8000000  -14.78867       34.152321      279.44868    
   8010000  -33.744672      43.239869      353.80683    
   8020000  -22.906254      37.365704      305.74194    
   8030000  -13.992991      36.618188      299.62545    
   8040000  -21.373823      37.047481      303.1381     
   8050000  -24.607199      39.519573      323.3658     
   8060000  -16.560571      40.30542       329.79593    
   8070000  -7.3639956      39.527817      323.43325    
   8080000  -0.10693365     33.680695      275.58964    
   8090000  -9.2891187      31.82281       260.38764    
   8100000  -21.830507      44.0743        360.63449    
   8110000  -18.841691      40.509128      331.46276    
   8120000  -11.201242      44.51088       364.20678    
   8130000  -17.912074      37.948107      310.5074     
   8140000  -15.907686      33.738336      276.06128    
   8150000  -22.386713      36.640944      299.81164    
   8160000  -25.564369      40.03161       327.5555     
   8170000  -16.946963      37.082276      303.42281    
   8180000  -22.024325      40.738069      333.33605    
   8190000  -8.1849807      27.480641      224.85818    
   8200000  -15.42445       41.865745      342.56316    
   8210000  -17.061235      37.062499      303.26098    
   8220000  -9.0193791      38.371397      313.97094    
   8230000  -1.0442939      37.74291       308.8284     
   8240000  -2.5910743      34.232648      280.10595    
   8250000  -14.881235      39.585302      323.90362    
   8260000  -19.10625       35.916288      293.8822     
   8270000  -35.393123      38.146803      312.13322    
   8280000  -28.333726      42.026561      343.87903    
   8290000  -15.084136      39.278058      321.38962    
   8300000  -23.222376      33.636515      275.22814    
   8310000  -22.884888      35.726681      292.33076    
   8320000  -28.882421      32.412039      265.20896    
   8330000  -25.637839      33.943391      277.73913    
   8340000  -18.561018      36.693445      300.24123    
   8350000  -31.683909      34.272648      280.43325    
   8360000  -24.17138       33.737735      276.05636    
   8370000  -24.879709      34.791877      284.6818     
   8380000  -25.564065      34.914631      285.68623    
   8390000  -20.404456      26.928648      220.34155    
   8400000  -31.776768      39.883921      326.34705    
   8410000  -30.540251      34.815462      284.87478    
   8420000  -21.254716      36.366973      297.5699     
   8430000  -23.846034      30.967876      253.39221    
   8440000  -17.907408      35.040636      286.71725    
   8450000  -23.183771      33.306596      272.5286     
   8460000  -27.512278      39.674597      324.63427    
   8470000  -27.98153       38.32247       313.5706     
   8480000  -28.797433      37.943248      310.46764    
   8490000  -28.307207      40.300467      329.7554     
   8500000  -31.929581      47.522563      388.84964    
   8510000  -28.312273      37.314901      305.32624    
   8520000  -10.311312      33.133899      271.11552    
   8530000  -10.698068      39.700671      324.84762    
   8540000  -9.1793268      26.483595      216.69993    
   8550000  -11.468222      38.079797      311.58495    
   8560000  -13.68576       35.654351      291.73893    
   8570000  -22.71493       33.951257      277.80349    
   8580000  -26.470326      41.934262      343.12381    
   8590000  -26.179467      35.281801      288.69056    
   8600000  -26.288992      49.441844      404.55401    
   8610000  -20.09571       30.359539      248.41454    
   8620000  -23.001354      31.892144      260.95496    
   8630000  -25.393738      35.216422      288.15561    
   8640000  -28.406145      31.063559      254.17513    
   8650000  -19.689224      30.862829      252.53267    
   8660000  -31.498435      34.312088      280.75596    
   8670000  -17.861669      30.294656      247.88364    
   8680000  -28.698903      30.364561      248.45564    
   8690000  -23.027363      34.349141      281.05915    
   8700000  -25.147222      40.874651      334.45362    
   8710000  -32.292598      40.315339      329.8771     
   8720000  -34.92602       32.120981      262.8274     
   8730000  -26.521053      25.754931      210.7377     
   8740000  -29.822212      29.671339      242.7834     
   8750000  -28.95907       33.951306      277.8039     
   8760000  -26.377133      30.468393      249.30523    
   8770000  -33.085072      35.126486      287.41971    
   8780000  -15.980353      43.607267      356.81304    
   8790000  -23.345536      41.028241      335.71035    
   8800000  -31.152304      51.199367      418.9348     
   8810000  -28.672419      39.227498      320.97592    
   8820000  -20.846985      32.924653      269.40338    
   8830000  -31.130674      43.784378      358.26223    
   8840000  -18.018095      38.5161        315.15496    
   8850000  -22.708581      39.373702      322.17222    
   8860000  -19.148625      41.499939      339.56999    
   8870000  -32.151848      42.516147      347.88503    
   8880000  -22.050186      40.226359      329.14902    
   8890000  -12.333959      37.366033      305.74463    
   8900000  -15.264584      33.698452      275.73493    
   8910000  -7.1606106      29.916021      244.78549    
   8920000  -15.154584      36.564267      299.18424    
   8930000  -11.117109      39.744263      325.20431    
   8940000  -0.75736633     38.50465       315.06127    
   8950000  -11.243355      35.088714      287.11065    
   8960000  -7.2785992      36.548887      299.0584     
   8970000  -16.905863      38.247295      312.95549    
   8980000  -10.089295      34.400339      281.47807    
   8990000  -24.852172      44.182698      361.52146    
   9000000  -15.99737       36.861614      301.61726    
   9010000  -24.970292      35.402378      289.67718    
   9020000  -15.266943      33.675608      275.54802    
   9030000  -24.982418      35.071752      286.97186    
   9040000  -23.174777      29.666334      242.74245    
   9050000  -22.02237       28.485418      233.0797     
   9060000  -34.842592      39.511497      323.29972    
   9070000  -18.426204      38.722763      316.84596    
   9080000  -7.5167476      35.649893      291.70245    
   9090000  -20.183362      48.424042      396.22591    
   9100000  -24.779138      41.504273      339.60545    
   9110000  -21.97049       37.067072      303.29841    
   9120000  -26.16935       42.29294       346.05866    
   9130000  -12.43294       37.20037       304.3891     
   9140000  -15.998883      34.325758      280.86782    
   9150000  -14.523009      39.120555      320.10087    
   9160000  -11.58853       35.731824      292.37284    
   9170000  -20.590413      34.2879        280.55805    
   9180000  -21.13191       37.63416       307.93856    
   9190000  -27.110072      41.826723      342.24388    
   9200000  -12.662611      42.88038       350.86534    
   9210000  -20.227501      37.454663      306.46984    
   9220000  -15.006586      43.847229      358.7765     
   9230000  -17.064191      41.636953      340.6911     
   9240000  -14.235925      31.623378      258.7558     
   9250000  -25.032886      33.36815       273.03227    
   9260000  -22.510791      37.855693      309.75123    
   9270000  -11.606717      27.851029      227.88886    
   9280000  -22.931885      34.153608      279.45921    
   9290000  -21.172294      41.598721      340.37826    
   9300000  -24.982903      41.555151      340.02176    
   9310000  -28.69761       38.784194      317.34862    
   9320000  -9.8407628      33.86727       277.11627    
   9330000  -17.893958      36.210772      296.2918     
   9340000  -21.104835      43.646768      357.13625    
   9350000  -24.194721      36.162158      295.89401    
   9360000  -32.204724      30.619843      250.54446    
   9370000  -31.102932      33.72824       275.97867    
   9380000  -37.005615      37.420967      306.19412    
   9390000  -29.543406      30.774558      251.8104     
   9400000  -29.787832      33.801075      276.57464    
   9410000  -16.226145      34.552792      282.72551    
   9420000  -14.494165      27.030274      221.17309    
   9430000  -26.905582      40.000142      327.29801    
   9440000  -14.62082       31.86307       260.71707    
   9450000  -11.618571      40.31002       329.83357    
   9460000  -7.5943578      37.557186      307.30872    
   9470000  -18.075009      41.479777      339.40501    
   9480000  -24.873287      36.930692      302.18248    
   9490000  -18.812042      36.919939      302.0945     
   9500000  -18.817309      38.483163      314.88545    
   9510000  -23.265721      39.168533      320.49344    
   9520000  -21.198633      41.511283      339.66281    
   9530000  -16.646573      40.550473      331.80106    
   9540000  -7.8925417      31.851689      260.62394    
   9550000  -17.842352      39.084753      319.80791    
   9560000  -20.508471      35.421742      289.83562    
   9570000  -14.09742       41.885428      342.72422    
   9580000  -19.491454      30.742781      251.55039    
   9590000  -15.498848      34.049343      278.60607    
   9600000  -17.944083      44.515373      364.24354    
   9610000  -14.888881      28.019323      229.26591    
   9620000  -24.250235      39.552731      323.63711    
   9630000  -14.112161      35.583618      291.16015    
   9640000  -25.47825       38.590472      315.7635     
   9650000  -22.754144      41.879936      342.67928    
   9660000  -24.791124      36.835923      301.40704    
   9670000  -14.740564      33.259514      272.14336    
   9680000  -12.215478      35.449584      290.06344    
   9690000  -9.0454456      30.43364       249.02087    
   9700000  -10.199017      36.713767      300.40751    
   9710000  -14.148945      37.085871      303.45223    
   9720000  -14.181068      38.129817      311.99423    
   9730000  -18.751354      29.715483      243.14461    
   9740000  -26.07415       39.927392      326.70275    
   9750000  -20.727783      39.759794      325.33139    
   9760000  -21.627277      42.928385      351.25814    
   9770000  -19.832325      36.818967      301.2683     
   9780000  -28.431254      43.415809      355.24644    
   9790000  -28.627753      40.702375      333.04399    
   9800000  -25.702702      31.796954      260.17607    
   9810000  -16.422667      35.141355      287.54138    
   9820000  -14.243057      30.355682      248.38298    
   9830000  -18.076068      35.220286      288.18722    
   9840000  -26.991685      40.341269      330.08927    
   9850000  -25.305109      38.320143      313.55155    
   9860000  -23.93918       37.471372      306.60656    
   9870000  -22.732093      32.51345       266.03875    
   9880000  -21.955992      34.085323      278.90047    
   9890000  -14.558228      31.700437      259.38633    
   9900000  -24.995167      36.378118      297.66109    
   9910000  -22.741434      40.638715      332.52309    
   9920000  -33.017301      46.486653      380.37338    
   9930000  -20.897954      42.082241      344.33463    
   9940000  -10.926878      28.082255      229.78085    
   9950000  -15.258618      30.703763      251.23113    
   9960000  -18.449154      36.470714      298.41875    
   9970000  -8.6654544      32.599291      266.74114    
   9980000  -25.196542      42.177416      345.11339    
   9990000  -26.116322      39.281042      321.41404    
  10000000  -21.458283      34.465512      282.01134    
  10010000  -24.518404      40.157351      328.58437    
  10020000  -16.672583      37.873394      309.89607    
  10030000  -9.8967298      37.52845       307.07359    
  10040000  -0.99066541     31.239117      255.61162    
  10050000  -9.6924324      35.486012      290.36151    
  10060000  -27.701027      38.149511      312.15537    
  10070000  -17.586189      36.294585      296.97759    
  10080000  -21.490818      42.390877      346.86002    
  10090000  -21.291479      41.766071      341.74759    
  10100000  -17.778254      35.35318       289.27462    
  10110000  -26.134961      39.182874      320.61079    
  10120000  -14.572852      40.351866      330.17597    
  10130000  -18.556634      40.320004      329.91526    
  10140000  -21.417187      34.852662      285.17917    
  10150000  -23.661607      40.960663      335.1574     
  10160000  -16.690614      31.474938      257.54121    
  10170000  -24.707767      32.989617      269.93495    
  10180000  -35.845064      37.946756      310.49634    
  10190000  -20.889489      30.503959      249.59625    
  10200000  -28.176883      38.742865      317.01045    
  10210000  -17.871102      27.452027      224.62405    
  10220000  -17.973793      33.721196      275.92104    
  10230000  -23.351848      40.71674       333.16152    
  10240000  -24.143357      43.091966      352.59663    
  10250000  -18.250412      33.55498       274.56099    
  10260000  -10.25661       33.260838      272.15419    
  10270000  -8.3345303      31.201015      255.29985    
  10280000  -25.653254      39.33794       321.8796     
  10290000  -21.755936      37.543102      307.19348    
  10300000  -27.330502      40.245856      329.30855    
  10310000  -23.465985      37.031051      303.00367    
  10320000  -22.267098      39.685691      324.72504    
  10330000  -26.019621      37.88026       309.95225    
  10340000  -28.461404      37.37764       305.8396     
  10350000  -18.714115      40.878985      334.48908    
  10360000  -16.595166      32.581276      266.59373    
  10370000  -22.348569      42.265111      345.83095    
  10380000  -15.971123      29.026448      237.50663    
  10390000  -19.63344       42.708664      349.46028    
  10400000  -14.984381      39.230093      320.99715    
  10410000  -18.701312      35.037321      286.69013    
  10420000  -12.696378      32.817083      268.5232     
  10430000  -13.575214      37.525483      307.04931    
  10440000  -19.529128      38.730852      316.91215    
  10450000  -27.109292      36.072248      295.15833    
  10460000  -19.792509      26.761361      218.97273    
  10470000  -19.539173      41.041815      335.82142    
  10480000  -27.799545      36.687888      300.19576    
  10490000  -27.850968      30.962461      253.34791    
  10500000  -29.182047      29.938749      244.97146    
  10510000  -32.667333      37.290119      305.12347    
  10520000  -36.50304       35.896139      293.71734    
  10530000  -39.061202      37.317065      305.34395    
  10540000  -26.577726      33.850948      276.98272    
  10550000  -22.449609      27.59057       225.75767    
  10560000  -26.924281      32.71414       267.68088    
  10570000  -22.434736      40.463256      331.08741    
  10580000  -16.374522      36.458767      298.321      
  10590000  -29.306942      41.624419      340.58853    
  10600000  -10.311015      34.334103      280.9361     
  10610000  -19.552957      35.326095      289.053      
  10620000  -19.120432      30.402449      248.76565    
  10630000  -19.200394      32.106783      262.71123    
  10640000  -21.874255      36.269396      296.77148    
  10650000  -22.416267      30.735364      251.4897     
  10660000  -28.769738      28.475984      233.0025     
  10670000  -35.123595      33.665064      275.46174    
  10680000  -24.231289      39.934074      326.75742    
  10690000  -22.339371      37.69466       308.43359    
  10700000  -14.415104      31.231091      255.54595    
  10710000  -15.073878      39.288152      321.47222    
  10720000  -10.395859      40.500844      331.39497    
  10730000  -20.33767       48.738407      398.79818    
  10740000   2.8748521      38.874138      318.08458    
  10750000  -4.9604525      37.728879      308.71358    
  10760000  -8.0719452      42.666526      349.11549    
  10770000  -10.179554      35.986874      294.45977    
  10780000  -2.511979       44.509002      364.19141    
  10790000  -0.21914101     36.653817      299.91698    
  10800000  -6.4068546      42.622135      348.75227    
  10810000  -23.106417      41.237262      337.42065    
  10820000  -19.831364      37.618991      307.81444    
  10830000  -26.998398      41.843334      342.37979    
  10840000  -24.297786      42.065804      344.20014    
  10850000  -7.1273664      35.029874      286.62919    
  10860000  -26.689277      43.167837      353.21744    
  10870000  -30.064275      36.435748      298.13264    
  10880000  -26.295195      27.175809      222.36392    
  10890000  -17.816929      38.217237      312.70954    
  10900000  -21.341023      37.907984      310.1791     
  10910000  -20.030499      38.00722       310.99109    
  10920000  -21.270543      34.353837      281.09757    
  10930000  -14.605998      34.517918      282.44015    
  10940000  -22.570927      29.191984      238.86111    
  10950000  -31.640545      34.45107       281.89317    
  10960000  -26.570577      31.319632      256.27043    
  10970000  -30.400256      32.765575      268.10174    
  10980000  -24.465857      33.936042      277.679      
  10990000  -24.689391      36.612255      299.5769     
  11000000  -18.090107      38.28778       313.28675    
  11010000  -13.934638      36.811835      301.20995    
  11020000  -23.613745      40.39677       330.54339    
  11030000  -25.168496      31.478807      257.57286    
  11040000  -31.7962        36.593918      299.42685    
  11050000  -33.182842      35.049955      286.7935     
  11060000  -22.299575      32.196117      263.44219    
  11070000  -20.613827      30.802317      252.03754    
  11080000  -10.337195      40.493912      331.33826    
  11090000  -12.056537      29.448999      240.96412    
  11100000  -20.551137      29.16297       238.62371    
  11110000  -12.128268      37.293257      305.14915    
  11120000  -20.176382      34.202064      279.8557     
  11130000  -22.987693      29.212873      239.03204    
  11140000  -19.029416      30.864189      252.5438     
  11150000  -20.568002      33.096826      270.81218    
  11160000  -25.935273      37.2645        304.91384    
  11170000  -19.842919      27.427664      224.42471    
  11180000  -22.539794      35.916867      293.88694    
  11190000  -24.441318      32.618803      266.90079    
  11200000  -23.52968       31.73134       259.63919    
  11210000  -25.705151      42.137378      344.78578    
  11220000  -29.256738      33.408899      273.36569    
  11230000  -17.673646      31.355152      256.56106    
  11240000  -9.7903574      34.536102      282.58894    
  11250000  -28.309553      35.606591      291.34813    
  11260000  -26.226328      30.910517      252.92288    
  11270000  -18.262185      35.088563      287.10941    
  11280000  -3.6445663      36.043761      294.92524    
  11290000  -14.331343      34.861308      285.24991    
  11300000  -19.776031      34.267338      280.3898     
  11310000  -22.713403      40.898314      334.64724    
  11320000  -14.762652      32.205767      263.52116    
  11330000  -24.541823      37.60945       307.73637    
  11340000  -22.504627      35.929906      293.99363    
  11350000  -20.264675      34.253364      280.27546    
  11360000  -22.737117      39.1963        320.72065    
  11370000  -10.485638      39.975825      327.09905    
  11380000  -7.8856379      40.424992      330.77432    
  11390000  -11.008527      51.51995       421.55794    
  11400000  -13.384446      44.190612      361.58621    
  11410000  -12.105876      37.224643      304.58771    
  11420000  -12.952055      42.20382       345.32944    
  11430000  -18.233535      38.637456      316.14795    
  11440000  -16.139129      41.946885      343.22709    
  11450000  -10.95546       33.440039      273.62049    
  11460000  -22.208632      35.534068      290.75472    
  11470000  -21.184665      39.067556      319.6672     
  11480000  -16.804128      43.193609      353.42831    
  11490000  -18.929346      38.366607      313.93175    
  11500000  -10.689181      37.633612      307.93407    
  11510000  -9.4602385      46.622175      381.48228    
  11520000  -7.2494699      37.90433       310.1492     
  11530000  -15.526983      32.976437      269.8271     
  11540000  -20.99057       40.454078      331.01232    
  11550000  -22.546459      43.789212      358.30178    
  11560000  -25.70639       34.460647      281.97153    
  11570000  -17.649301      32.009039      261.91145    
  11580000  -26.911565      43.678058      357.39228    
  11590000  -16.434864      33.440172      273.62158    
  11600000  -20.812777      36.868566      301.67414    
  11610000  -27.028581      34.425385      281.683      
  11620000  -25.280545      32.131511      262.91357    
  11630000  -13.406912      35.386585      289.54795    
  11640000  -13.67674       38.845069      317.84672    
  11650000  -14.802696      35.736375      292.41008    
  11660000  -27.935773      32.786936      268.27653    
  11670000  -16.960768      31.769043      259.94769    
  11680000  -15.023753      33.132949      271.10775    
  11690000  -26.177274      33.990304      278.12299    
  11700000  -20.992807      27.719537      226.81294    
  11710000  -23.945134      29.842709      244.18562    
  11720000  -23.741082      42.967444      351.57773    
  11730000  -9.2076692      40.893115      334.6047     
  11740000  -12.442982      45.594084      373.07001    
  11750000   5.1307837      33.1848        271.53202    
  11760000  -5.579407       38.587446      315.73874    
  11770000  -4.8640918      35.482733      290.33468    
  11780000  -16.222301      43.883306      359.0717     
  11790000  -19.683558      38.986144      319.00106    
  11800000  -22.225133      45.55266       372.73106    
  11810000  -17.488648      36.213987      296.3181     
  11820000  -26.182805      44.181214      361.50931    
  11830000  -25.611567      30.342183      248.27253    
  11840000  -30.237163      35.499769      290.47407    
  11850000  -26.560153      31.594302      258.5179     
  11860000  -28.980267      40.490304      331.30873    
  11870000  -11.03697       30.421087      248.91815    
  11880000  -20.442466      36.102906      295.40919    
  11890000  -21.052436      27.001002      220.93357    
  11900000  -30.09547       29.395619      240.52734    
  11910000  -37.646325      35.913595      293.86017    
  11920000  -29.589718      34.679345      283.76102    
  11930000  -24.734327      34.013922      278.31624    
  11940000  -17.768305      36.877992      301.75127    
  11950000  -28.976345      37.760915      308.97572    
  11960000  -26.569724      38.995916      319.08101    
  11970000  -11.600601      38.157582      312.22142    
  11980000  -22.530715      45.632769      373.38655    
  11990000  -30.31828       37.331134      305.45907    
  12000000  -32.577845      38.111821      311.84698    
  12010000  -31.938887      35.005356      286.42858    
  12020000  -17.036085      32.242941      263.82533    
  12030000  -31.900684      42.732387      349.65439    
  12040000  -27.423854      40.163676      328.63612    
  12050000  -18.085404      33.605612      274.97528    
  12060000  -25.467116      32.7619        268.07167    
  12070000  -20.171355      28.786334      235.54191    
  12080000  -15.407821      35.757586      292.58363    
  12090000  -13.448958      42.678262      349.21153    
  12100000  -18.505286      36.290083      296.94075    
  12110000  -16.015504      29.915506      244.78128    
  12120000  -19.578248      35.239508      288.3445     
  12130000  -12.808578      29.079244      237.93863    
  12140000  -8.9816009      30.274013      247.71473    
  12150000  -21.231661      39.487075      323.09989    
  12160000  -14.480896      30.985015      253.53245    
  12170000  -16.22521       28.06187       229.61404    
  12180000  -20.326587      36.002652      294.58887    
  12190000  -21.153918      41.281987      337.78662    
  12200000  -20.497591      29.994994      245.43168    
  12210000  -30.627111      33.811686      276.66147    
  12220000  -14.517338      27.491207      224.94464    
  12230000  -9.4626278      35.582304      291.1494     
  12240000  -12.600159      45.580986      372.96283    
  12250000  -18.831373      41.011282      335.57159    
  12260000  -20.086669      37.235925      304.68003    
  12270000  -28.270319      34.218439      279.98969    
  12280000  -21.312744      30.841715      252.35991    
  12290000  -19.404698      37.227048      304.60739    
  12300000  -8.8883822      30.558463      250.04222    
  12310000  -16.838526      38.756996      317.12607    
  12320000  -12.516017      39.559973      323.69637    
  12330000  -13.991754      34.568421      282.85339    
  12340000  -10.932994      46.287581      378.74449    
  12350000  -21.049115      42.475288      347.5507     
  12360000  -19.987462      37.85054       309.70907    
  12370000  -22.324601      35.62922       291.53329    
  12380000  -17.722333      34.304942      280.69749    
  12390000  -16.491322      38.561786      315.52879    
  12400000  -14.297832      31.707431      259.44356    
  12410000  -22.545668      35.477197      290.28938    
  12420000  -20.439244      34.38236       281.33096    
  12430000  -19.609445      29.770895      243.59801    
  12440000  -22.36515       39.93952       326.80198    
  12450000  -20.277595      35.372228      289.43047    
  12460000  -15.238596      36.394117      297.792      
  12470000  -8.965874       43.903607      359.23781    
  12480000  -15.451634      32.690825      267.4901     
  12490000  -22.48083       29.909358      244.73097    
  12500000  -27.16255       31.578139      258.38564    
  12510000  -35.018581      38.756364      317.1209     
  12520000  -27.488263      37.355169      305.65573    
  12530000  -27.965315      37.448963      306.4232     
  12540000  -39.880345      32.838667      268.69981    
  12550000  -26.092946      35.664374      291.82094    
  12560000  -30.676764      37.196001      304.35336    
  12570000  -28.949688      37.121302      303.74213    
  12580000  -23.829332      43.698682      357.56103    
  12590000  -13.611458      37.565747      307.37877    
  12600000  -14.45396       34.847525      285.13714    
  12610000  -29.657211      36.208899      296.27647    
  12620000  -22.591004      42.718609      349.54166    
  12630000  -11.903122      38.584311      315.71309    
  12640000  -24.034027      39.931237      326.73421    
  12650000  -13.690455      29.087277      238.00436    
  12660000  -20.891973      44.549426      364.52217    
  12670000  -13.050888      36.339145      297.3422     
  12680000  -17.803856      35.350552      289.25311    
  12690000  -24.699206      38.640685      316.17437    
  12700000  -18.711821      34.452969      281.90871    
  12710000  -25.574257      43.213479      353.5909     
  12720000  -27.074634      34.987657      286.28375    
  12730000  -17.43741       30.981867      253.50669    
  12740000  -16.926917      32.507494      265.99001    
  12750000  -27.674821      36.942592      302.27985    
  12760000  -13.527933      31.133411      254.74669    
  12770000  -20.901865      26.669165      218.21835    
  12780000  -28.935908      42.077625      344.29686    
  12790000  -37.849977      39.868013      326.21688    
  12800000  -25.588035      43.82792       358.61851    
  12810000  -21.5175        45.277588      370.4803     
  12820000  -29.455422      46.366235      379.38807    
  12830000  -28.363502      44.124621      361.04625    
  12840000  -16.158168      35.405517      289.70286    
  12850000  -20.88319       37.988114      310.83475    
  12860000  -14.123464      37.477193      306.65418    
  12870000  -24.988168      40.395495      330.53296    
  12880000  -19.975749      41.672473      340.98174    
  12890000  -18.354008      37.89769       310.09487    
  12900000  -20.967307      35.116143      287.33508    
  12910000  -15.473324      47.260195      386.70283    
  12920000  -18.462516      46.313524      378.95677    
  12930000  -17.504942      42.280054      345.95321    
  12940000  -17.026959      38.722671      316.84521    
  12950000  -30.989631      44.279721      362.31534    
  12960000  -24.706464      36.430522      298.08988    
  12970000  -21.57862       42.028652      343.89614    
  12980000  -13.05464       35.880019      293.58543    
  12990000  -9.6481901      37.546627      307.22232    
  13000000  -15.47431       51.3253        419.96524    
  13010000  -19.541263      40.874046      334.44867    
  13020000  -15.819795      45.623252      373.30867    
  13030000  -4.7351015      36.786194      301.00014    
  13040000   0.16837112     37.55276       307.27251    
  13050000  -4.567319       39.043562      319.47087    
  13060000  -8.9586424      39.474498      322.99697    
  13070000  -7.9966838      40.795379      333.80498    
  13080000  -1.9428306      41.581304      340.23575    
  13090000   0.22686267     37.922738      310.29983    
  13100000   10.766487      39.732542      325.1084     
  13110000   1.7443868      35.776144      292.73548    
  13120000  -2.555888       39.829574      325.90236    
  13130000  -0.8358172      41.452267      339.17992    
  13140000   0.027299796    36.163863      295.90796    
  13150000  -10.724981      35.324061      289.03635    
  13160000  -10.183851      28.966483      237.01597    
  13170000  -7.0065048      36.877319      301.74576    
  13180000   0.11225004     35.225767      288.23207    
  13190000  -7.9336864      36.572232      299.24941    
  13200000  -0.76846042     42.158479      344.95844    
  13210000   0.83074097     38.069415      311.5        
  13220000   0.46946773     36.250854      296.61977    
  13230000   11.465508      42.876186      350.83102    
  13240000  -0.040280469    43.458534      355.59604    
  13250000   2.602752       33.603069      274.95447    
  13260000   3.9657408      37.215217      304.51059    
  13270000  -0.97320935     49.028023      401.16794    
  13280000   12.363289      33.262631      272.16886    
  13290000   5.8961575      41.959981      343.33424    
  13300000   3.1058978      37.596867      307.63341    
  13310000  -0.13955574     33.453615      273.73158    
  13320000   3.6593297      32.595391      266.70922    
  13330000   7.707312       34.318428      280.80784    
  13340000  -0.26041785     37.40897       306.09595    
  13350000   6.30576        39.840992      325.99579    
  13360000   6.5605921      34.228016      280.06805    
  13370000  -2.5075201      37.992655      310.87191    
  13380000  -0.44459414     36.545851      299.03355    
  13390000   10.598146      30.502619      249.58528    
  13400000   6.6507679      32.996947      269.99492    
  13410000  -3.4384347      45.679202      373.76648    
  13420000  -6.7256472      39.021958      319.29411    
  13430000   2.3001606      30.111096      246.38168    
  13440000   4.4414479      34.079673      278.85425    
  13450000  -1.652551       33.742085      276.09196    
  13460000   7.7043969      26.641163      217.98922    
  13470000  -1.7835184      42.31363       346.22795    
  13480000  -4.0767846      31.383777      256.79528    
  13490000  -1.9058298      43.794285      358.34329    
  13500000  -1.5617963      37.713737      308.58968    
  13510000  -9.0043327      38.175199      312.36556    
  13520000  -13.00785       35.861329      293.43251    
  13530000  -3.0230861      35.396117      289.62594    
  13540000  -5.1053185      43.957759      359.68091    
  13550000   7.7220577      31.643133      258.91745    
  13560000   4.4683007      38.822316      317.66055    
  13570000   7.0423655      38.808364      317.54639    
  13580000  -5.28418        36.685129      300.17319    
  13590000   3.9026951      32.338327      264.60582    
  13600000   9.2187568      37.510219      306.92442    
  13610000   19.020072      41.74113       341.54352    
  13620000   10.757127      41.658704      340.86907    
[...]
 273840000  -9.9538305      34.041936      278.54546    
 273850000  -14.490137      44.413145      363.40707    
 273860000  -21.500411      38.076546      311.55835    
 273870000  -11.223276      36.133507      295.65958    
 273880000  -16.626253      41.994684      343.6182     
 273890000  -21.517771      33.189865      271.57346    
 273900000  -15.698816      34.793946      284.69873    
 273910000  -19.935053      47.920129      392.10268    
 273920000  -14.336749      43.822653      358.57542    
 273930000  -20.256836      40.692456      332.96282    
 273940000  -13.137892      31.517368      257.88838    
 273950000  -26.857376      37.474349      306.63092    
 273960000  -33.053467      32.75014       267.97545    
 273970000  -32.066287      40.173654      328.71777    
 273980000  -39.274936      39.484173      323.07614    
 273990000  -25.805513      32.427568      265.33603    
 274000000  -25.551985      30.323549      248.12005    
 274010000  -19.428839      28.650661      234.43178    
 274020000  -29.975233      33.468712      273.85511    
 274030000  -30.149679      30.20038       247.11223    
 274040000  -33.942882      35.237905      288.33139    
 274050000  -21.310842      31.256829      255.75654    
 274060000  -25.127247      37.422931      306.21019    
 274070000  -26.005323      39.394282      322.34061    
 274080000  -15.341601      29.582227      242.05425    
 274090000  -35.410513      37.551385      307.26126    
 274100000  -27.058957      36.228921      296.44029    
 274110000  -24.591612      35.354767      289.2876     
 274120000  -36.952665      39.601         324.03207    
 274130000  -30.01695       40.333222      330.02342    
 274140000  -20.748943      46.410403      379.74948    
 274150000  -24.359999      34.434051      281.75392    
 274160000  -24.501064      30.202727      247.13144    
 274170000  -23.625765      38.370806      313.96611    
 274180000  -17.614638      28.255539      231.19872    
 274190000  -19.543192      39.94991       326.887      
 274200000  -16.030482      38.233244      312.84052    
 274210000  -16.254369      32.258541      263.95297    
 274220000  -30.066363      33.16071       271.33491    
 274230000  -31.655633      35.958318      294.22611    
 274240000  -18.072507      30.285546      247.8091     
 274250000  -23.213404      36.648658      299.87476    
 274260000  -19.26304       35.905684      293.79544    
 274270000  -24.961411      39.599512      324.01989    
 274280000  -24.791162      34.222         280.01882    
 274290000  -20.969396      37.824399      309.49517    
 274300000  -27.784436      37.76055       308.97274    
 274310000  -27.476638      38.741829      317.00197    
 274320000  -18.083457      40.110014      328.19704    
 274330000  -21.77607       49.127152      401.97906    
 274340000  -14.902938      45.074901      368.82183    
 274350000  -12.848565      42.376342      346.74109    
 274360000  -9.666609       34.13065       279.27136    
 274370000  -23.643454      45.377477      371.29764    
 274380000  -30.03106       31.924043      261.21597    
 274390000  -29.554696      35.632248      291.55807    
 274400000  -25.13385       31.687782      259.28278    
 274410000  -25.658059      39.399426      322.38271    
 274420000  -16.658571      30.998366      253.64169    
 274430000  -13.646292      40.566249      331.93014    
 274440000  -17.370418      38.650258      316.2527     
 274450000  -30.990119      41.237571      337.42319    
 274460000  -19.966634      33.100682      270.84373    
 274470000  -22.479083      35.112018      287.30133    
 274480000  -15.031388      42.798079      350.19192    
 274490000  -3.7647498      34.102648      279.04224    
 274500000  -20.008553      38.077819      311.56876    
 274510000  -9.6127611      33.457856      273.76628    
 274520000  -23.87156       33.001807      270.03469    
 274530000  -28.503826      33.400215      273.29463    
 274540000  -28.47325       28.643629      234.37424    
 274550000  -35.551968      39.945824      326.85356    
 274560000  -19.910513      30.610168      250.4653     
 274570000  -24.773621      33.085939      270.7231     
 274580000  -19.782807      36.896971      301.90656    
 274590000  -13.459465      41.953064      343.27765    
 274600000  -19.740607      36.294514      296.97701    
 274610000  -14.11261       34.086521      278.91028    
 274620000  -29.99438       32.346201      264.67025    
 274630000  -28.373902      41.920163      343.00844    
 274640000  -24.566548      36.288856      296.93071    
 274650000  -24.554072      33.790605      276.48897    
 274660000  -19.571187      30.923173      253.02643    
 274670000  -30.508471      27.330829      223.63236    
 274680000  -34.354941      35.89921       293.74246    
 274690000  -34.934731      37.582241      307.51373    
 274700000  -31.83456       37.639952      307.98595    
 274710000  -28.572051      33.321119      272.64744    
 274720000  -36.908947      39.555838      323.66253    
 274730000  -28.166857      40.851407      334.26343    
 274740000  -18.954411      31.488308      257.65061    
 274750000  -28.105482      37.525066      307.04591    
 274760000  -17.619377      34.172575      279.61441    
 274770000  -22.304364      33.345462      272.84662    
 274780000  -28.425039      37.242336      304.73249    
 274790000  -14.928307      30.392046      248.68052    
 274800000  -22.050744      41.11418       336.41355    
 274810000  -20.379956      37.017636      302.8939     
 274820000  -16.546579      32.187487      263.37158    
 274830000   0.21453543     31.976178      261.64257    
 274840000  -15.8364        37.924979      310.31816    
 274850000  -11.508981      45.586145      373.00504    
 274860000  -21.063948      42.977774      351.66225    
 274870000  -23.860128      49.884634      408.17709    
 274880000  -18.554322      48.808816      399.3743     
 274890000  -15.316293      34.782997      284.60914    
 274900000  -13.029364      34.783168      284.61054    
 274910000  -7.0904396      41.085844      336.18169    
 274920000  -14.626762      28.490247      233.1192     
 274930000  -25.558789      38.543525      315.37937    
 274940000  -19.306116      29.461786      241.06875    
 274950000  -14.962999      30.916903      252.97513    
 274960000  -22.826484      39.3482        321.96356    
 274970000  -23.256327      31.656347      259.02557    
 274980000  -20.640303      39.9059        326.52689    
 274990000  -29.542143      36.096121      295.35368    
 275000000  -19.28101       34.712891      284.0355     
 275010000  -28.223927      32.934984      269.48792    
 275020000  -22.858768      35.168427      287.76289    
 275030000  -17.523302      38.595993      315.80868    
 275040000  -18.801341      37.266805      304.9327     
 275050000  -18.300337      34.766383      284.4732     
 275060000  -17.283367      37.612807      307.76384    
 275070000  -23.416688      35.143544      287.55928    
 275080000  -22.341867      34.780985      284.59267    
 275090000  -27.867655      41.75266       341.63786    
 275100000  -24.681876      34.427189      281.69777    
 275110000  -25.077962      36.363355      297.54029    
 275120000  -15.789521      36.21915       296.36035    
 275130000  -5.8664753      45.094457      368.98185    
 275140000  -5.0770773      40.62692       332.42658    
 275150000  -14.74948       44.461266      363.80082    
 275160000  -13.991247      37.115307      303.69308    
 275170000  -22.57222       33.027103      270.24167    
 275180000  -29.667967      35.458025      290.1325     
 275190000  -24.724406      42.578669      348.39661    
 275200000  -12.20655       33.883227      277.24684    
 275210000  -21.451196      42.372009      346.70563    
 275220000  -14.353799      33.425034      273.49772    
 275230000  -13.653645      31.911185      261.11076    
 275240000  -15.239753      36.403524      297.86898    
 275250000  -11.349216      33.10555       270.88356    
 275260000  -16.705416      34.598873      283.10256    
 275270000  -10.196157      33.249229      272.0592     
 275280000  -28.781302      37.620034      307.82297    
 275290000  -15.816564      33.927334      277.60774    
 275300000  -16.376165      43.352722      354.73024    
 275310000  -8.9791067      41.459572      339.23969    
 275320000  -10.442396      41.481641      339.42026    
 275330000  -28.846032      42.45319       347.36989    
 275340000  -16.739957      33.675187      275.54457    
 275350000   8.1916493      37.116045      303.69912    
 275360000  -4.8934792      34.392521      281.4141     
 275370000  -1.6352252      36.401595      297.85319    
 275380000  -8.8099195      37.425687      306.23274    
 275390000  -16.050167      41.19453       337.07101    
 275400000  -21.745129      38.325638      313.59652    
 275410000  -27.51032       40.552524      331.81784    
 275420000  -27.65364       35.092335      287.14027    
 275430000  -24.647504      27.784854      227.34739    
 275440000  -19.063286      35.055813      286.84143    
 275450000  -18.384189      40.127717      328.34189    
 275460000  -27.002885      37.566057      307.38131    
 275470000  -25.498388      31.366393      256.65304    
 275480000  -24.608704      33.987817      278.10264    
 275490000  -21.648853      35.021133      286.55767    
 275500000  -26.477382      31.068838      254.21833    
 275510000  -23.520104      34.476084      282.09785    
 275520000  -28.754915      32.297443      264.27129    
 275530000  -21.67572       23.705777      193.97066    
 275540000  -34.071563      31.333584      256.38459    
 275550000  -23.187863      41.699107      341.19966    
 275560000  -22.838576      36.388072      297.74254    
 275570000  -29.417557      33.940345      277.71421    
 275580000  -22.153897      37.318818      305.3583     
 275590000  -26.409636      40.47786       331.20691    
 275600000  -27.561673      38.798397      317.46483    
 275610000  -25.215346      33.082942      270.69857    
 275620000  -30.138553      36.788273      301.01715    
 275630000  -19.788239      35.123381      287.39431    
 275640000  -13.061628      29.466064      241.10375    
 275650000  -19.158597      37.435733      306.31494    
 275660000  -18.640154      41.490487      339.49265    
 275670000  -22.475261      40.018827      327.45091    
 275680000  -22.659831      40.528424      331.62064    
 275690000  -20.879755      48.232168      394.65592    
 275700000  -25.164126      40.818943      333.99779    
 275710000  -29.777677      42.527511      347.97802    
 275720000  -19.553831      39.588423      323.92915    
 275730000  -23.62848       41.250487      337.52886    
 275740000  -13.74445       30.48275       249.42271    
 275750000  -11.834332      34.681953      283.78235    
 275760000  -32.894022      40.845871      334.21813    
 275770000  -29.386968      43.303833      354.33021    
 275780000  -31.972894      42.337103      346.42001    
 275790000  -18.460956      34.545681      282.66732    
 275800000  -16.467857      36.84071       301.44621    
 275810000  -24.56561       35.380747      289.50018    
 275820000  -31.251647      36.394334      297.79378    
 275830000  -29.864601      36.773814      300.89884    
 275840000  -34.697119      24.584516      201.16087    
 275850000  -31.302282      38.598673      315.83061    
 275860000  -32.651205      32.825672      268.59348    
 275870000  -27.559517      34.575324      282.90987    
 275880000  -29.606492      38.786521      317.36766    
 275890000  -21.594689      43.772393      358.16416    
 275900000  -14.062322      33.569499      274.67979    
 275910000  -19.217514      31.246743      255.67402    
 275920000  -17.263614      34.823197      284.93807    
 275930000  -24.067734      35.242691      288.37055    
 275940000  -27.725706      40.220116      329.09794    
 275950000  -20.762735      37.59888       307.64988    
 275960000  -29.592911      39.953374      326.91534    
 275970000  -18.253024      34.178399      279.66206    
 275980000  -19.324873      32.865808      268.92189    
 275990000  -17.176367      35.082169      287.05709    
 276000000  -20.142377      40.851757      334.26629    
 276010000  -22.451441      37.787645      309.19444    
 276020000  -15.480086      43.644003      357.11363    
 276030000  -21.665053      39.428617      322.62156    
 276040000  -15.613841      33.28261       272.33234    
 276050000  -23.425865      37.171291      304.15117    
 276060000  -24.88606       33.482972      273.97179    
 276070000  -29.355028      45.819334      374.9131     
 276080000  -24.981481      28.600687      234.02287    
 276090000  -29.770748      37.538542      307.15617    
 276100000  -26.659441      28.925384      236.67968    
 276110000  -25.548591      30.765202      251.73384    
 276120000  -22.12006       37.803655      309.32543    
 276130000  -17.827555      31.198308      255.2777     
 276140000  -22.132674      35.253816      288.46158    
 276150000  -20.880622      41.614642      340.50854    
 276160000  -14.978361      26.836541      219.58788    
 276170000  -13.873116      34.838539      285.06361    
 276180000  -29.828725      41.704715      341.24555    
 276190000  -34.143781      31.383093      256.78969    
 276200000  -14.400155      33.700956      275.75542    
 276210000  -23.559449      30.503505      249.59253    
 276220000  -25.92545       25.545496      209.02401    
 276230000  -33.798711      35.036869      286.68642    
 276240000  -25.536784      36.484786      298.5339     
 276250000  -16.569379      42.473916      347.53948    
 276260000  -26.920433      39.49791       323.18854    
 276270000  -33.678304      38.50803       315.08893    
 276280000  -18.768183      30.392833      248.68697    
 276290000  -22.131893      33.396473      273.26402    
 276300000  -31.265811      37.925912      310.32579    
 276310000  -26.098008      33.611919      275.02689    
 276320000  -23.87824       35.301451      288.85135    
 276330000  -30.774799      41.054317      335.92372    
 276340000  -25.552652      40.046923      327.6808     
 276350000  -11.831188      35.668328      291.85329    
 276360000  -14.935337      28.202611      230.76565    
 276370000  -17.452234      34.184106      279.70876    
 276380000  -19.948712      38.82581       317.68913    
 276390000  -17.371925      34.599475      283.10748    
 276400000  -26.392362      34.795092      284.7081     
 276410000  -14.970136      35.121496      287.37888    
 276420000  -25.842067      31.619705      258.72575    
 276430000  -30.271477      42.963918      351.54888    
 276440000  -26.303359      32.798744      268.37315    
 276450000  -21.048144      31.934904      261.30484    
 276460000  -24.042319      43.771387      358.15594    
 276470000  -18.996032      35.924183      293.94681    
 276480000  -21.661678      36.716732      300.43177    
 276490000  -17.623228      39.813015      325.76686    
 276500000  -28.358442      38.382008      314.05776    
 276510000  -25.723959      38.224194      312.76646    
 276520000  -24.390167      38.655673      316.297      
 276530000  -16.814301      34.538336      282.60722    
 276540000  -26.582161      41.820479      342.19278    
 276550000  -18.584437      40.08062       327.95653    
 276560000  -14.296841      35.137782      287.51214    
 276570000  -13.82877       38.290362      313.30787    
 276580000  -27.568952      48.071257      393.33928    
 276590000  -31.776903      36.264878      296.73451    
 276600000  -32.677123      36.556026      299.11681    
 276610000  -26.854496      36.622215      299.65839    
 276620000  -24.867202      41.756888      341.67245    
 276630000  -25.676885      28.242097      231.08874    
 276640000  -13.830432      35.761707      292.61735    
 276650000  -24.628627      34.557193      282.76151    
 276660000  -19.42459       36.860477      301.60796    
 276670000  -17.694338      29.244696      239.29243    
 276680000  -24.007046      41.596213      340.35775    
 276690000  -31.127919      32.590354      266.66801    
 276700000  -23.839641      34.016601      278.33817    
 276710000  -18.940479      33.430465      273.54215    
 276720000  -10.209918      33.107578      270.90015    
 276730000  -29.455223      49.707148      406.72483    
 276740000  -18.063925      31.410975      257.01784    
 276750000  -25.633657      38.675061      316.45565    
 276760000  -26.735367      44.907423      367.45146    
 276770000  -35.655536      32.24934       263.87769    
 276780000  -31.718881      31.6299        258.80917    
 276790000  -34.133749      28.286003      231.44799    
 276800000  -30.418166      36.886759      301.82301    
 276810000  -31.147106      34.265879      280.37786    
 276820000  -20.296261      41.842305      342.37137    
 276830000  -27.375216      36.584916      299.3532     
 276840000  -22.090045      32.157037      263.12243    
 276850000  -18.07141       32.873565      268.98536    
 276860000  -32.565109      33.617295      275.07088    
 276870000  -30.177759      36.927361      302.15523    
 276880000  -20.954495      37.136989      303.87049    
 276890000  -23.407239      34.466463      282.01913    
 276900000  -32.82674       29.010193      237.37362    
 276910000  -28.9902        34.940308      285.89632    
 276920000  -23.15421       31.989714      261.75332    
 276930000  -22.913851      34.279418      280.48864    
 276940000  -20.169991      36.107473      295.44656    
 276950000  -14.029154      31.764135      259.90754    
 276960000  -13.493886      30.413023      248.85217    
 276970000  -23.323556      42.352705      346.54768    
 276980000  -27.951935      41.405215      338.79492    
 276990000  -26.298305      33.358897      272.95655    
 277000000  -31.656318      38.326986      313.60755    
 277010000  -23.283227      38.748968      317.06039    
 277020000  -26.532149      36.246071      296.58063    
 277030000  -27.253821      37.562703      307.35387    
 277040000  -18.092843      33.223051      271.845      
 277050000  -12.935118      32.818227      268.53256    
 277060000  -22.874957      37.99394       310.88242    
 277070000  -15.644667      33.475359      273.90949    
 277080000  -22.531546      35.644766      291.6605     
 277090000  -22.258633      37.750382      308.88953    
 277100000  -25.160078      34.884197      285.4372     
 277110000  -21.670038      34.306293      280.70855    
 277120000  -13.169768      42.497769      347.73465    
 277130000   1.6409437      36.304561      297.05922    
 277140000  -10.066562      37.286184      305.09127    
 277150000  -20.385062      40.553641      331.82698    
 277160000  -12.632598      45.245039      370.21397    
 277170000  -3.9999637      32.213454      263.58405    
 277180000   7.2843184      37.381145      305.86828    
 277190000   3.8338819      32.714234      267.68165    
 277200000   2.1572551      36.201459      296.21559    
 277210000   6.3498565      33.874273      277.17358    
 277220000   5.9625399      40.172336      328.70698    
 277230000   1.898739       31.348398      256.50581    
 277240000  -5.6778593      42.708645      349.46013    
 277250000   5.0538939      33.45053       273.70633    
 277260000   11.248605      36.827592      301.33887    
 277270000   3.4469727      48.486646      396.73817    
 277280000   6.5134522      35.577239      291.10796    
 277290000   7.0907792      45.05653       368.67152    
[2026-02-18T02:00:30.020] error: *** JOB 4854364 ON della-h12n18 CANCELLED AT 2026-02-18T02:00:30 DUE TO TIME LIMIT ***
[2026-02-18T02:00:30.021] error: *** STEP 4854364.0 ON della-h12n18 CANCELLED AT 2026-02-18T02:00:30 DUE TO TIME LIMIT ***
