LAMMPS (29 Aug 2024)
  using 1 OpenMP thread(s) per MPI task
  using 1 OpenMP thread(s) per MPI task
Reading data file ...
  orthogonal box = (-25 -25 -25) to (25 25 25)
  1 by 1 by 1 MPI processor grid
  reading atoms ...
  32682 atoms
Finding 1-2 1-3 1-4 neighbors ...
  special bond factors lj:    0        0        0       
  special bond factors coul:  0        0        0       
     0 = max # of 1-2 neighbors
     0 = max # of 1-3 neighbors
     0 = max # of 1-4 neighbors
     1 = max # of special neighbors
  special bonds CPU = 0.003 seconds
  read_data CPU = 0.096 seconds
ERROR: Numeric index 1 is out of bounds (1-0) (src/MOLECULE/bond_harmonic.cpp:129)
Last command: bond_coeff 1 7.5 5.9
srun: error: della-r3c4n16: task 0: Exited with exit code 1
srun: Terminating StepId=5048186.0
