LAMMPS (29 Aug 2024)
  using 1 OpenMP thread(s) per MPI task
  using 1 OpenMP thread(s) per MPI task
Reading data file ...
  orthogonal box = (-80 -80 -80) to (80 80 80)
  1 by 1 by 1 MPI processor grid
  reading atoms ...
  1032 atoms
  scanning bonds ...
  1 = max bonds/atom
  scanning angles ...
  1 = max angles/atom
  orthogonal box = (-80 -80 -80) to (80 80 80)
  1 by 1 by 1 MPI processor grid
  reading bonds ...
  931 bonds
  reading angles ...
  830 angles
Finding 1-2 1-3 1-4 neighbors ...
  special bond factors lj:    0        0        0       
  special bond factors coul:  0        0        0       
     2 = max # of 1-2 neighbors
     2 = max # of 1-3 neighbors
     4 = max # of 1-4 neighbors
     6 = max # of special neighbors
  special bonds CPU = 0.000 seconds
  read_data CPU = 0.017 seconds
Finding 1-2 1-3 1-4 neighbors ...
  special bond factors lj:    0        0        1       
  special bond factors coul:  0        0        0       
     2 = max # of 1-2 neighbors
     2 = max # of 1-3 neighbors
     4 = max # of 1-4 neighbors
     6 = max # of special neighbors
  special bonds CPU = 0.000 seconds

CITE-CITE-CITE-CITE-CITE-CITE-CITE-CITE-CITE-CITE-CITE-CITE-CITE

Your simulation uses code contributions which should be cited:
- Type Label Framework: https://doi.org/10.1021/acs.jpcb.3c08419
The log file lists these citations in BibTeX format.

CITE-CITE-CITE-CITE-CITE-CITE-CITE-CITE-CITE-CITE-CITE-CITE-CITE

Switching to 'neigh_modify every 1 delay 0 check yes' setting during minimization
Generated 0 of 6 mixed pair_coeff terms from geometric mixing rule
Neighbor list info ...
  update: every = 1 steps, delay = 0 steps, check = yes
  max neighbors/atom: 2000, page size: 100000
  master list distance cutoff = 33
  ghost atom cutoff = 33
  binsize = 16.5, bins = 10 10 10
  2 neighbor lists, perpetual/occasional/extra = 2 0 0
  (1) pair lj/cut, perpetual, trim from (2)
      attributes: half, newton on, cut 25
      pair build: trim
      stencil: none
      bin: none
  (2) pair base/rna, perpetual
      attributes: half, newton on
      pair build: half/bin/newton
      stencil: half/bin/3d
      bin: standard
Setting up cg style minimization ...
  Unit style    : real
  Current step  : 0
Per MPI rank memory allocation (min/avg/max) = 8.463 | 8.463 | 8.463 Mbytes
   Step         PotEng         KinEng         TotEng          Temp     
         0   1.8268365e+09  0              1.8268365e+09  0            
      1000  -442.03421      0             -442.03421      0            
Loop time of 1.84711 on 1 procs for 1000 steps with 1032 atoms

98.8% CPU use with 1 MPI tasks x 1 OpenMP threads

Minimization stats:
  Stopping criterion = max iterations
  Energy initial, next-to-last, final = 
      1826836468.39187  -441.792334864951  -442.034207354365
  Force two-norm initial, final = 1.109317e+10 2.1221485
  Force max component initial, final = 6.4052606e+09 0.31384301
  Final line search alpha, max atom move = 0.10270352 0.032232781
  Iterations, force evaluations = 1000 1480

MPI task timing breakdown:
Section |  min time  |  avg time  |  max time  |%varavg| %total
---------------------------------------------------------------
Pair    | 1.7179     | 1.7179     | 1.7179     |   0.0 | 93.00
Bond    | 0.092416   | 0.092416   | 0.092416   |   0.0 |  5.00
Neigh   | 0.007503   | 0.007503   | 0.007503   |   0.0 |  0.41
Comm    | 0.0098197  | 0.0098197  | 0.0098197  |   0.0 |  0.53
Output  | 0.00029983 | 0.00029983 | 0.00029983 |   0.0 |  0.02
Modify  | 0          | 0          | 0          |   0.0 |  0.00
Other   |            | 0.01922    |            |       |  1.04

Nlocal:           1032 ave        1032 max        1032 min
Histogram: 1 0 0 0 0 0 0 0 0 0
Nghost:           1391 ave        1391 max        1391 min
Histogram: 1 0 0 0 0 0 0 0 0 0
Neighs:          10145 ave       10145 max       10145 min
Histogram: 1 0 0 0 0 0 0 0 0 0

Total # of neighbors = 10145
Ave neighs/atom = 9.8304264
Ave special neighs/atom = 4.8255814
Neighbor list builds = 5
Dangerous builds = 0
ERROR: Cannot reset timestep with active dump - must undump first (src/output.cpp:641)
Last command: reset_timestep 0
srun: error: della-r3c3n7: task 0: Exited with exit code 1
srun: Terminating StepId=5048890.0
