LAMMPS (29 Aug 2024)
  using 1 OpenMP thread(s) per MPI task
  using 1 OpenMP thread(s) per MPI task
ERROR: Cannot open file bulk.dat: No such file or directory (src/read_data.cpp:367)
Last command: read_data ${df}
srun: error: della-r3c3n7: task 0: Exited with exit code 1
srun: Terminating StepId=5049012.0
