LAMMPS data file - Exact 42-mer Replication

42 atoms
40 bonds
38 angles

4 atom types
1 bond types
1 angle types

-50.000000 50.000000 xlo xhi
-50.000000 50.000000 ylo yhi
-50.000000 50.000000 zlo zhi

Masses

1 329.20
2 305.20
3 345.20
4 306.20

Atoms

1 1 3 0.000000 -5.578000 20.548000 -14.353000
2 1 3 0.000000 -1.739000 18.304000 -16.435000
3 1 3 0.000000 4.202000 17.473000 -16.900000
4 1 2 0.000000 10.109000 16.307000 -15.724000
5 1 4 0.000000 13.892000 12.359000 -14.367000
6 1 3 0.000000 14.357000 7.101000 -12.805000
7 1 4 0.000000 17.219000 3.213000 -11.194000
8 1 4 0.000000 17.160000 -2.611000 -7.841000
9 1 4 0.000000 13.781000 -7.106000 -4.529000
10 1 4 0.000000 8.598000 -10.572000 -3.502000
11 2 3 0.000000 6.200000 -18.293000 1.303000
12 2 2 0.000000 11.826000 -16.769000 -0.282000
13 2 4 0.000000 14.864000 -14.582000 -4.893000
14 2 3 0.000000 14.993000 -11.956000 -10.484000
15 2 1 0.000000 12.426000 -9.940000 -15.598000
16 2 2 0.000000 7.732000 -7.606000 -17.857000
17 2 4 0.000000 3.763000 -3.183000 -18.318000
18 2 4 0.000000 1.611000 0.624000 -14.480000
19 2 4 0.000000 0.089000 3.321000 -9.329000
20 2 2 0.000000 2.466000 6.071000 -5.189000
21 2 1 0.000000 6.436000 9.150000 -2.157000
22 2 3 0.000000 8.843000 14.297000 -1.868000
23 2 2 0.000000 9.022000 19.873000 -3.800000
24 2 2 0.000000 8.786000 23.869000 -7.968000
25 2 2 0.000000 6.160000 28.412000 -10.146000
26 2 2 0.000000 11.347000 31.588000 -11.576000
27 2 1 0.000000 12.725000 25.899000 -11.465000
28 2 1 0.000000 12.008000 20.723000 -14.164000
29 2 1 0.000000 16.188000 17.160000 -11.527000
30 2 2 0.000000 19.755000 13.589000 -10.756000
31 2 1 0.000000 19.715000 8.246000 -7.924000
32 2 1 0.000000 17.704000 3.884000 -4.612000
33 2 1 0.000000 14.080000 -0.712000 -1.421000
34 2 1 0.000000 9.302000 -2.868000 -0.830000
35 2 1 0.000000 4.380000 -5.707000 -2.379000
36 2 1 0.000000 -0.876000 -7.526000 -5.386000
37 2 3 0.000000 -2.393000 -11.401000 -8.758000
38 2 4 0.000000 -0.063000 -15.859000 -11.557000
39 2 2 0.000000 3.680000 -20.032000 -13.782000
40 2 1 0.000000 8.300000 -23.997000 -14.294000
41 2 3 0.000000 11.532000 -27.040000 -10.381000
42 2 2 0.000000 12.517000 -29.449000 -5.237000

Bonds

1 1 1 2
2 1 2 3
3 1 3 4
4 1 4 5
5 1 5 6
6 1 6 7
7 1 7 8
8 1 8 9
9 1 9 10
10 1 11 12
11 1 12 13
12 1 13 14
13 1 14 15
14 1 15 16
15 1 16 17
16 1 17 18
17 1 18 19
18 1 19 20
19 1 20 21
20 1 21 22
21 1 22 23
22 1 23 24
23 1 24 25
24 1 25 26
25 1 26 27
26 1 27 28
27 1 28 29
28 1 29 30
29 1 30 31
30 1 31 32
31 1 32 33
32 1 33 34
33 1 34 35
34 1 35 36
35 1 36 37
36 1 37 38
37 1 38 39
38 1 39 40
39 1 40 41
40 1 41 42

Angles

1 1 1 2 3
2 1 2 3 4
3 1 3 4 5
4 1 4 5 6
5 1 5 6 7
6 1 6 7 8
7 1 7 8 9
8 1 8 9 10
9 1 11 12 13
10 1 12 13 14
11 1 13 14 15
12 1 14 15 16
13 1 15 16 17
14 1 16 17 18
15 1 17 18 19
16 1 18 19 20
17 1 19 20 21
18 1 20 21 22
19 1 21 22 23
20 1 22 23 24
21 1 23 24 25
22 1 24 25 26
23 1 25 26 27
24 1 26 27 28
25 1 27 28 29
26 1 28 29 30
27 1 29 30 31
28 1 30 31 32
29 1 31 32 33
30 1 32 33 34
31 1 33 34 35
32 1 34 35 36
33 1 35 36 37
34 1 36 37 38
35 1 37 38 39
36 1 38 39 40
37 1 39 40 41
38 1 40 41 42
