LAMMPS data file via write_data, version 29 Aug 2024, timestep = 408000000, units = real

50 atoms
4 atom types
49 bonds
1 bond types
48 angles
1 angle types

-500.6 500.6 xlo xhi
-500.6 500.6 ylo yhi
-500.6 500.6 zlo zhi

Masses

1 329.2
2 305.2
3 345.2
4 306.2

Bond Coeffs # harmonic

1 7.5 5.9

Angle Coeffs # harmonic

1 5 150

Atoms # full

26 1 1 0 -326.76034683649533 -139.13161292474453 -499.16768696768037 2 0 0
27 1 3 0 -326.74029141684315 -133.3920861355176 -498.34678658270496 2 0 0
28 1 4 0 -325.95982059029006 -128.88201366967317 499.22652385935066 2 0 -1
50 1 4 0 -333.752667423515 -118.54101084517737 419.4768774299186 2 0 -1
4 1 4 0 -310.0091764569185 -107.9409707066047 417.5706719140927 2 0 -1
3 1 3 0 -306.21712656880266 -109.1865574132378 413.388342032911 2 0 -1
2 1 3 0 -303.77353606224534 -108.92437338997107 407.8496474719669 2 0 -1
1 1 4 0 -302.99096859592095 -105.58012488865242 403.0695866398786 2 0 -1
10 1 4 0 -333.92544862687345 -121.9753085538733 433.65476185785286 2 0 -1
11 1 2 0 -334.4500202858416 -124.75283764947767 438.73570260544153 2 0 -1
49 1 1 0 -330.66059788664245 -123.64018133152406 419.110423380175 2 0 -1
9 1 4 0 -331.6455382802793 -117.91043584967352 430.0364658299041 2 0 -1
48 1 2 0 -325.56999351799504 -125.40481133586876 421.10755554949264 2 0 -1
47 1 3 0 -322.3158401314453 -125.38190133547317 425.9898114846398 2 0 -1
46 1 1 0 -320.8862545190892 -125.38274293746498 431.7175190208097 2 0 -1
8 1 4 0 -328.10820698613475 -113.61206814199666 427.6373852218909 2 0 -1
7 1 4 0 -324.7048900811906 -111.83159879378604 423.8269670634324 2 0 -1
6 1 1 0 -319.60733795491797 -111.65404118430155 421.22551095049187 2 0 -1
5 1 1 0 -313.6403150418297 -111.38687019436081 420.9548419164474 2 0 -1
13 1 1 0 -332.33592173457305 -134.04204855866325 443.9209916793288 2 0 -1
14 1 4 0 -329.34785823928024 -136.84434161898858 448.15097424219084 2 0 -1
12 1 2 0 -335.4191252820345 -130.21276025641322 441.3002202262095 2 0 -1
45 1 1 0 -322.6749631706686 -124.82217012791085 437.74134055245344 2 0 -1
44 1 2 0 -322.1929982865149 -126.5924252905003 443.31253099496274 2 0 -1
43 1 3 0 -324.0592164446107 -127.41259528164053 448.91118401937143 2 0 -1
39 1 2 0 -333.38626433050524 -133.25866808715486 467.55246004049314 2 0 -1
15 1 4 0 -327.70824240228023 -137.78162719376962 453.6619695497836 2 0 -1
16 1 3 0 -323.9244502769298 -137.42900983893836 458.54086658974063 2 0 -1
17 1 4 0 -322.05262252292283 -136.77089894337186 464.0197320466849 2 0 -1
40 1 1 0 -329.9525607372587 -129.50707142452956 464.33717522674067 2 0 -1
42 1 4 0 -325.7501254356162 -127.83002333114229 454.4054753210504 2 0 -1
41 1 2 0 -328.68887932969267 -127.08283771317146 459.53767064035424 2 0 -1
38 1 3 0 -337.1970919720868 -137.83415633453126 468.77856432163696 2 0 -1
37 1 2 0 -337.08595202041397 -143.08630959078755 470.9520107703791 2 0 -1
18 1 2 0 -323.30304270236445 -137.7605854729318 469.9519630657344 2 0 -1
35 1 2 0 -330.92777991902375 -149.34371657556096 476.9778457423293 2 0 -1
36 1 3 0 -336.0905226635792 -146.75831786884243 475.18271072941894 2 0 -1
21 1 3 0 -334.1863240496722 -136.61483201213815 480.9448906227622 2 0 -1
34 1 2 0 -326.51188378917124 -148.0296024224058 480.766358984662 2 0 -1
20 1 3 0 -328.9792155552505 -134.87411160719503 478.9266502614637 2 0 -1
19 1 4 0 -324.5535370331431 -134.86577476480778 475.1680543269844 2 0 -1
23 1 3 0 -333.11583550038125 -144.93298883091106 488.4910256626298 2 0 -1
22 1 3 0 -335.9515287429671 -140.27083552393904 485.4771633637279 2 0 -1
33 1 2 0 -323.2002843332354 -144.5793031376175 483.95806129665806 2 0 -1
24 1 1 0 -329.6107655075191 -145.7745190870745 493.2880750227299 2 0 -1
25 1 4 0 -326.7745752592276 -142.32081600178475 497.2300793054698 2 0 -1
32 1 1 0 -320.12822582391647 -140.58369688039627 487.34549436291445 2 0 -1
31 1 4 0 -317.1318087606881 -135.0451932731985 486.9259766214457 2 0 -1
29 1 3 0 -323.13379511312974 -128.79765707446376 494.146559517969 2 0 -1
30 1 4 0 -318.3553070741532 -130.8911714490599 491.0397595787052 2 0 -1

Velocities

26 0.00013989263576598296 -0.0010387153559679042 0.0004704949245370959
27 -0.00147260732658568 -1.8757367767887633e-05 -0.001492483584426902
28 -0.0002037944935151429 -0.000755657172266485 -0.000785265634906539
50 -0.0008117451357659975 0.0007112407727165599 8.514797420272546e-05
4 0.0018302804522944754 -0.0011188636999225684 0.0009218359909426947
3 -0.00031985857116212726 -0.002536358477720446 -0.00021286772819769812
2 0.0002498827071373119 0.00011113900320280695 -0.0005817956123872022
1 0.00025828962913099945 -0.0002818146580516644 0.0008625187023307744
10 0.000674463254777488 0.000781341997630482 -0.0002681258618741609
11 -0.00212535187735202 -0.0010311407620373783 0.0010835643241483642
49 6.720933520412726e-06 -0.0016735843838012253 0.00032786948021516017
9 0.0006030409972409179 -0.0005905631841947266 0.0004901732369342882
48 0.000246170422602239 0.0008244995620928612 0.0013251915702590141
47 0.0009915206409997336 0.000748581811909266 -0.00047975495559878645
46 0.0008132682073825715 5.189098722451251e-05 -0.0003437883180292359
8 0.0001539621388243693 -1.542041121246393e-05 0.0003478219253587206
7 -0.0009948260250288482 -0.0006407331922265411 0.0005641205712428146
6 -9.312901590149931e-05 -0.0006902710154035932 0.0002998840276687614
5 0.00026965486560799406 -0.0005228147804045458 0.0004429766198545091
13 -0.0006853047299214185 3.0655287309494955e-06 -0.00021592589217224266
14 0.001356175550222106 0.0009763720077284576 0.0006886498400349319
12 -0.0008977826823982195 -0.000206645723592756 0.00026727376673687354
45 0.0021925460247736563 -0.0009688165936389391 7.802483507500183e-05
44 0.0011627293073092268 0.0005883164065128936 0.001592106310693331
43 0.0013472416364622155 -0.00023370396218324078 0.0001962384527442256
39 0.0007110646386785772 0.0004568151650172376 0.0003213046891906198
15 0.000459935121730035 0.0009515200746912688 0.0012273439043857552
16 -0.0007571509285716143 0.0006299588311427537 6.928858203783224e-05
17 8.267951236705442e-05 -0.001234306690069901 0.001294714445955509
40 0.00018608498566336895 -3.852091056805935e-05 0.00040926850154951005
42 0.000120354807130344 0.00043759843334248536 -0.000460845264378852
41 0.00011272093615441045 -0.00035752490997157895 0.0014798049419308627
38 0.00016431014642128095 -0.0003172850600425029 -0.0001671608530001962
37 0.0008248614898127349 0.0016744140378904956 -0.0001005394000913532
18 -0.0021137282386740125 0.0011297495344736773 -0.0003356649557417717
35 -0.000576542757918883 -0.0011856971777823577 0.0006910803741941239
36 -0.00024666875061594463 0.0009966363387573446 -0.0004823430374477765
21 -0.00021645176807288767 -0.001757018132348147 -0.0007584459740002997
34 -0.00011253349594318352 0.0008122684682741278 -0.0011916915596543033
20 -0.0002968723848798204 0.0013819975778573764 -0.0010772312659383019
19 0.0015798894541876043 0.00021234894101330114 -0.0010704989923950112
23 -0.0001509180707127149 -0.000581753349097153 0.0010651120216747785
22 -4.944371751180293e-05 0.0006042901494609 -0.0010343459220612168
33 0.0016403007899069679 0.00025338814232573134 0.00036050009708987074
24 0.0007578219641027632 0.00016591967535715602 3.710317244829368e-05
25 0.00019509008207232932 -0.00035499607893287483 0.00010893760520967907
32 0.0006886412413872602 0.0005026958032829627 0.00035528025462807066
31 0.0003516553275346927 0.0004265769893012304 -0.0015420134372637463
29 -0.0007082823139619377 -7.166603563362356e-06 -0.00021297976198843814
30 0.0002845776019302742 -0.0007917153308212529 -0.00026472583335926164

Bonds

1 1 26 27
2 1 27 28
3 1 28 29
4 1 4 5
5 1 3 4
6 1 2 3
7 1 1 2
8 1 10 11
9 1 11 12
10 1 49 50
11 1 9 10
12 1 48 49
13 1 47 48
14 1 46 47
15 1 8 9
16 1 7 8
17 1 6 7
18 1 5 6
19 1 13 14
20 1 14 15
21 1 12 13
22 1 45 46
23 1 44 45
24 1 43 44
25 1 39 40
26 1 15 16
27 1 16 17
28 1 17 18
29 1 40 41
30 1 42 43
31 1 41 42
32 1 38 39
33 1 37 38
34 1 18 19
35 1 35 36
36 1 36 37
37 1 21 22
38 1 34 35
39 1 20 21
40 1 19 20
41 1 23 24
42 1 22 23
43 1 33 34
44 1 24 25
45 1 25 26
46 1 32 33
47 1 31 32
48 1 29 30
49 1 30 31

Angles

1 1 25 26 27
2 1 26 27 28
3 1 27 28 29
4 1 3 4 5
5 1 2 3 4
6 1 1 2 3
7 1 9 10 11
8 1 10 11 12
9 1 48 49 50
10 1 8 9 10
11 1 47 48 49
12 1 46 47 48
13 1 45 46 47
14 1 7 8 9
15 1 6 7 8
16 1 5 6 7
17 1 4 5 6
18 1 12 13 14
19 1 13 14 15
20 1 11 12 13
21 1 44 45 46
22 1 43 44 45
23 1 42 43 44
24 1 38 39 40
25 1 14 15 16
26 1 15 16 17
27 1 16 17 18
28 1 39 40 41
29 1 41 42 43
30 1 40 41 42
31 1 37 38 39
32 1 36 37 38
33 1 17 18 19
34 1 34 35 36
35 1 35 36 37
36 1 20 21 22
37 1 33 34 35
38 1 19 20 21
39 1 18 19 20
40 1 22 23 24
41 1 21 22 23
42 1 32 33 34
43 1 23 24 25
44 1 24 25 26
45 1 31 32 33
46 1 30 31 32
47 1 28 29 30
48 1 29 30 31
