LAMMPS data file via write_data, version 29 Aug 2024, timestep = 408000000, units = real

50 atoms
4 atom types
49 bonds
1 bond types
48 angles
1 angle types

-500.6 500.6 xlo xhi
-500.6 500.6 ylo yhi
-500.6 500.6 zlo zhi

Masses

1 329.2
2 305.2
3 345.2
4 306.2

Bond Coeffs # harmonic

1 7.5 5.9

Angle Coeffs # harmonic

1 5 150

Atoms # full

24 1 4 0 -261.7682213878065 10.047130271436767 -362.43615380354197 2 0 0
22 1 1 0 -251.82664072979557 9.145314674660899 -365.0724137566165 2 0 0
23 1 3 0 -255.98428380112372 10.378986887913015 -361.53698457346746 2 0 0
21 1 1 0 -247.17937551282563 5.0230328719754445 -364.88059361192194 2 0 0
1 1 2 0 -284.08969220819307 -4.8467712090049915 -356.619948030812 2 0 0
2 1 4 0 -286.199872269184 -1.752119512606016 -351.7981804136012 2 0 0
27 1 1 0 -263.3972572881919 -4.8778627580677325 -355.28534440484776 2 0 0
28 1 3 0 -260.0605253545343 -5.394536592574972 -351.07770585742793 2 0 0
25 1 2 0 -264.52788075593276 5.545247758258917 -360.07906399377845 2 0 0
26 1 2 0 -264.8914967142707 -0.43148744392067967 -358.43042825384873 2 0 0
20 1 2 0 -246.32155838815675 -0.5985484149081999 -362.81604276117884 2 0 0
19 1 3 0 -248.009125708415 -2.8078570825360605 -357.50419858881475 2 0 0
18 1 2 0 -248.52408373481296 1.754909336931373 -353.37223917728807 2 0 0
4 1 4 0 -287.92073281428833 -4.470824506393236 -341.10919139273 2 0 0
3 1 4 0 -288.25242331626436 -2.9153520051339705 -346.6022497239056 2 0 0
5 1 4 0 -286.72618923859983 -2.5297562397924684 -335.59953042629735 2 0 0
42 1 3 0 -271.7589798561789 -11.760334187551326 -335.36976120037406 2 0 0
41 1 1 0 -273.83345400324004 -8.249966761990843 -339.06041597213937 2 0 0
29 1 3 0 -255.83618829412504 -3.4440720608426196 -347.5246234937978 2 0 0
30 1 4 0 -254.4521904978476 -3.3143451139307896 -341.6993482627961 2 0 0
31 1 2 0 -251.9501984468929 -1.5212456099327396 -336.6113237537952 2 0 0
13 1 2 0 -264.80633160790086 1.547476644040795 -336.4900159724463 2 0 0
40 1 2 0 -277.2352332317247 -3.5027958451692687 -339.2526424106014 2 0 0
16 1 2 0 -257.20031541558086 7.983169755340895 -349.5687408703091 2 0 0
15 1 4 0 -258.61631052825953 6.934218354318201 -344.06043531949473 2 0 0
14 1 2 0 -262.4602405024369 5.76947098792945 -339.87938364251164 2 0 0
17 1 2 0 -252.23477330988885 6.016307244612209 -351.9639034421469 2 0 0
46 1 2 0 -285.20620481568693 -18.03115976289648 -319.8903248603344 2 0 0
47 1 2 0 -289.7304834550289 -14.617027950132774 -319.5219667081274 2 0 0
7 1 3 0 -284.64712813385796 -4.849895709275267 -324.8793381882887 2 0 0
6 1 1 0 -284.82337264657906 -3.8581514479630084 -330.30575848528713 2 0 0
48 1 1 0 -295.48735774284364 -13.348681648576125 -318.56315969469824 2 0 0
49 1 4 0 -300.6006157904592 -9.823270860778615 -317.9814636118389 2 0 0
43 1 4 0 -272.6654678360887 -14.882871905991832 -330.53082333458775 2 0 0
45 1 4 0 -279.4356570029369 -17.226158279372594 -322.105824329883 2 0 0
44 1 2 0 -274.6599372986525 -16.760827932004077 -325.61561710428447 2 0 0
8 1 3 0 -280.97989617399196 -5.6363789683932035 -320.56304341261983 2 0 0
10 1 4 0 -269.6528084198607 -6.396791392309517 -322.97379281182276 2 0 0
9 1 1 0 -275.34213868499046 -6.436121329656238 -320.4265212104424 2 0 0
12 1 3 0 -265.0320520216623 -2.9283351189534534 -332.75075783762867 2 0 0
11 1 2 0 -265.65514757965246 -4.989435432460114 -327.1271305547295 2 0 0
32 1 4 0 -251.2072002096384 -2.4738101671803787 -330.929896874704 2 0 0
33 1 1 0 -251.54397437081676 1.230340941656683 -326.58371168217394 2 0 0
39 1 4 0 -276.7857177199426 2.2775783094220556 -337.68093561393465 2 0 0
38 1 1 0 -276.0439617009845 6.836473541097577 -333.9526846625814 2 0 0
34 1 1 0 -255.00767464179225 5.622474092463832 -324.272863698249 2 0 0
36 1 2 0 -265.92736362323313 6.49965039889707 -327.59745834365526 2 0 0
37 1 4 0 -271.17270356749583 8.327424929598319 -330.5609310626596 2 0 0
35 1 3 0 -260.37025043559515 7.563643599780397 -325.2721839079904 2 0 0
50 1 2 0 -305.8694440900502 -9.060215214241499 -319.22613530699346 2 0 0

Velocities

24 -0.0005056638423996758 0.0009696534360394553 -0.0003269604550510951
22 0.00023415881907418986 0.0022398333852851433 0.0025443756456873805
23 0.0010201297059716761 -0.00016581084878686427 0.0003932468089300016
21 0.0006721807658769709 6.568082084450907e-06 -5.0991479037354665e-05
1 0.0004971649030973791 0.0005491384993249457 0.0008418117881423713
2 0.003293505863551873 -0.00045917578295210986 0.00034900746925232957
27 0.00023678541769124597 0.0003188661723004433 0.0003490492941456077
28 0.0005857503703919442 0.0013402423465283956 0.00040551694232782604
25 0.00012756921580323247 -0.0011395568780029623 -0.00017860722002515254
26 0.00024080529326326537 -3.555312225202471e-05 0.0006076841790558174
20 -0.0003673128345983609 -0.001666885999615132 0.0006392128650208441
19 -2.274848307298861e-05 -0.0005059355386043702 0.0010731464253877139
18 0.0007450087131261612 -0.0003650957747419518 -0.0015682131928145767
4 -0.0002642605684914806 -0.0007821163774549016 -0.0005640232184736376
3 -0.0006047648204623002 0.0008595489673175857 -0.0007440687105873383
5 -0.0004395813628147795 -0.0004344417639585084 -0.0005463696242733534
42 -0.0004493352078700194 -0.0004060560107794413 0.00010670923386189186
41 -0.0010009792931503076 -0.0005851493852068115 0.0006500276613839541
29 0.0008687338960531637 0.00046944732238117845 0.0010161490187334393
30 0.000349751176006731 0.00011070121911002175 -0.0008915534342336099
31 0.0018035589810888833 -0.001234512847913421 -0.0012439173768465405
13 -0.00019536681528456584 0.0009915687220131226 0.00047182195756155146
40 0.0003918976680712368 -0.001192022831376897 -0.0008976003392310585
16 0.00017331480905865936 -0.0012933453079397 0.0022783600204342807
15 -0.0002733333564954141 0.001209623275453706 9.623277191816982e-05
14 0.001222817738563484 -0.0005246295121266068 -0.00020993342808764358
17 0.0008868301316687818 -5.4068640261776056e-05 -0.0005831060139338248
46 0.0005647614100622093 0.0008487258304839051 0.0008445902158203235
47 -0.0008557356160428598 0.00016646693502337455 0.0008025656669324632
7 -8.096059704755477e-05 0.00019734863580503866 8.533591618861099e-06
6 -0.0003210432467484911 -0.0015484638164165155 0.0010827756916400727
48 0.0017141526816630533 0.00101303600845255 0.00038407216764594493
49 -0.0002490812371138537 -0.00034618136945510603 -0.0012176245725050803
43 -0.0008176705812519136 -0.0015804110865098948 -0.0009100594018393254
45 -0.00135469818718251 -0.00037219968117605066 -0.0005746050506251908
44 0.0016824674878416497 -0.0017506586266339236 -0.00016742824647703183
8 -0.0009438568846867906 0.002156995790055495 0.00047297296750271564
10 -0.0001867926567595667 -0.0003031451494012372 -0.0013169348758185976
9 0.00010959984429932078 0.000767601159314628 -0.00317083389657066
12 0.00035920848312348444 0.0009980315418037474 0.0006271039496871517
11 0.0009715954099070671 4.048218870683911e-05 -0.0003381308010378477
32 -0.0006807785722708323 0.000939334315325274 0.00045873659998175336
33 -0.000390959713747951 0.0010580109464107543 0.0003304971874389655
39 0.00037232243166541513 -0.0015367979224946214 0.0002336996463264253
38 0.0003607408950079187 -0.000989077976261857 0.0011996301274455352
34 -0.0003511730000131662 0.0013889719094277032 -0.0009312447551052468
36 0.0002824660933721355 0.00019238942716562205 -0.0009738860664430042
37 -0.0012939217683893352 -0.002180635699293502 0.0003463931068651161
35 -0.00046547669176333486 -0.00033571152443182537 0.0006963528612088294
50 -0.0001284875062608492 -0.001986941801970493 0.000664246463268849

Bonds

1 1 24 25
2 1 22 23
3 1 23 24
4 1 21 22
5 1 1 2
6 1 2 3
7 1 27 28
8 1 28 29
9 1 25 26
10 1 26 27
11 1 20 21
12 1 19 20
13 1 18 19
14 1 4 5
15 1 3 4
16 1 5 6
17 1 42 43
18 1 41 42
19 1 29 30
20 1 30 31
21 1 31 32
22 1 13 14
23 1 40 41
24 1 16 17
25 1 15 16
26 1 14 15
27 1 17 18
28 1 46 47
29 1 47 48
30 1 7 8
31 1 6 7
32 1 48 49
33 1 49 50
34 1 43 44
35 1 45 46
36 1 44 45
37 1 8 9
38 1 10 11
39 1 9 10
40 1 12 13
41 1 11 12
42 1 32 33
43 1 33 34
44 1 39 40
45 1 38 39
46 1 34 35
47 1 36 37
48 1 37 38
49 1 35 36

Angles

1 1 23 24 25
2 1 21 22 23
3 1 22 23 24
4 1 20 21 22
5 1 1 2 3
6 1 26 27 28
7 1 27 28 29
8 1 24 25 26
9 1 25 26 27
10 1 19 20 21
11 1 18 19 20
12 1 17 18 19
13 1 3 4 5
14 1 2 3 4
15 1 4 5 6
16 1 41 42 43
17 1 40 41 42
18 1 28 29 30
19 1 29 30 31
20 1 30 31 32
21 1 12 13 14
22 1 39 40 41
23 1 15 16 17
24 1 14 15 16
25 1 13 14 15
26 1 16 17 18
27 1 45 46 47
28 1 46 47 48
29 1 6 7 8
30 1 5 6 7
31 1 47 48 49
32 1 48 49 50
33 1 42 43 44
34 1 44 45 46
35 1 43 44 45
36 1 7 8 9
37 1 9 10 11
38 1 8 9 10
39 1 11 12 13
40 1 10 11 12
41 1 31 32 33
42 1 32 33 34
43 1 38 39 40
44 1 37 38 39
45 1 33 34 35
46 1 35 36 37
47 1 36 37 38
48 1 34 35 36
