LAMMPS data file via write_data, version 29 Aug 2024, timestep = 408000000, units = real

50 atoms
4 atom types
49 bonds
1 bond types
48 angles
1 angle types

-500.6 500.6 xlo xhi
-500.6 500.6 ylo yhi
-500.6 500.6 zlo zhi

Masses

1 329.2
2 305.2
3 345.2
4 306.2

Bond Coeffs # harmonic

1 7.5 5.9

Angle Coeffs # harmonic

1 5 150

Atoms # full

50 1 1 0 -437.09848915105795 -56.472644833130616 -362.0928309245693 2 0 0
49 1 4 0 -440.4061594539563 -52.274049536489535 -359.47358789295504 2 0 0
48 1 1 0 -441.76387022957 -46.8801317026181 -359.58655629675707 2 0 0
47 1 4 0 -440.4766990800513 -41.17431642781705 -359.7156129587518 2 0 0
46 1 2 0 -437.5235146807179 -37.724399028040686 -356.30764208774843 2 0 0
45 1 2 0 -433.88287858039445 -32.93489654905451 -355.2601629953569 2 0 0
6 1 1 0 -444.47086889688836 -31.021085058364566 -342.8536264743458 2 0 0
7 1 3 0 -441.9507429836446 -35.95610303090398 -344.7004228980981 2 0 0
8 1 1 0 -436.99090928747756 -39.413338307863874 -345.5777142994707 2 0 0
9 1 4 0 -431.36076049897065 -40.56678800639236 -347.0523345492223 2 0 0
10 1 4 0 -426.2777729564424 -42.65497071207411 -344.38115386296477 2 0 0
11 1 1 0 -422.8227792286441 -40.373719384095516 -341.0978237955045 2 0 0
12 1 3 0 -420.6884487087666 -35.59965739733006 -338.6057000078442 2 0 0
5 1 3 0 -448.9935262326259 -28.588162356064696 -339.9130567914274 2 0 0
4 1 2 0 -454.8549791548258 -28.858484292558078 -340.47764531453464 2 0 0
3 1 4 0 -460.49838181084453 -26.128121663411335 -340.60592752223596 2 0 0
2 1 1 0 -464.84318118680056 -23.382576026488504 -343.9348487462829 2 0 0
44 1 2 0 -430.4799141998236 -30.968601229090797 -350.5065817045288 2 0 0
43 1 4 0 -428.64363116169653 -28.98175411576408 -345.43465940435976 2 0 0
42 1 1 0 -427.8754764996673 -29.206018777438793 -339.9042907326616 2 0 0
1 1 2 0 -466.621077870424 -18.838643938219338 -347.05326343867586 2 0 0
39 1 3 0 -434.4553591182818 -39.14670943299313 -329.2224501136763 2 0 0
38 1 3 0 -431.10395279520236 -43.749055442555246 -327.83667046498084 2 0 0
37 1 3 0 -426.0824775364396 -46.29334198459063 -327.5645805839299 2 0 0
36 1 4 0 -419.8689330018016 -46.01708728668351 -326.6976810065153 2 0 0
15 1 3 0 -422.1673655056096 -35.84481370900294 -323.3914877684851 2 0 0
16 1 4 0 -417.97939925889875 -37.165552487547366 -319.209851905109 2 0 0
35 1 3 0 -414.66514526697756 -43.66205266716784 -326.548389317055 2 0 0
34 1 2 0 -409.9751786492719 -42.33140233176446 -323.84268305774265 2 0 0
33 1 3 0 -406.0379402111702 -37.677762241817625 -323.16439333559845 2 0 0
40 1 3 0 -433.65652538689557 -33.271152152368934 -331.2149637696703 2 0 0
14 1 2 0 -422.5933430374775 -32.940215151962434 -327.98114119896536 2 0 0
41 1 4 0 -429.5242909100557 -30.148227792186905 -334.23109133250784 2 0 0
13 1 4 0 -420.2433961938545 -32.736185971578216 -333.4650543628225 2 0 0
29 1 3 0 -417.44310293017935 -23.203572488877697 -319.09143678652265 2 0 0
30 1 4 0 -413.15688554098676 -25.559966268153588 -322.08438924837384 2 0 0
31 1 4 0 -407.5642830472846 -26.87683921805222 -322.3125365259951 2 0 0
32 1 3 0 -405.1594150779626 -32.061971730433875 -322.0695045290275 2 0 0
17 1 2 0 -414.67132411590734 -36.64603659063876 -314.1640283466339 2 0 0
28 1 4 0 -421.2413916127064 -22.626371698938403 -314.6372040957565 2 0 0
27 1 4 0 -425.0450744608512 -19.836003516269507 -311.5893561374281 2 0 0
18 1 1 0 -412.0315862699852 -33.16607848555232 -310.5373122839996 2 0 0
19 1 1 0 -410.2678396887643 -28.175073636472103 -309.0313146693712 2 0 0
20 1 4 0 -410.3990835594627 -22.1952243472612 -309.4436152258188 2 0 0
21 1 4 0 -412.5124392161345 -16.90626961270541 -307.8331800799221 2 0 0
26 1 4 0 -427.97784933324914 -15.40997350206708 -309.1192606502128 2 0 0
24 1 1 0 -423.116722773692 -6.3846003561172555 -305.9746615888756 2 0 0
25 1 2 0 -427.42748593311916 -9.72146384129377 -308.4899522354932 2 0 0
23 1 2 0 -417.4260276325718 -7.046095562381409 -307.5153315435303 2 0 0
22 1 4 0 -413.2207665334612 -11.45341493636564 -306.8920150795432 2 0 0

Velocities

50 0.0007747728706652243 0.0023016998916139185 0.001215103154226352
49 -0.0013044947338916417 0.0004020347855224167 -0.0018494807018360274
48 0.0009393501026422893 -0.001897996230869967 0.0004446472743280145
47 -0.00015604835447058694 -0.0013763793414060877 0.0005755629053386417
46 0.0003294139697328614 -6.753456307704518e-05 0.0015963219444835152
45 0.0009170413983191975 -0.0011002069901077983 0.0005162394563396667
6 0.0005818755328291862 4.8509399156340257e-05 -0.002961037653658918
7 0.0007841531264402296 -0.0007089047438140615 -0.0009596661595463633
8 -0.0016495164982095348 0.001441344851176863 -0.00038860556366618104
9 0.0006742545611263423 0.00022893013355025022 -0.0015325695914397714
10 -0.00115332745243433 -0.00041624368811443095 0.00011154495567668445
11 0.0007659459096209265 -0.0007298631203078196 -0.000507858168785142
12 -0.00032735717918929265 0.0003503068997427304 -4.678198428080506e-06
5 -0.00028432763817113813 0.00033498936964550713 -0.0004010809275208716
4 0.0004586682081256196 0.0007584124397406747 0.0009223353589627159
3 0.00048488394957457384 -0.00032437854434848047 -0.0004616782972361138
2 0.0008147977958320399 8.781207993433783e-05 -0.0008203776143337904
44 0.0012593786268055207 -0.0003611630535712267 0.0008630683668102725
43 0.000166106295281676 -0.00041496009550856495 6.914841643546299e-05
42 -0.0007459108182562124 -0.0008359642622782635 0.0012700402012269525
1 -0.00029490644578713924 -0.0015545502907374962 -0.0005433468493236036
39 0.0014312143625097348 0.0005464677221595848 -0.0007969570506027485
38 -0.0005715731910857636 0.000332980226193443 0.00016044158369518546
37 0.0004870481741385702 0.001511314368734639 0.000928143226135131
36 -0.0006794617434745656 0.0001816907831098779 5.7419017519979405e-05
15 0.000811041342834997 -0.00122841027854913 1.0017492344150935e-05
16 0.0007993471731926386 0.001716311758549845 -1.3006919839865337e-05
35 0.0002710750774772612 -0.0008238236978835145 -0.0010737265381829733
34 -0.00021129089929803168 0.0008925034962592552 0.0004127003859574045
33 0.00037014894449004335 -0.0002603903011452069 0.0012406555586616866
40 8.914537833179286e-05 -3.496159224096183e-05 -0.00046457127364689875
14 -4.623853366212568e-05 -0.0011242230926868182 0.00031528909474876716
41 -7.337312738706069e-05 -0.0006057740591570457 0.0018106084226709837
13 0.00022526698428379017 0.0008319187485217834 0.00012644637180662762
29 0.0007524504432644517 -0.00021882586663027708 -0.0012669893623615286
30 0.0009907208105798607 0.0002858975082713032 0.000470784298906683
31 0.000618242243036508 -0.0006725458573654027 0.0002432591763462362
32 0.0005316718525574876 -0.00042376810827168186 0.0005394927024466075
17 0.0006867235392710784 0.0005314711065605055 0.0003139851420134163
28 0.001173094765593334 0.0014335024575559414 -0.00046302678204321166
27 -0.000842547360603762 -0.0009056909071431 0.00019644650339009176
18 -0.0014060233608066048 -0.0005417634371661391 0.001187181111526171
19 -0.0007048630770464065 0.000459299708141119 -0.0007458480125625217
20 0.0009532250623877908 -0.0008775220422498216 0.0003335147834207494
21 0.0003634377677746049 0.0004537382300554971 0.000807739355114283
26 0.0004249336377091808 0.000780741211672237 0.000382242946252923
24 -0.0016640490990368732 -0.0010165618127175654 0.0019869003415520533
25 0.0009326888911430758 0.00018623408993340048 0.0008426278558392442
23 -0.0011783921021316555 -0.0009372930513787466 0.00017204247709624458
22 -0.00032791508719099316 -0.0005574546256677427 -0.0012299153336911724

Bonds

1 1 49 50
2 1 48 49
3 1 47 48
4 1 46 47
5 1 45 46
6 1 6 7
7 1 7 8
8 1 8 9
9 1 9 10
10 1 10 11
11 1 11 12
12 1 12 13
13 1 5 6
14 1 4 5
15 1 3 4
16 1 2 3
17 1 44 45
18 1 43 44
19 1 42 43
20 1 1 2
21 1 39 40
22 1 38 39
23 1 37 38
24 1 36 37
25 1 15 16
26 1 16 17
27 1 35 36
28 1 34 35
29 1 33 34
30 1 40 41
31 1 14 15
32 1 41 42
33 1 13 14
34 1 29 30
35 1 30 31
36 1 31 32
37 1 32 33
38 1 17 18
39 1 28 29
40 1 27 28
41 1 18 19
42 1 19 20
43 1 20 21
44 1 21 22
45 1 26 27
46 1 24 25
47 1 25 26
48 1 23 24
49 1 22 23

Angles

1 1 48 49 50
2 1 47 48 49
3 1 46 47 48
4 1 45 46 47
5 1 44 45 46
6 1 5 6 7
7 1 6 7 8
8 1 7 8 9
9 1 8 9 10
10 1 9 10 11
11 1 10 11 12
12 1 11 12 13
13 1 4 5 6
14 1 3 4 5
15 1 2 3 4
16 1 1 2 3
17 1 43 44 45
18 1 42 43 44
19 1 41 42 43
20 1 38 39 40
21 1 37 38 39
22 1 36 37 38
23 1 35 36 37
24 1 14 15 16
25 1 15 16 17
26 1 34 35 36
27 1 33 34 35
28 1 32 33 34
29 1 39 40 41
30 1 13 14 15
31 1 40 41 42
32 1 12 13 14
33 1 28 29 30
34 1 29 30 31
35 1 30 31 32
36 1 31 32 33
37 1 16 17 18
38 1 27 28 29
39 1 26 27 28
40 1 17 18 19
41 1 18 19 20
42 1 19 20 21
43 1 20 21 22
44 1 25 26 27
45 1 23 24 25
46 1 24 25 26
47 1 22 23 24
48 1 21 22 23
