LAMMPS data file via write_data, version 29 Aug 2024, timestep = 408000000, units = real

50 atoms
4 atom types
49 bonds
1 bond types
48 angles
1 angle types

-500.6 500.6 xlo xhi
-500.6 500.6 ylo yhi
-500.6 500.6 zlo zhi

Masses

1 329.2
2 305.2
3 345.2
4 306.2

Bond Coeffs # harmonic

1 7.5 5.9

Angle Coeffs # harmonic

1 5 150

Atoms # full

28 1 1 0 -152.03458090180928 -150.3734408321791 -114.25826865063651 2 0 0
34 1 3 0 -141.47653471000328 -151.2137853150994 -121.1729106725399 2 0 0
41 1 1 0 -171.18161734797636 -133.95201672543047 -121.49776012076225 2 0 0
40 1 1 0 -169.17843061681654 -136.97438907512262 -125.62874803508217 2 0 0
38 1 1 0 -160.74735212764517 -143.06584787187666 -127.93021235592349 2 0 0
37 1 1 0 -155.0052701773674 -143.26656837959104 -126.9007274097612 2 0 0
36 1 3 0 -149.64611090372873 -145.01179406101977 -126.14952165159168 2 0 0
39 1 1 0 -166.22780650545957 -142.04308086952003 -126.06211752396756 2 0 0
27 1 4 0 -153.75592555233095 -145.55764577389752 -116.60185412549333 2 0 0
35 1 2 0 -144.59534909915894 -147.49744856036807 -124.4596171613047 2 0 0
29 1 1 0 -153.62032834893915 -155.75099015818424 -114.4733663596914 2 0 0
30 1 2 0 -152.79089159366356 -161.14716733249023 -116.40255977444889 2 0 0
31 1 1 0 -147.52666761196795 -164.00032766041002 -116.13735852090149 2 0 0
33 1 2 0 -142.36049501222246 -155.3333276606644 -116.9923682035913 2 0 0
32 1 3 0 -142.46424613436645 -161.00790256052042 -115.85793834746781 2 0 0
42 1 4 0 -173.74577631570014 -133.0754682708602 -115.80601932317789 2 0 0
26 1 2 0 -158.8292059410011 -142.52602232450135 -116.31867546191022 2 0 0
25 1 2 0 -162.4653558802529 -138.17673067759478 -113.8302096617125 2 0 0
24 1 1 0 -161.52030497572224 -134.0631751475832 -109.6011275803766 2 0 0
44 1 2 0 -170.97372276483526 -134.66527123733297 -104.98123278572983 2 0 0
43 1 2 0 -170.81483375549058 -134.34132333494088 -110.90102832408078 2 0 0
22 1 3 0 -158.3700588162743 -122.9780951797659 -109.32698888155574 2 0 0
23 1 3 0 -158.40821964056857 -128.93769519536397 -109.37720590996828 2 0 0
21 1 2 0 -157.53925783157888 -117.27343181399887 -108.32474662024237 2 0 0
49 1 3 0 -148.24075198600596 -125.59385730615557 -105.47027897272082 2 0 0
50 1 1 0 -142.9792088363421 -124.66475276401708 -107.9994470686221 2 0 0
17 1 4 0 -164.0784569599891 -99.81908660963673 -95.81555012688962 2 0 0
18 1 1 0 -161.78056311186813 -102.8157141674658 -100.46402152722766 2 0 0
19 1 1 0 -160.39886727755882 -108.15203457124147 -101.87489117408082 2 0 0
20 1 3 0 -160.34582051466543 -113.40870487851579 -104.50017720028987 2 0 0
15 1 1 0 -170.46245302959906 -89.96088215174234 -94.34364664656201 2 0 0
14 1 1 0 -175.32892197526647 -87.27619960352577 -96.22991676661023 2 0 0
16 1 1 0 -166.70907087509627 -94.55231796239057 -94.39896453363446 2 0 0
10 1 3 0 -181.10127997909584 -67.58110463182071 -103.73800875938888 2 0 0
11 1 2 0 -177.92136750011937 -72.12599188664227 -102.65695584080663 2 0 0
13 1 3 0 -176.90351043186078 -83.14489545634304 -100.26920368531715 2 0 0
12 1 1 0 -178.72234061008322 -77.88719559051405 -102.11674559487271 2 0 0
9 1 3 0 -186.4291773409861 -65.40708144411181 -102.24886592800037 2 0 0
8 1 1 0 -188.5213904724067 -65.03553201472114 -96.87105075681228 2 0 0
45 1 2 0 -167.60072754799282 -132.68891506957758 -99.98826750747193 2 0 0
48 1 3 0 -152.13484810326295 -127.9311154799755 -102.11333706035883 2 0 0
46 1 2 0 -161.88519318719477 -130.9904410455993 -99.01101618739392 2 0 0
47 1 3 0 -157.42166302189366 -127.4725808342068 -99.05013461767447 2 0 0
6 1 4 0 -187.9968295866276 -60.488798783889216 -85.85796141794651 2 0 0
7 1 4 0 -188.49428814495397 -61.80952268532505 -91.79207589965478 2 0 0
5 1 4 0 -183.28500233510118 -60.56766511851819 -81.91068882477533 2 0 0
4 1 1 0 -178.13875930187828 -61.02321519016578 -80.00484765844094 2 0 0
2 1 1 0 -169.58865104243694 -61.46206909589171 -74.08676831366813 2 0 0
3 1 2 0 -173.23627922687808 -58.79627700059392 -78.21272905006339 2 0 0
1 1 1 0 -166.30554752356426 -65.58921589391227 -71.89645892085123 2 0 0

Velocities

28 0.0014062374734654215 -0.00023710129915199748 4.502522387151012e-05
34 0.00035734384073813003 -7.332997407627941e-05 0.0008230998664431834
41 -0.0001449055117722986 0.0006881279749773359 -0.000981504022562884
40 0.0001054788239734327 -0.000979737882530476 -0.001008663580769517
38 -0.00010217737870929912 -0.00034989722457565175 -0.0005262488834914133
37 0.0011580875553220112 -0.0006522968562876969 2.719144274233459e-05
36 -0.0004913216564870623 -0.0004916482084829632 -0.0013658483471090254
39 -0.00024799879173678657 0.0003477711426847766 -0.00016542743828953685
27 0.001108894127648271 -0.0003185331264933419 0.002198426015573637
35 -0.0007128208474334223 0.0004780184042738615 -4.2506584019032797e-05
29 0.0006145404048405317 0.0004741409096926873 -0.0003103336963368624
30 -4.398380745562506e-05 0.000246932230082308 0.00022313805226731318
31 0.0007913895814144812 -0.0006503678088767808 -0.002032015474471254
33 0.0016490754891335944 0.0006524345924959862 -0.001827988143273911
32 0.0011935703700000368 -0.0006685476173635488 -0.00011766297753194474
42 0.000849277740055817 -0.00042136600922809355 0.0008891899984029757
26 0.00019450525672553854 -0.0021277274703379455 0.0016069687348097272
25 -0.0007561087115478216 0.0012419855954125547 0.0013680664620640097
24 0.0009519095693068537 0.0010345823351113786 -0.0002544241192439647
44 0.0007009460412343691 -0.0007030885878405953 -0.0010607186629148608
43 0.00027449475154223585 0.0004858735710016766 0.00029770328457700375
22 -0.0002579887706663977 -0.0002287312542798196 0.0006427282233773567
23 -0.0008189593757789419 0.00044233199655172126 -0.0014247524939988215
21 -0.0003618147463265533 0.001908229934498524 0.00038496111606462597
49 -0.0005813534514080176 -0.0007125233207165458 0.0011266925617386232
50 -0.0012863286648686684 0.0005454858216332486 -0.00034744554260725735
17 8.619601959661196e-05 0.0018915305957564522 -0.0004118947004466989
18 -0.0007723778327832892 -0.00011095004506687668 0.0010212821826214732
19 0.00021165874618153592 0.0004405665251121359 -0.0011892714080989663
20 -0.00012355523155735792 0.0013460432863625857 0.0008302906064220886
15 0.00021533530356260519 -0.000919008386010454 -0.0005416211941597024
14 -0.002064798584928099 -5.528491166068004e-05 0.001247019657863635
16 0.00045907459159247164 0.00151449452118435 0.001980125007701953
10 -0.00134593038915477 8.372198486197961e-05 0.00016306040042959486
11 0.0005532358017695531 0.0006217363502086323 0.0003700952807379031
13 0.0007091714395518481 0.00011054079554231338 0.0005032123652985361
12 0.0008637997729492151 -0.0012823138988968398 0.0003941619891771195
9 0.0018860517328016994 -0.0032411673371844354 0.0010969603605290844
8 0.0012988254751035557 0.0004996167746272584 0.0007570069984401014
45 0.0012466140929987624 -0.0006959168293455494 4.2733472868295063e-05
48 -4.2418633647561985e-05 2.5966716213335202e-05 0.0004899673378495169
46 0.0014028791248848246 -0.0012815466904274938 -0.0013781282550828628
47 -0.0013241209148437164 -0.0009874842486325742 -0.000742384847785826
6 -0.0008056302360876107 0.001926231525741175 0.00032630278840723185
7 -0.00013542504619986503 -0.0019367674340565475 0.0011168485740061138
5 -0.0011817186899429038 -0.0010030951388950258 -8.121594254374096e-05
4 -0.00041768522473191363 -0.0003248381969480611 0.0005144515178601021
2 -0.00030358162411611033 0.0014209519064094635 -6.143539800765809e-05
3 0.00028421248217806483 -0.0007034221961855941 -0.0006463440782607399
1 0.001245237874581245 -0.0007338390672593477 -0.0002676624365672253

Bonds

1 1 28 29
2 1 34 35
3 1 41 42
4 1 40 41
5 1 38 39
6 1 37 38
7 1 36 37
8 1 39 40
9 1 27 28
10 1 35 36
11 1 29 30
12 1 30 31
13 1 31 32
14 1 33 34
15 1 32 33
16 1 42 43
17 1 26 27
18 1 25 26
19 1 24 25
20 1 44 45
21 1 43 44
22 1 22 23
23 1 23 24
24 1 21 22
25 1 49 50
26 1 17 18
27 1 18 19
28 1 19 20
29 1 20 21
30 1 15 16
31 1 14 15
32 1 16 17
33 1 10 11
34 1 11 12
35 1 13 14
36 1 12 13
37 1 9 10
38 1 8 9
39 1 45 46
40 1 48 49
41 1 46 47
42 1 47 48
43 1 6 7
44 1 7 8
45 1 5 6
46 1 4 5
47 1 2 3
48 1 3 4
49 1 1 2

Angles

1 1 27 28 29
2 1 33 34 35
3 1 40 41 42
4 1 39 40 41
5 1 37 38 39
6 1 36 37 38
7 1 35 36 37
8 1 38 39 40
9 1 26 27 28
10 1 34 35 36
11 1 28 29 30
12 1 29 30 31
13 1 30 31 32
14 1 32 33 34
15 1 31 32 33
16 1 41 42 43
17 1 25 26 27
18 1 24 25 26
19 1 23 24 25
20 1 43 44 45
21 1 42 43 44
22 1 21 22 23
23 1 22 23 24
24 1 20 21 22
25 1 48 49 50
26 1 16 17 18
27 1 17 18 19
28 1 18 19 20
29 1 19 20 21
30 1 14 15 16
31 1 13 14 15
32 1 15 16 17
33 1 9 10 11
34 1 10 11 12
35 1 12 13 14
36 1 11 12 13
37 1 8 9 10
38 1 7 8 9
39 1 44 45 46
40 1 47 48 49
41 1 45 46 47
42 1 46 47 48
43 1 5 6 7
44 1 6 7 8
45 1 4 5 6
46 1 3 4 5
47 1 1 2 3
48 1 2 3 4
