LAMMPS data file via write_data, version 29 Aug 2024, timestep = 408000000, units = real

50 atoms
4 atom types
49 bonds
1 bond types
48 angles
1 angle types

-500.6 500.6 xlo xhi
-500.6 500.6 ylo yhi
-500.6 500.6 zlo zhi

Masses

1 329.2
2 305.2
3 345.2
4 306.2

Bond Coeffs # harmonic

1 7.5 5.9

Angle Coeffs # harmonic

1 5 150

Atoms # full

24 1 2 0 -156.08983309840198 7.329491830876248 -280.47809813218515 2 0 0
25 1 1 0 -156.88600583728834 11.881368324039157 -284.16636588354976 2 0 0
29 1 4 0 -165.50972672342746 3.301763574487537 -275.06425221218603 2 0 0
30 1 3 0 -165.86357566007112 -1.431336661837509 -278.3418317337462 2 0 0
31 1 2 0 -163.04872913705083 -6.603270935269386 -278.0165337519687 2 0 0
32 1 1 0 -159.47519087746932 -11.436137348647511 -278.91466478701665 2 0 0
21 1 4 0 -153.1378365071151 -3.8058315601957453 -269.4898958693693 2 0 0
33 1 3 0 -154.80735849680843 -14.565731594185115 -277.2797344258278 2 0 0
22 1 1 0 -152.90260043194328 -2.301338015623698 -275.5441960838183 2 0 0
34 1 2 0 -151.78983036613946 -17.13143140094261 -272.4993176998362 2 0 0
35 1 3 0 -150.2531641248287 -15.705546202572714 -266.98634564799704 2 0 0
28 1 1 0 -165.79590030777226 9.381069477342827 -274.6173419002908 2 0 0
27 1 1 0 -163.52658683399312 14.552370912219729 -276.8867346229922 2 0 0
26 1 4 0 -159.64923107152117 16.40911915254502 -281.03572703083137 2 0 0
23 1 4 0 -155.65184888049907 1.6768870256498698 -278.82182598756486 2 0 0
16 1 3 0 -169.105918251494 -22.016147012432995 -260.3860911928737 2 0 0
15 1 2 0 -167.69619844716323 -25.775057534578536 -256.240321685509 2 0 0
17 1 3 0 -169.56321272067672 -16.2769651466889 -261.83696172566215 2 0 0
41 1 3 0 -171.37310300999212 -15.388788169452143 -247.746453027271 2 0 0
40 1 4 0 -167.5350233857871 -10.974102104725928 -249.30412174691457 2 0 0
20 1 3 0 -157.24908971869755 -6.267334187857075 -265.45531615404286 2 0 0
19 1 3 0 -162.7741147928357 -7.64057652419567 -264.44725295468527 2 0 0
36 1 2 0 -152.25877863812912 -16.30457545591665 -261.53694566751216 2 0 0
18 1 1 0 -166.8081592582231 -10.920153304854392 -262.4980174106935 2 0 0
39 1 4 0 -162.44658872427493 -9.424888535331906 -252.00779347888476 2 0 0
38 1 2 0 -158.52468613140766 -9.774283803397605 -256.2146257025322 2 0 0
37 1 4 0 -155.0114893300225 -14.37590907601001 -256.9142454792731 2 0 0
3 1 2 0 -202.09505846119043 -22.335437590072985 -245.91128124570932 2 0 0
4 1 3 0 -196.67714326828025 -21.336697789016632 -247.47226367657387 2 0 0
2 1 3 0 -205.31941456701455 -25.13948660477399 -242.03656835899557 2 0 0
1 1 2 0 -210.2810700276084 -28.60084529518792 -241.45591536324253 2 0 0
45 1 4 0 -185.62521691556924 -26.472413203369282 -237.6712587520759 2 0 0
44 1 4 0 -181.3200937503074 -25.84627461163683 -241.89153468548926 2 0 0
46 1 4 0 -190.98732320817518 -25.764705239111212 -235.15799466631285 2 0 0
42 1 3 0 -175.3948550074497 -19.809206648889976 -248.23482065932245 2 0 0
43 1 1 0 -176.47437155952647 -25.00289509854186 -244.97847214468138 2 0 0
12 1 4 0 -164.99458614382002 -24.422321314222447 -240.5603142791179 2 0 0
11 1 4 0 -168.37165057552858 -22.00739746390673 -236.2564009528327 2 0 0
10 1 4 0 -172.44113570394748 -19.4208895549358 -233.44626298190934 2 0 0
14 1 2 0 -164.70422251655427 -27.455913178402078 -251.37637950864777 2 0 0
13 1 1 0 -163.90874695682888 -24.726125573207693 -246.23581048511124 2 0 0
50 1 2 0 -202.68703044717452 -11.351672519283033 -242.54240488031633 2 0 0
49 1 4 0 -200.62099728227636 -13.231314388853807 -237.21232498780893 2 0 0
5 1 3 0 -191.9955963165839 -18.370879273368256 -246.35110726797674 2 0 0
6 1 3 0 -189.53130555249544 -14.48683561283478 -242.83443958461655 2 0 0
7 1 1 0 -187.7644051636832 -12.972987868077315 -237.38624989171026 2 0 0
8 1 1 0 -182.47971171807274 -13.543040548650554 -235.377226932604 2 0 0
47 1 2 0 -195.24296039955874 -22.207054748425506 -233.23259191397287 2 0 0
9 1 4 0 -177.19668333946484 -15.829182947714347 -234.56843040216125 2 0 0
48 1 2 0 -199.10535412187863 -18.163949323086563 -233.91907534911536 2 0 0

Velocities

24 0.0016494882631730291 -0.0009244093288491835 0.0004090564574838137
25 0.0014364232463953451 0.0008215862016484425 0.00023349388646414206
29 -0.0007451524767920054 0.00031342797643944765 -0.0009531722557213563
30 0.0008605643424208849 0.0007984250010011388 -0.0009903405058554475
31 -0.0005372468309453451 0.0005370656376387575 0.0010468325172949355
32 -0.0016202867761266554 0.0011521812960524637 0.0011814595666055916
21 0.00027381581231361227 8.527393010611758e-05 -0.00041680754434250146
33 9.047415180094596e-05 0.0003906654899171432 -0.0008725097726257828
22 -0.0009798737873071795 0.0013932888473109425 -0.0002197329388263318
34 0.0005771549110009861 -0.001876497876933374 -0.0009532586599501448
35 0.0004724451614255921 -0.0005642406210309795 -0.0005546652506559005
28 0.0005576312021447963 0.00016681107997975264 0.0006474441088516912
27 0.00035716548951183206 -0.0007301368192321561 0.0004258058624389282
26 -0.00041121318096656146 0.00016003952277989221 0.0006699308883038638
23 -0.00024218849712307028 -0.0019235675625939972 0.0017545046784417575
16 -0.00027864353451464524 0.00026515544650953555 0.0005971263500057581
15 -0.0014755067124863658 0.00040531382134709014 -5.889801071095089e-05
17 -1.7806984944463485e-05 0.0004937652486638903 -0.000617344936387399
41 0.0005358250408492541 0.0022972843056337515 2.8145688761916024e-05
40 0.00014499271700401748 -0.00031489165923408326 -4.741345146642678e-06
20 0.0004410007339124681 -0.0005532415191596885 0.0013558926773638215
19 -0.00025164433532447525 -0.0008733588636279767 -6.787511626293642e-05
36 6.339946590610533e-05 -0.0004705909592036161 0.0036002616971343867
18 -6.064904625044723e-05 -3.3681108038695095e-05 -0.00040917636350752386
39 -0.00029381895853383466 0.000989456320159232 -0.0007159285289636799
38 -0.0005873874803057012 0.0003626075726864394 -0.0003140368511030391
37 -3.533098735821036e-05 0.000137325409450854 2.5676877674291706e-05
3 0.0001442248381856692 -0.00028736923018839807 -0.0005712101504285915
4 -0.0002021324151046197 -0.00016097212080033355 -0.0002704407829876771
2 0.0008891619601724378 -0.00031872685657054884 0.00014501375542208086
1 0.001098960685967056 0.0005577021963246396 -0.0012891607558488988
45 0.0002871463223543819 0.00024060769013360613 -0.0006593185152996653
44 0.00010347314168874557 -5.329385406099882e-05 0.00018474112545427063
46 0.000783182778920797 -0.0017065983422534332 -0.0017015005632184017
42 0.0009495818553431728 0.0005597897689087245 0.0006186034384405786
43 -0.000664225174506549 0.0005211404028159377 0.0001625359596096141
12 -0.00052882117573352 -0.001148611947956589 0.0003441727563702233
11 0.0010211786806366909 -0.001757884613618951 -0.001234732374221005
10 0.000375621538205224 -0.0002731485511894304 0.0013077419523189074
14 -0.0008129497058979276 0.00015947206335935663 0.0004947946015970213
13 -0.00044006746934773265 -0.0004372517868078468 0.001803069134385492
50 0.0005516785279188692 -0.0012764939550878364 -0.0006945961657793516
49 -0.0008565987726436401 -0.00111616873615543 -0.00022888713624885716
5 -0.0004154870031485135 1.7021111145610692e-05 0.0010126600870716202
6 0.0006385759020475256 -0.0005663324142670738 -0.0009025160457478616
7 0.001095885277689169 -0.001007339689872884 0.00019054252287652114
8 0.0013198318776617573 -0.00039747963631641217 7.161612304444563e-05
47 0.000634810926280941 -6.44749680522783e-05 0.0001588616142096256
9 -0.0006637532339404552 0.0014484380463629257 -0.0010835376233403532
48 0.001756620989372846 0.0001926691215875262 0.0006123160806776161

Bonds

1 1 24 25
2 1 25 26
3 1 29 30
4 1 30 31
5 1 31 32
6 1 32 33
7 1 21 22
8 1 33 34
9 1 22 23
10 1 34 35
11 1 35 36
12 1 28 29
13 1 27 28
14 1 26 27
15 1 23 24
16 1 16 17
17 1 15 16
18 1 17 18
19 1 41 42
20 1 40 41
21 1 20 21
22 1 19 20
23 1 36 37
24 1 18 19
25 1 39 40
26 1 38 39
27 1 37 38
28 1 3 4
29 1 4 5
30 1 2 3
31 1 1 2
32 1 45 46
33 1 44 45
34 1 46 47
35 1 42 43
36 1 43 44
37 1 12 13
38 1 11 12
39 1 10 11
40 1 14 15
41 1 13 14
42 1 49 50
43 1 5 6
44 1 6 7
45 1 7 8
46 1 8 9
47 1 47 48
48 1 9 10
49 1 48 49

Angles

1 1 23 24 25
2 1 24 25 26
3 1 28 29 30
4 1 29 30 31
5 1 30 31 32
6 1 31 32 33
7 1 20 21 22
8 1 32 33 34
9 1 21 22 23
10 1 33 34 35
11 1 34 35 36
12 1 27 28 29
13 1 26 27 28
14 1 25 26 27
15 1 22 23 24
16 1 15 16 17
17 1 14 15 16
18 1 16 17 18
19 1 40 41 42
20 1 39 40 41
21 1 19 20 21
22 1 18 19 20
23 1 35 36 37
24 1 17 18 19
25 1 38 39 40
26 1 37 38 39
27 1 36 37 38
28 1 2 3 4
29 1 3 4 5
30 1 1 2 3
31 1 44 45 46
32 1 43 44 45
33 1 45 46 47
34 1 41 42 43
35 1 42 43 44
36 1 11 12 13
37 1 10 11 12
38 1 9 10 11
39 1 13 14 15
40 1 12 13 14
41 1 48 49 50
42 1 4 5 6
43 1 5 6 7
44 1 6 7 8
45 1 7 8 9
46 1 46 47 48
47 1 8 9 10
48 1 47 48 49
