LAMMPS data file via write_data, version 29 Aug 2024, timestep = 408000000, units = real

50 atoms
4 atom types
49 bonds
1 bond types
48 angles
1 angle types

-500.6 500.6 xlo xhi
-500.6 500.6 ylo yhi
-500.6 500.6 zlo zhi

Masses

1 329.2
2 305.2
3 345.2
4 306.2

Bond Coeffs # harmonic

1 7.5 5.9

Angle Coeffs # harmonic

1 5 150

Atoms # full

50 1 1 0 -311.216381973529 -110.57352408877749 -319.10008398567936 2 0 0
49 1 1 0 -308.44988589457574 -115.48749898883715 -320.36525255131676 2 0 0
46 1 3 0 -294.3309228551861 -115.51437658468619 -311.820948359056 2 0 0
45 1 1 0 -292.6407484812372 -116.6735999774459 -306.1636140050441 2 0 0
44 1 4 0 -292.1752792351177 -115.13719416514424 -300.66621869071923 2 0 0
43 1 1 0 -291.26630911986206 -117.03284203021481 -295.22162986560016 2 0 0
48 1 3 0 -303.1264227883413 -117.22873046107816 -319.12995692979496 2 0 0
47 1 4 0 -299.3868327377583 -115.0752366470635 -315.0873202207066 2 0 0
41 1 2 0 -282.6302953866867 -121.46245316700372 -289.70334852590963 2 0 0
42 1 4 0 -287.1229463731058 -117.57354978638595 -290.83977087840157 2 0 0
40 1 4 0 -282.0952421401428 -125.8613101400326 -285.1487040651098 2 0 0
39 1 3 0 -283.50250987127106 -131.7543407989619 -284.3860582384356 2 0 0
28 1 2 0 -313.67051733694495 -126.54671393025714 -274.6440478463576 2 0 0
27 1 2 0 -318.8079115510346 -126.39507825668377 -271.16248321462905 2 0 0
29 1 4 0 -310.89762711398726 -125.0897455129018 -279.6246125785811 2 0 0
30 1 3 0 -307.5020037897354 -121.75254812493425 -283.1245089342503 2 0 0
31 1 2 0 -304.30446329874275 -117.2330296579022 -281.3535439396222 2 0 0
12 1 1 0 -308.5631201154703 -117.69735211309228 -270.15954494532525 2 0 0
9 1 3 0 -301.03524428327745 -130.90922512290086 -272.1573046953561 2 0 0
6 1 3 0 -291.08120894772054 -121.67242853656904 -280.6920852906403 2 0 0
8 1 2 0 -298.03494853172674 -130.40794985854737 -277.43778471750073 2 0 0
7 1 4 0 -295.8574311056029 -125.42592620317879 -279.94396284155874 2 0 0
36 1 2 0 -290.5964659187408 -128.8358242743784 -271.1187770572992 2 0 0
38 1 4 0 -285.66438373712185 -134.8526094939736 -279.78781731351194 2 0 0
37 1 1 0 -288.15623347372616 -132.84221771981385 -274.5942381284116 2 0 0
35 1 2 0 -293.8793647809571 -124.37614737988436 -269.601328419604 2 0 0
17 1 3 0 -327.25403779357197 -100.79711106095252 -270.70572739923057 2 0 0
15 1 4 0 -320.85063318261854 -108.40245864691471 -275.73025696488764 2 0 0
16 1 4 0 -323.51389167937754 -103.49800626429489 -274.70122650960644 2 0 0
14 1 1 0 -316.9320869432639 -112.32592519197819 -273.6318077131273 2 0 0
13 1 3 0 -311.50055034106106 -114.65683116686733 -273.68412378233825 2 0 0
32 1 2 0 -301.7146175053137 -113.17330013465981 -277.5062413742296 2 0 0
5 1 2 0 -285.95417408978443 -119.74857763689687 -278.1537201591608 2 0 0
4 1 4 0 -283.09311779491406 -116.30519179642837 -274.0917848936479 2 0 0
33 1 4 0 -298.8271978431949 -114.55222504881554 -272.2586017671277 2 0 0
34 1 3 0 -296.19851693824404 -119.24783520928662 -270.045487149962 2 0 0
3 1 4 0 -281.94819909198804 -110.6769862648827 -271.9156169532417 2 0 0
2 1 1 0 -279.1161673503186 -106.04410679230645 -271.46182905726965 2 0 0
1 1 1 0 -278.66880535228336 -101.20386886522029 -267.5439903770411 2 0 0
18 1 2 0 -328.6307490018363 -97.47011315116181 -266.12521972098847 2 0 0
26 1 4 0 -321.73141499242973 -122.87528024828177 -267.9919283045999 2 0 0
25 1 3 0 -323.591453448965 -119.34595567883434 -263.97997059576204 2 0 0
10 1 1 0 -302.93269923710517 -127.07153990211347 -267.86301818716896 2 0 0
11 1 3 0 -305.5468358438863 -121.86256456568182 -267.4811235298059 2 0 0
24 1 4 0 -325.280164882491 -115.33488197808458 -260.02708781728523 2 0 0
22 1 1 0 -327.2760913570803 -107.36531736064677 -253.6434233733508 2 0 0
23 1 3 0 -323.68239853712197 -110.46972221658542 -257.3409932656427 2 0 0
19 1 1 0 -329.3745987664824 -95.61677390328042 -260.6351369489124 2 0 0
20 1 2 0 -330.98617341351803 -96.98078655316033 -255.33689370509262 2 0 0
21 1 1 0 -329.9927188211427 -102.37070499830769 -252.70257616076668 2 0 0

Velocities

50 0.0005944009481230031 -0.00019929554862610483 0.0007069818104928898
49 0.0013964325934687203 0.0007212534428042972 0.0003816941077994915
46 0.0014338180566981409 0.0003117110893813239 3.108286813318001e-05
45 -0.0007922814489099179 0.0017772039557645157 -6.890192593122945e-05
44 0.00025462364084713577 4.154785399716697e-05 -0.0009408578981186413
43 0.00030047372355370224 0.0004087521147892502 0.00040233069267050126
48 0.000508284300886725 -0.0013609293349923243 -0.00011089305284962844
47 7.856464808399749e-06 -0.0009369257037480793 -6.389384905054593e-05
41 0.0005037073045014792 -0.0005027134475134238 0.0004971483263706948
42 0.0006899586755668408 -0.0002760082421020438 0.0001519471282680515
40 -0.0007244938219114165 -0.0004455977441946446 0.00016341227088760582
39 0.0004781960126157668 -0.00039058074299969374 -0.00038460474351468594
28 -0.0007394563076620305 -0.0021440638084892884 -0.0023292365690966653
27 0.00010304350821621843 -0.0010417290118291441 -0.0011035422980610993
29 -0.0008203039942224455 0.001115933872395422 -0.0006031121491167352
30 -0.00022184794310126086 -0.000697160421583164 -0.001759571727509749
31 0.0013117616051990422 0.00034263477593198037 6.541919777899248e-05
12 0.0007592803465830101 0.001134926875460691 0.0013433639707114333
9 0.0008657042548883644 0.0007599223224156446 -0.0003989147470467868
6 0.0006127075181420946 0.0007534776387374201 -0.00011100095568078267
8 -0.000533050308109737 0.00044634177999021337 -0.00027657611557907767
7 0.0013272940240616387 -0.0014193285519852454 -0.0014276490941766342
36 -0.0008657872799543143 0.00221661860091122 0.0012343170521734378
38 0.0008842558720064153 5.741006572877392e-06 0.0006871111667040441
37 0.0005214292241563746 -0.0008379290478900855 -0.0012699223223030672
35 -0.0009610671747655426 0.001559831025977857 0.0011351256723009923
17 0.0016234668264199334 0.000769391952629895 0.0002710814075111267
15 -0.0002238657757938914 0.001716648476823147 -0.00048741544420528003
16 -0.0006571187010732296 0.00038300265322004177 -0.0016854021106425473
14 0.0005102389870019401 -0.0006945250912442066 -9.848925683538924e-06
13 0.0004121592150394501 -4.6950463131344564e-05 0.0006693963559908338
32 -0.0008922793918503512 -0.0012491715316058666 0.0004068896669518479
5 -0.00013043081800199512 -0.0006676092070007527 0.00038230700554515155
4 -0.0008717996609319221 0.0005996119107575454 -0.0003257193937717563
33 -0.0012434680249155932 -0.0023153010956458793 0.0013542058197347593
34 0.0016357891490421412 -0.0017081733412423164 0.000664444997650518
3 -0.0009538597905429533 -0.001019430173621464 0.0007504863573358104
2 0.0006773970934836417 2.8564990865006906e-05 -0.0001988523398558329
1 -0.0012566527260690543 -0.0009007621163115784 -0.000210113872528512
18 -0.0005857477614576802 -2.7275564780005284e-05 0.001582144844643594
26 0.000266621531349575 -2.5914308356472022e-06 0.00046653832146565136
25 0.001684606459635449 0.0005653143205539767 -0.0007762487909883625
10 -0.0001862762352961707 5.936719227080953e-05 0.0011081822715682708
11 0.001372146234999029 0.0007444742290548933 0.0004997818115581043
24 0.00018456739672357032 7.686964630580922e-06 0.00012485327535098595
22 -0.0004761941672998345 0.0012415529504764 0.0015007665484519043
23 -0.0003998162232746925 -0.0015337627257851693 0.0012303278067736863
19 0.00015089771606730087 9.269710674702808e-05 0.0007931869485289084
20 -0.001019947575768701 -0.0007460752450954 -0.0010797009006044808
21 -0.00045453290301307746 -0.0008371030301002955 0.0005110064655290149

Bonds

1 1 49 50
2 1 46 47
3 1 45 46
4 1 44 45
5 1 43 44
6 1 48 49
7 1 47 48
8 1 41 42
9 1 42 43
10 1 40 41
11 1 39 40
12 1 28 29
13 1 27 28
14 1 29 30
15 1 30 31
16 1 31 32
17 1 12 13
18 1 9 10
19 1 6 7
20 1 8 9
21 1 7 8
22 1 36 37
23 1 38 39
24 1 37 38
25 1 35 36
26 1 17 18
27 1 15 16
28 1 16 17
29 1 14 15
30 1 13 14
31 1 32 33
32 1 5 6
33 1 4 5
34 1 33 34
35 1 34 35
36 1 3 4
37 1 2 3
38 1 1 2
39 1 18 19
40 1 26 27
41 1 25 26
42 1 10 11
43 1 11 12
44 1 24 25
45 1 22 23
46 1 23 24
47 1 19 20
48 1 20 21
49 1 21 22

Angles

1 1 48 49 50
2 1 45 46 47
3 1 44 45 46
4 1 43 44 45
5 1 42 43 44
6 1 47 48 49
7 1 46 47 48
8 1 40 41 42
9 1 41 42 43
10 1 39 40 41
11 1 38 39 40
12 1 27 28 29
13 1 26 27 28
14 1 28 29 30
15 1 29 30 31
16 1 30 31 32
17 1 11 12 13
18 1 8 9 10
19 1 5 6 7
20 1 7 8 9
21 1 6 7 8
22 1 35 36 37
23 1 37 38 39
24 1 36 37 38
25 1 34 35 36
26 1 16 17 18
27 1 14 15 16
28 1 15 16 17
29 1 13 14 15
30 1 12 13 14
31 1 31 32 33
32 1 4 5 6
33 1 3 4 5
34 1 32 33 34
35 1 33 34 35
36 1 2 3 4
37 1 1 2 3
38 1 17 18 19
39 1 25 26 27
40 1 24 25 26
41 1 9 10 11
42 1 10 11 12
43 1 23 24 25
44 1 21 22 23
45 1 22 23 24
46 1 18 19 20
47 1 19 20 21
48 1 20 21 22
