LAMMPS data file via write_data, version 29 Aug 2024, timestep = 408000000, units = real

50 atoms
4 atom types
49 bonds
1 bond types
48 angles
1 angle types

-500.6 500.6 xlo xhi
-500.6 500.6 ylo yhi
-500.6 500.6 zlo zhi

Masses

1 329.2
2 305.2
3 345.2
4 306.2

Bond Coeffs # harmonic

1 7.5 5.9

Angle Coeffs # harmonic

1 5 150

Atoms # full

16 1 4 0 -429.2285065704026 -298.48615089691447 -387.37261382287795 2 0 0
17 1 4 0 -423.61875203652096 -298.4864536185012 -389.8987742765519 2 0 0
18 1 3 0 -419.07306409471624 -295.1935122916024 -388.1916035215063 2 0 0
19 1 4 0 -414.4848271075882 -292.9836576718337 -385.152179880887 2 0 0
49 1 1 0 -427.6249732958523 -286.01247699389546 -393.2703584205184 2 0 0
48 1 3 0 -423.7935666422169 -286.5116124943915 -389.36199319788795 2 0 0
47 1 1 0 -424.755278118374 -286.3513937991998 -383.34832854578923 2 0 0
50 1 4 0 -429.7975139101326 -282.9892617544237 -397.823889701975 2 0 0
15 1 2 0 -433.13709559579894 -296.0310118379264 -383.8083495596858 2 0 0
14 1 1 0 -438.610560957905 -295.9924581782536 -381.0551894315787 2 0 0
13 1 1 0 -439.09588171234134 -296.7144549736279 -375.1901474712047 2 0 0
12 1 1 0 -436.05067383555615 -296.60035049009514 -369.75694815437487 2 0 0
43 1 2 0 -417.9632653093452 -297.1247461434835 -364.9602769224766 2 0 0
44 1 3 0 -420.3716188380179 -292.6637666796864 -368.1664175768944 2 0 0
45 1 1 0 -421.65588835283313 -290.7247210013853 -373.3828223669438 2 0 0
46 1 2 0 -422.5993211600597 -286.9293841052662 -378.1083681952864 2 0 0
20 1 2 0 -412.574350665588 -292.65728614531025 -379.3737518117604 2 0 0
21 1 1 0 -408.38763974242516 -291.4489305365807 -375.2730304519212 2 0 0
22 1 4 0 -407.85864197849116 -287.4617671725787 -371.3276144072576 2 0 0
42 1 3 0 -412.4860488131318 -298.65233030265614 -364.7517220958264 2 0 0
11 1 3 0 -434.53717884066396 -293.19905957147864 -365.2168268018652 2 0 0
10 1 1 0 -431.3211930169153 -290.85363314431225 -360.8343694097203 2 0 0
9 1 4 0 -429.74216768178826 -293.5889934804448 -355.92481131985386 2 0 0
8 1 3 0 -430.0621662934915 -296.0731637930914 -350.5688095071278 2 0 0
7 1 3 0 -427.44723929530204 -299.2403243423304 -346.71521252975214 2 0 0
23 1 1 0 -409.9076625041366 -286.70223607714684 -366.1332338745868 2 0 0
24 1 4 0 -412.2929601669972 -287.1331407991535 -360.86328486693685 2 0 0
41 1 1 0 -406.79115808685697 -299.02019228439053 -363.61465020388016 2 0 0
40 1 3 0 -403.3549540390756 -294.4993418834463 -362.84675066418686 2 0 0
39 1 1 0 -400.0219754265566 -290.63422640573947 -360.29008646455435 2 0 0
38 1 3 0 -398.5441739265338 -288.5051057318484 -354.83172311905196 2 0 0
37 1 3 0 -395.17557609275855 -289.90076927068264 -350.0486013268015 2 0 0
25 1 1 0 -417.7490573537364 -287.2439958197111 -358.607291260594 2 0 0
26 1 2 0 -421.88940482131864 -285.63376594527097 -354.4919803992879 2 0 0
27 1 2 0 -425.392236273406 -285.65010895157656 -349.711492822225 2 0 0
6 1 1 0 -421.6703744631671 -300.23961308309663 -345.6219831453352 2 0 0
28 1 3 0 -425.63359982940955 -288.3517583067558 -344.6302637101461 2 0 0
29 1 4 0 -422.75896044282655 -291.131587691682 -340.2789910286967 2 0 0
30 1 4 0 -418.7288134850107 -292.6447140445035 -336.5282638058272 2 0 0
31 1 2 0 -415.0594490302597 -297.3265367620232 -334.74677258298345 2 0 0
5 1 2 0 -415.7938756785877 -297.92779844261526 -345.7753108480522 2 0 0
4 1 1 0 -410.9206177734132 -294.67393927899855 -346.20441855065536 2 0 0
3 1 3 0 -408.2590026761318 -289.74083222712477 -344.93152350773573 2 0 0
33 1 4 0 -404.75539608986844 -297.9835087105804 -335.89551210205224 2 0 0
2 1 4 0 -407.2814556258855 -284.4603135706041 -343.24309712672834 2 0 0
32 1 2 0 -409.48100958801336 -296.11058056312953 -332.90251622190397 2 0 0
34 1 2 0 -403.2243007026563 -300.72027175488296 -340.90100804037434 2 0 0
35 1 4 0 -398.8303585500229 -298.3416264931053 -344.1862961613954 2 0 0
36 1 3 0 -395.61576915860894 -293.9083885616379 -345.66049228265257 2 0 0
1 1 4 0 -408.37550900282685 -280.01846538790954 -339.25032709573514 2 0 0

Velocities

16 0.0009488255302559719 0.0007292463397513643 -6.854594901761254e-05
17 0.0005300791073212468 0.0001005543234256598 0.00013003579519498703
18 7.108812379613958e-05 -0.0007029994674600556 0.0002854086901753423
19 0.00145528754393067 0.0006585426827604402 0.001743377894825751
49 0.0007948584375273272 -0.0005386878918870171 0.0009503996892096393
48 -0.0019263093942628305 -0.0004675838046476738 -0.0010381694301751527
47 -0.0007001247046729462 8.231629863311111e-05 0.0005950535813447052
50 -0.0006467685846477248 -0.0007571024701595093 -0.0007997426836712533
15 -0.000251991341928468 0.00034749251454000026 -0.000815360614712579
14 0.0003525921675783737 0.0017953775174425375 -0.000748171343716243
13 -0.00018044591872909212 -7.233822006383522e-05 0.0003613943612084738
12 0.0012296522052401844 -0.00043736101584592086 -0.001236875901601584
43 0.001765508757837301 0.000508959654000433 0.00048414133448797123
44 -0.0008172085376292045 0.0012795125652115724 -0.00047703923009096067
45 0.0017406277516286322 -0.0004936798797024267 0.001866246807487853
46 0.0008757217916656565 -0.00041518215688042846 -0.0007231652889528853
20 0.0017222484164817328 0.0010872849303753128 0.0002084871826255659
21 0.00026985262187378354 -0.0003803922634078161 -0.00036028484312409023
22 0.00012486144203698396 0.0010025221138352438 -0.0006596761651048306
42 0.00018290711049584135 0.002025650256041087 0.0003039739881925384
11 -0.0003465564935363686 -0.0010055715005014472 -3.825985104748388e-05
10 -0.0005551866830699833 -0.0016569052060441758 0.0006023553320372916
9 0.0010024764312222437 9.960514513518536e-05 -0.00033780327467331834
8 8.726127640035715e-05 0.0012153451005578392 0.0007210202914763578
7 -0.00030572838938570544 -0.0016720938186291481 0.00016163824255998596
23 -0.00042986269657629934 0.0002649566846182165 -0.0006629673037053345
24 2.4675655942906996e-05 0.0003016132416159744 -0.0001934233346209586
41 0.0012765321787311212 -0.001492638247242362 0.0005711833369114482
40 -0.0008539772069179941 -0.0007298513179614034 -0.002153507232250661
39 0.002114316709739033 -0.0010045432219747163 0.0006752412664446111
38 0.0011094009572821231 1.6581014656502994e-05 0.001047414678780015
37 -0.0007935989252629896 -0.0005292536096658916 -5.2318691349007105e-05
25 -0.0003881373603774997 -0.0004987551652151538 -0.0006378262092167159
26 0.0006915774060663105 -8.702337054421625e-05 0.002180765134819421
27 -0.0008188495389693654 0.00013400467167409567 0.001051870288413772
6 -0.000647335972545497 -0.0005601232784867134 0.0012733445320160096
28 -2.9133927258090125e-05 0.0009297156966268773 -0.000239327088565554
29 0.0006303019490832318 -0.0003982835335513818 7.315575807953853e-05
30 0.0013593194846740135 -0.00023148231591930914 8.214955275721812e-05
31 -0.0006366056574832763 0.00025367909074675303 -0.001015218241198355
5 -0.000504745567252236 -0.0006330581905462596 0.001405826129937508
4 -0.00018982873467850264 -0.0007862815762953938 -0.0021640266573176217
3 -0.0010247108260720175 -0.00016476369475032932 -0.0006550923882131998
33 0.000890394169091551 0.0003306472922561691 4.443476912162897e-05
2 -0.0004171772545705446 -0.00045222333234917024 -0.00037620632785305663
32 -0.0023783516876059595 0.0006176904517213441 0.00059048319577246
34 0.002420067281305509 -0.000761681419363419 0.0010892411196712275
35 0.0007911448731790044 -0.0014066262914981978 -0.00011792975333968935
36 -0.001623708788119921 -0.00020936958630452353 0.000262234115796424
1 -8.49041052993056e-06 0.0010967556762872357 0.0005421407806246248

Bonds

1 1 16 17
2 1 17 18
3 1 18 19
4 1 19 20
5 1 49 50
6 1 48 49
7 1 47 48
8 1 15 16
9 1 14 15
10 1 13 14
11 1 12 13
12 1 43 44
13 1 44 45
14 1 45 46
15 1 46 47
16 1 20 21
17 1 21 22
18 1 22 23
19 1 42 43
20 1 11 12
21 1 10 11
22 1 9 10
23 1 8 9
24 1 7 8
25 1 23 24
26 1 24 25
27 1 41 42
28 1 40 41
29 1 39 40
30 1 38 39
31 1 37 38
32 1 25 26
33 1 26 27
34 1 27 28
35 1 6 7
36 1 28 29
37 1 29 30
38 1 30 31
39 1 31 32
40 1 5 6
41 1 4 5
42 1 3 4
43 1 33 34
44 1 2 3
45 1 32 33
46 1 34 35
47 1 35 36
48 1 36 37
49 1 1 2

Angles

1 1 15 16 17
2 1 16 17 18
3 1 17 18 19
4 1 18 19 20
5 1 48 49 50
6 1 47 48 49
7 1 46 47 48
8 1 14 15 16
9 1 13 14 15
10 1 12 13 14
11 1 11 12 13
12 1 42 43 44
13 1 43 44 45
14 1 44 45 46
15 1 45 46 47
16 1 19 20 21
17 1 20 21 22
18 1 21 22 23
19 1 41 42 43
20 1 10 11 12
21 1 9 10 11
22 1 8 9 10
23 1 7 8 9
24 1 6 7 8
25 1 22 23 24
26 1 23 24 25
27 1 40 41 42
28 1 39 40 41
29 1 38 39 40
30 1 37 38 39
31 1 36 37 38
32 1 24 25 26
33 1 25 26 27
34 1 26 27 28
35 1 5 6 7
36 1 27 28 29
37 1 28 29 30
38 1 29 30 31
39 1 30 31 32
40 1 4 5 6
41 1 3 4 5
42 1 2 3 4
43 1 32 33 34
44 1 1 2 3
45 1 31 32 33
46 1 33 34 35
47 1 34 35 36
48 1 35 36 37
