LAMMPS data file via write_data, version 29 Aug 2024, timestep = 408000000, units = real

50 atoms
4 atom types
49 bonds
1 bond types
48 angles
1 angle types

-500.6 500.6 xlo xhi
-500.6 500.6 ylo yhi
-500.6 500.6 zlo zhi

Masses

1 329.2
2 305.2
3 345.2
4 306.2

Bond Coeffs # harmonic

1 7.5 5.9

Angle Coeffs # harmonic

1 5 150

Atoms # full

1 1 3 0 -252.94456516676055 -126.60656776479935 -328.7674822204069 2 0 0
3 1 1 0 -243.02319768236018 -128.89520649466078 -324.83892142599365 2 0 0
4 1 1 0 -238.4338523942426 -126.42178007182142 -322.1861284320079 2 0 0
2 1 3 0 -248.80371888002642 -128.68987057313188 -325.3272242462692 2 0 0
5 1 4 0 -236.01011976785946 -124.13427358714704 -317.1785816451913 2 0 0
6 1 1 0 -236.50383362115866 -126.2687965132261 -311.72879476422725 2 0 0
7 1 1 0 -236.4403199734038 -123.69962178632736 -306.0618694898869 2 0 0
8 1 3 0 -238.5030285953205 -121.07360184038302 -301.48031103919965 2 0 0
19 1 3 0 -283.79437783715997 -137.49682675880032 -288.2534935675913 2 0 0
18 1 1 0 -280.3082494446903 -134.94231464479697 -292.0635041734194 2 0 0
16 1 4 0 -268.8366996374406 -134.82935192405975 -293.74349302848464 2 0 0
17 1 1 0 -274.7376531130649 -135.38610413550802 -294.11412055775077 2 0 0
15 1 1 0 -264.78594198061745 -131.31624940309345 -292.0883181180509 2 0 0
14 1 1 0 -262.3914774253574 -127.70109977937622 -288.35120541441927 2 0 0
12 1 1 0 -251.46458271457675 -125.17146884149115 -286.2483956926418 2 0 0
13 1 2 0 -257.32531884167366 -126.02841855992989 -285.93413333662386 2 0 0
9 1 1 0 -243.04561279627902 -120.30644994545844 -297.859128177176 2 0 0
10 1 3 0 -246.8760052717442 -123.42839358583092 -295.0836148471342 2 0 0
11 1 1 0 -248.4744539396995 -127.67580394001443 -290.93482641704094 2 0 0
31 1 3 0 -283.70323876572667 -166.52629975186093 -270.0784086012732 2 0 0
28 1 4 0 -294.0537858954238 -155.8298099519426 -271.29948517430824 2 0 0
29 1 2 0 -291.2678187949782 -159.89143202532372 -274.41378319819063 2 0 0
30 1 1 0 -286.9315901896862 -164.2114035975205 -274.49391937005424 2 0 0
41 1 3 0 -281.11974047543805 -152.64267338816498 -268.38183630812756 2 0 0
42 1 4 0 -283.09609932099164 -150.83233225508354 -274.0040886364185 2 0 0
27 1 3 0 -294.4762199163672 -153.48999740489032 -266.16087300049395 2 0 0
46 1 1 0 -299.51098869735307 -143.12255709443042 -268.53054145434754 2 0 0
45 1 3 0 -297.76859787987917 -145.92028980782214 -273.61705606277275 2 0 0
43 1 2 0 -287.32162750977255 -147.27560097158673 -275.9273581876721 2 0 0
44 1 2 0 -292.99511159013537 -145.74306578061405 -277.2030763335728 2 0 0
21 1 2 0 -284.1115478927536 -137.75950555807 -277.74351329624005 2 0 0
20 1 3 0 -285.0281825928667 -135.4857533159261 -283.131677257826 2 0 0
22 1 1 0 -283.67708276752046 -137.33501233536032 -271.92929229415665 2 0 0
23 1 3 0 -283.2411071762651 -138.49583821754274 -265.8257768123745 2 0 0
32 1 4 0 -281.3047600765813 -166.86633940652936 -264.96167146365804 2 0 0
33 1 4 0 -280.6978460933202 -168.6415917270844 -259.30655434656046 2 0 0
34 1 4 0 -284.1109858397066 -170.7348722289126 -254.4686878183669 2 0 0
35 1 4 0 -284.615328865561 -168.3667344991708 -249.6128859785875 2 0 0
40 1 2 0 -280.5748522735286 -156.4189127200763 -264.4140555578697 2 0 0
38 1 1 0 -273.6094834947433 -161.04857225895745 -255.60271581636965 2 0 0
39 1 2 0 -276.7440336436347 -158.78760377337025 -260.2532360437858 2 0 0
47 1 3 0 -299.09920027790514 -139.8958890105267 -263.92414308014946 2 0 0
26 1 2 0 -291.3857975851068 -151.30504183303051 -261.7441694907759 2 0 0
25 1 3 0 -288.7131035319873 -146.40696745517062 -259.7751321176687 2 0 0
24 1 2 0 -285.5494625955626 -141.77793153607146 -261.4587903312448 2 0 0
48 1 2 0 -295.74615292822784 -135.40288342892697 -261.4089373274611 2 0 0
50 1 1 0 -287.55761192778795 -127.92691784647926 -260.4451630703849 2 0 0
49 1 3 0 -291.44367768937883 -131.72457310761507 -262.39966351791594 2 0 0
36 1 1 0 -280.9047593402295 -164.72679708754262 -247.72222350973001 2 0 0
37 1 3 0 -275.8770037365483 -162.41301151394282 -250.27879560125362 2 0 0

Velocities

1 -0.00037627749482274994 0.0009842880272681242 0.0010282056859018318
3 0.001245373462247207 -0.00019397614191888306 0.0011501554098664179
4 0.0004991286076144687 -0.00017454909968151218 -0.0001733434093864352
2 0.0006099695051552333 0.0014381280617087996 0.001063565011389723
5 0.001490690101671046 -0.00035018253113186683 -0.0009266725153095175
6 0.0010438462368745104 0.0004414976247139194 -0.0004601375704801201
7 0.0007340031189938565 0.0009730825416309643 -0.00016969836495986745
8 -0.0014808596461799168 0.0012730861778506434 -0.0006298366874351091
19 0.0015725864814748426 -0.00026603025593146775 0.001011881513138111
18 -0.00031264132937645006 -0.001166477988082646 -5.165126841943924e-05
16 0.00028475853535562997 -0.0017925397022260244 0.0003613254154910529
17 -9.382769241762632e-05 0.00067973775620027 0.0007056257385594832
15 8.111977816224233e-05 -0.00024811973626141196 0.0002984788140853839
14 -0.0002013982706315718 -0.0008215748276117493 0.0007214232380795957
12 -0.0002854780890275086 0.0003427794333145664 -0.0012932899937483202
13 -0.00021757734807906397 9.382428732355624e-05 0.0007542175975566224
9 -0.0003905569362370007 -0.0008999044228236254 -0.00019487685494183417
10 -0.000524464400463048 -0.0004931525685747773 0.0005475444752262356
11 0.0016091643763210337 -0.0012285537597395953 0.0007927134021791194
31 0.0007156678834811181 -0.00037984260760753967 -0.00011473637613024122
28 0.0014223598134195455 0.0006239242195653144 -0.0010066509690889961
29 0.0014265296670471711 0.00036836908713957454 0.0003130372868027186
30 0.0002606771021728056 0.000922627023043906 0.00043636004493414256
41 0.0011701918582406343 0.0009134363229842019 3.57674093187115e-05
42 -9.438882944205275e-05 -0.001045328737303255 -0.0006823650442924
27 0.0006044280952737124 -0.0006682924995745767 -0.00043543852017492095
46 -0.0009339706361651773 0.00031030612585780177 0.001478404119900963
45 -0.0010097022851722232 -0.0007761168454718027 0.0006665235072493061
43 -0.0003089270780487863 -0.000894653175025124 -0.00046507251377862074
44 3.357682099717526e-05 -0.0004567157180556671 0.0020652925851444856
21 0.0004941636915608649 0.0013352573740812125 0.0004220959013539868
20 -0.00031194754379497804 -0.0009471949248718678 -0.0008434394565878
22 0.00036073780478232864 0.0017126775647439492 -0.0017450423676035013
23 0.0006022981134831722 -0.00037739214161655024 7.508776214158863e-05
32 0.001828230289622178 -0.0013118690399046202 -7.240611153797407e-06
33 -0.0005160912800039307 -0.0005250169306058414 -0.0007242247898058032
34 -0.00022333136480899406 0.00026735553161461755 -3.494499894376689e-05
35 0.000519649915183355 -0.000494617713398078 0.000997350911138085
40 0.0004789321972919649 0.0010376854057702327 -0.0007209385578995705
38 -0.0003160403551333126 5.512252721540071e-06 -1.947886722000063e-05
39 -0.0010569472316030713 -0.0004942652123137002 -5.6251595174961243e-05
47 0.0005198277044980458 0.0002388318346090287 0.0007231377144112758
26 -0.001011583442971388 0.0003631312032434426 0.0003291775102572572
25 0.0010877623402113928 -0.0014684593861958696 9.522146044773471e-05
24 0.00015161471244152738 0.0002569361361386995 -9.998135938852221e-05
48 -0.0007217840420969116 -0.0015670176406377626 0.00042252445330194526
50 -0.0006256926828090602 0.0014247286815979555 -0.00028164542679666015
49 -0.001093076548020275 0.00011020862505952028 -0.001606049978426266
36 -0.0011908817465356167 0.0002128453203337691 -0.0015436567539990214
37 -0.00040230212159323656 -0.0011841780669828337 0.0009459618650637559

Bonds

1 1 1 2
2 1 3 4
3 1 4 5
4 1 2 3
5 1 5 6
6 1 6 7
7 1 7 8
8 1 8 9
9 1 19 20
10 1 18 19
11 1 16 17
12 1 17 18
13 1 15 16
14 1 14 15
15 1 12 13
16 1 13 14
17 1 9 10
18 1 10 11
19 1 11 12
20 1 31 32
21 1 28 29
22 1 29 30
23 1 30 31
24 1 41 42
25 1 42 43
26 1 27 28
27 1 46 47
28 1 45 46
29 1 43 44
30 1 44 45
31 1 21 22
32 1 20 21
33 1 22 23
34 1 23 24
35 1 32 33
36 1 33 34
37 1 34 35
38 1 35 36
39 1 40 41
40 1 38 39
41 1 39 40
42 1 47 48
43 1 26 27
44 1 25 26
45 1 24 25
46 1 48 49
47 1 49 50
48 1 36 37
49 1 37 38

Angles

1 1 2 3 4
2 1 3 4 5
3 1 1 2 3
4 1 4 5 6
5 1 5 6 7
6 1 6 7 8
7 1 7 8 9
8 1 18 19 20
9 1 17 18 19
10 1 15 16 17
11 1 16 17 18
12 1 14 15 16
13 1 13 14 15
14 1 11 12 13
15 1 12 13 14
16 1 8 9 10
17 1 9 10 11
18 1 10 11 12
19 1 30 31 32
20 1 27 28 29
21 1 28 29 30
22 1 29 30 31
23 1 40 41 42
24 1 41 42 43
25 1 26 27 28
26 1 45 46 47
27 1 44 45 46
28 1 42 43 44
29 1 43 44 45
30 1 20 21 22
31 1 19 20 21
32 1 21 22 23
33 1 22 23 24
34 1 31 32 33
35 1 32 33 34
36 1 33 34 35
37 1 34 35 36
38 1 39 40 41
39 1 37 38 39
40 1 38 39 40
41 1 46 47 48
42 1 25 26 27
43 1 24 25 26
44 1 23 24 25
45 1 47 48 49
46 1 48 49 50
47 1 35 36 37
48 1 36 37 38
