LAMMPS data file via write_data, version 29 Aug 2024, timestep = 408000000, units = real

50 atoms
4 atom types
49 bonds
1 bond types
48 angles
1 angle types

-1000.6 1000.6 xlo xhi
-1000.6 1000.6 ylo yhi
-1000.6 1000.6 zlo zhi

Masses

1 329.2
2 305.2
3 345.2
4 306.2

Bond Coeffs # harmonic

1 7.5 5.9

Angle Coeffs # harmonic

1 5 150

Atoms # full

42 1 1 0 -427.11341979168526 -168.18962023145662 -457.75582243326295 1 0 0
41 1 2 0 -426.71890047682587 -162.3695660063637 -458.2188694229027 1 0 0
43 1 3 0 -424.4453432166701 -173.15456623251052 -457.11247983369543 1 0 0
6 1 2 0 -415.60804635727646 -161.68250300001048 -460.85407076933063 1 0 0
5 1 4 0 -415.9417098510747 -165.48390307452186 -456.0823576439324 1 0 0
7 1 4 0 -417.9833710759542 -156.7186110647984 -462.77119765102105 1 0 0
40 1 3 0 -426.5386688657772 -157.0213460745688 -456.4828794661128 1 0 0
9 1 1 0 -426.59085699241206 -152.41178598650248 -466.25242829258826 1 0 0
10 1 3 0 -428.691900651562 -147.60015972690354 -464.05409448317556 1 0 0
11 1 4 0 -428.962952371763 -142.55041460112818 -460.9354394718819 1 0 0
8 1 2 0 -421.9652550186521 -155.70359111531528 -467.16850478183886 1 0 0
47 1 2 0 -438.15156829391526 -182.37228284288088 -445.1619913512574 1 0 0
46 1 1 0 -433.08707853417 -183.24167024752563 -447.9225087317042 1 0 0
45 1 1 0 -429.72147172865795 -182.37063432397423 -452.4068695570996 1 0 0
44 1 2 0 -425.79341197057647 -178.60985899408388 -455.6926622515683 1 0 0
2 1 2 0 -422.98543796709197 -167.8783196662969 -442.9720694425624 1 0 0
3 1 4 0 -418.8044780315647 -170.02032876447316 -446.61249604904356 1 0 0
1 1 4 0 -427.23034655266986 -164.17308064998127 -440.14516404305505 1 0 0
4 1 3 0 -416.34723837582175 -167.55470076555991 -450.86046944646284 1 0 0
12 1 1 0 -426.8416357896125 -141.07936887862792 -455.6833227564289 1 0 0
39 1 4 0 -422.3758228543154 -154.03727489944768 -453.4173503291681 1 0 0
38 1 3 0 -417.99787422693396 -149.83440602705159 -454.3077686279378 1 0 0
37 1 2 0 -413.5219758380559 -146.2009506207847 -453.01367583573034 1 0 0
36 1 2 0 -413.0994393272239 -140.43434288124513 -453.0645719289154 1 0 0
16 1 2 0 -414.10038306955755 -143.79863542130877 -440.89724891901557 1 0 0
17 1 1 0 -409.5153696328329 -140.5921505768375 -441.3447485287767 1 0 0
18 1 1 0 -403.4427008198643 -141.068736790802 -441.38179039114465 1 0 0
19 1 1 0 -398.9272935319448 -143.72237600676652 -438.6329564852431 1 0 0
13 1 3 0 -426.6452033387971 -144.13482831462179 -450.5202649429989 1 0 0
14 1 3 0 -424.09102009190735 -143.54196460846944 -445.05121162304926 1 0 0
35 1 4 0 -414.8048699643845 -135.2449667908675 -450.40704058443964 1 0 0
34 1 3 0 -413.2417088322833 -131.4586840303947 -446.5315344363572 1 0 0
33 1 1 0 -413.330620575435 -130.2011315150209 -440.74499582464836 1 0 0
15 1 3 0 -419.97449864441484 -143.90980269249755 -441.1889511026171 1 0 0
32 1 3 0 -411.58287043399577 -131.19341169045526 -435.274002231745 1 0 0
49 1 1 0 -443.87616328032374 -179.45702452142385 -435.9656199309023 1 0 0
48 1 3 0 -441.4313080428632 -181.61312440550017 -440.69445403361175 1 0 0
50 1 1 0 -442.9287436903072 -179.8507225678354 -430.0621046504003 1 0 0
20 1 2 0 -394.3692723216989 -143.94867757904703 -435.11755258535555 1 0 0
22 1 1 0 -386.4281404753441 -145.27927300435735 -426.82144985196544 1 0 0
23 1 1 0 -382.2872290613623 -143.01425458296424 -423.2738735613263 1 0 0
21 1 1 0 -391.09214440320875 -144.00588296451429 -430.22167629371603 1 0 0
31 1 3 0 -411.2496362053803 -133.79398303663885 -430.07778220974996 1 0 0
30 1 4 0 -409.7421807868462 -137.5136185594978 -426.00129875667983 1 0 0
29 1 4 0 -405.2533311511733 -140.2497999629677 -423.0746609598907 1 0 0
28 1 1 0 -400.7800525165366 -139.03730011137256 -419.5109211336055 1 0 0
26 1 2 0 -391.6637456075038 -134.97344261448325 -413.56122881040255 1 0 0
27 1 3 0 -397.08349315525834 -135.1357204102838 -416.13453026851374 1 0 0
25 1 2 0 -386.3373053726236 -135.15250752869673 -416.14901247509283 1 0 0
24 1 3 0 -382.703295853789 -138.66671720597952 -418.98858281831133 1 0 0

Velocities

42 0.0012136560936159536 -0.0008028305814734584 -0.000271388614944373
41 0.00031915884306597586 0.0011841978850396949 -0.0007864514237319386
43 7.509005889086065e-05 -0.001150815336208986 0.0016986969311305845
6 0.000951633679777872 -0.0008866638407786055 -0.0009577468077329391
5 0.0016450529158529147 -0.0003302840175622147 -0.00017359187963527354
7 -0.00018644882145407693 -0.0003342737484492994 0.0011561272562350346
40 -2.517481194950668e-05 0.0005649297175387285 0.0004936728583218547
9 0.0009295731109914821 -4.24450413578204e-05 -0.000833970618138025
10 -0.0012064099013261807 0.0005009157522839313 -0.0014315274212947256
11 -0.0020444191317217047 -8.82902250751134e-05 -0.001709342556393768
8 9.176630153530786e-05 0.0006338645436582153 0.0006577245463437978
47 -0.0004133216793442875 -0.0003689941418103321 -0.0002848579492505272
46 0.000678346372397083 0.0001483193367074969 -0.00018175471106316696
45 0.0005073411102845319 0.00046843334195440797 0.0004741926492360815
44 0.0014803336042090913 0.00013042031491631914 -0.00027999263396281276
2 0.0004990730469245587 0.0007307197322156956 0.00033684944866051186
3 -0.0014859925799365428 -0.00025738148591740353 0.0009854915478432682
1 0.0007349000115484277 0.0007872059362442997 0.0010402230509446312
4 0.00025791407946849085 -0.00039402933183859746 -0.000525098350677924
12 -0.0006619943678047121 0.0013885563228929177 -0.0006184934611547724
39 0.00042573869308683846 -0.00048680275251387835 -0.0004274272853221747
38 -0.0004950893665512464 0.0010686223202072281 0.0006658383860457929
37 -0.0007264986107827167 0.0010329105523205755 -0.00046391058459532104
36 0.0013368428138865788 0.001483973637052003 0.000393910960262075
16 0.00030030890009772606 -0.00021819424985137256 -0.000926803910216699
17 0.00047594012802374785 -0.00039430699966033186 -0.0005052428816612926
18 0.000566125568364615 0.0002689226847252507 -0.00013084956299803065
19 -0.0002770125403202719 0.0005607401733901472 -3.80354758432098e-06
13 -5.916058737437488e-06 0.0007045216658841693 0.0007430439660544937
14 5.145229991674854e-05 -0.0008155492293910545 0.00010048945270394863
35 0.0017023496266926786 -0.000970211578027018 0.0022115529001815884
34 -0.0008112115030729472 -5.877392718332097e-05 0.000984469146779229
33 -0.0011410378719610907 -0.0011248022237286513 -0.0009089854900808498
15 0.0006221475064874314 -0.0011162521617472886 -0.0011191345158486454
32 -6.175624889126358e-05 -0.00034274573561263524 0.0002496488897569067
49 0.000626189687552693 -0.0002181922980004737 -0.00010896656656103405
48 -0.00041965488067846434 -0.0011631088050814413 -0.0001974740417962947
50 0.0009913133951878776 -0.0004606608043260439 -0.0009724793210284878
20 -0.0002061001707611533 0.00091958927823121 0.00037521273383350225
22 -0.00021870483499632863 -0.0007226365822170913 -0.0005303420156530202
23 -0.00023310461010481322 -0.0004384965451331647 0.0005519687018166686
21 0.000368834038083189 -0.0007568866833769376 0.0013884815272341875
31 -0.0005494965301362759 -0.0005158253580443446 0.0014185549802196453
30 -8.53197318222048e-05 0.0007686207740973697 0.0013290046303002657
29 0.0001570250132714193 -0.00010779177412310458 0.0012214287530302622
28 -0.0006320334381574467 -8.984184968272187e-05 0.0012157811369103947
26 -0.00021806047395832033 0.0006633963273976038 -0.0012128910035505956
27 0.0006968416372546748 -0.0021746571742307674 -0.00011746697402074706
25 0.0011403007883823094 -0.0001046307571056652 0.0016740870634106833
24 0.0006122511041711297 -0.0002977741544935015 -0.0021105529483995953

Bonds

1 1 42 43
2 1 41 42
3 1 43 44
4 1 6 7
5 1 5 6
6 1 7 8
7 1 40 41
8 1 9 10
9 1 10 11
10 1 11 12
11 1 8 9
12 1 47 48
13 1 46 47
14 1 45 46
15 1 44 45
16 1 2 3
17 1 3 4
18 1 1 2
19 1 4 5
20 1 12 13
21 1 39 40
22 1 38 39
23 1 37 38
24 1 36 37
25 1 16 17
26 1 17 18
27 1 18 19
28 1 19 20
29 1 13 14
30 1 14 15
31 1 35 36
32 1 34 35
33 1 33 34
34 1 15 16
35 1 32 33
36 1 49 50
37 1 48 49
38 1 20 21
39 1 22 23
40 1 23 24
41 1 21 22
42 1 31 32
43 1 30 31
44 1 29 30
45 1 28 29
46 1 26 27
47 1 27 28
48 1 25 26
49 1 24 25

Angles

1 1 41 42 43
2 1 40 41 42
3 1 42 43 44
4 1 5 6 7
5 1 4 5 6
6 1 6 7 8
7 1 39 40 41
8 1 8 9 10
9 1 9 10 11
10 1 10 11 12
11 1 7 8 9
12 1 46 47 48
13 1 45 46 47
14 1 44 45 46
15 1 43 44 45
16 1 1 2 3
17 1 2 3 4
18 1 3 4 5
19 1 11 12 13
20 1 38 39 40
21 1 37 38 39
22 1 36 37 38
23 1 35 36 37
24 1 15 16 17
25 1 16 17 18
26 1 17 18 19
27 1 18 19 20
28 1 12 13 14
29 1 13 14 15
30 1 34 35 36
31 1 33 34 35
32 1 32 33 34
33 1 14 15 16
34 1 31 32 33
35 1 48 49 50
36 1 47 48 49
37 1 19 20 21
38 1 21 22 23
39 1 22 23 24
40 1 20 21 22
41 1 30 31 32
42 1 29 30 31
43 1 28 29 30
44 1 27 28 29
45 1 25 26 27
46 1 26 27 28
47 1 24 25 26
48 1 23 24 25
