LAMMPS data file via write_data, version 29 Aug 2024, timestep = 408000000, units = real

50 atoms
4 atom types
49 bonds
1 bond types
48 angles
1 angle types

-500.6 500.6 xlo xhi
-500.6 500.6 ylo yhi
-500.6 500.6 zlo zhi

Masses

1 329.2
2 305.2
3 345.2
4 306.2

Bond Coeffs # harmonic

1 7.5 5.9

Angle Coeffs # harmonic

1 5 150

Atoms # full

3 1 2 0 -290.5084962107502 -135.36558351614102 -435.42431044084424 2 0 0
2 1 1 0 -291.7970431707413 -135.6537484476439 -441.3660480209455 2 0 0
1 1 2 0 -289.5424717875446 -135.45620579180502 -446.7862532235233 2 0 0
4 1 4 0 -292.8555460256142 -133.7154503102514 -430.2896264766775 2 0 0
5 1 2 0 -291.8301477317743 -132.27752432071708 -424.52598351446096 2 0 0
6 1 4 0 -292.68062285479346 -134.36474097571946 -419.6093406557893 2 0 0
13 1 1 0 -282.1145343548292 -154.22610666860098 -403.01168840652554 2 0 0
12 1 4 0 -288.2208838897803 -154.10335724030548 -403.15372559896144 2 0 0
11 1 2 0 -293.3639376556494 -151.3140520217576 -401.44513318993285 2 0 0
7 1 1 0 -295.0965824753607 -139.09558095227186 -417.35234431111996 2 0 0
9 1 1 0 -297.50883311381943 -141.98218157804442 -406.47938124609493 2 0 0
10 1 2 0 -296.23564134259135 -146.5540592103489 -402.90676361278514 2 0 0
8 1 3 0 -296.94554503151255 -139.47889989765795 -411.79252691141056 2 0 0
49 1 1 0 -285.0185190359371 -141.32031295553122 -402.05963655358664 2 0 0
50 1 4 0 -284.90387509763235 -138.69422625650103 -407.74491228629705 2 0 0
46 1 1 0 -286.76493677332564 -149.10611711953828 -387.98233335281225 2 0 0
45 1 3 0 -288.4902705549655 -154.4873861587265 -386.391002473732 2 0 0
14 1 1 0 -277.45974727040897 -154.2003230423415 -399.57588963481317 2 0 0
15 1 4 0 -275.54651117174865 -151.07759914643924 -395.47552261610934 2 0 0
16 1 2 0 -275.8767440220591 -149.23395444018203 -389.6265447438549 2 0 0
47 1 4 0 -285.3285089962041 -145.53288059014818 -392.26729748098904 2 0 0
48 1 3 0 -282.77528895322837 -143.14988552430663 -396.9784634751709 2 0 0
17 1 1 0 -277.52393217588565 -150.69656857808152 -383.8520062388528 2 0 0
42 1 3 0 -280.8026968039233 -166.69525704437055 -378.2312678706405 2 0 0
41 1 2 0 -276.2154604123223 -170.1130159528274 -376.8988104442909 2 0 0
40 1 3 0 -270.4494717096399 -168.79519086000198 -376.74277939709566 2 0 0
44 1 1 0 -285.9664152685453 -158.53829372257613 -383.13407488534864 2 0 0
43 1 1 0 -285.8831848398783 -163.68284820208737 -380.2790973600632 2 0 0
18 1 4 0 -276.1107519448573 -154.01413659433578 -379.1320428787427 2 0 0
19 1 3 0 -277.88684923886404 -156.42574392642476 -374.169185420541 2 0 0
20 1 1 0 -277.73946176226224 -158.67053039710285 -368.7940898901521 2 0 0
39 1 2 0 -266.8337935777151 -164.78891637216503 -374.5182593307 2 0 0
38 1 2 0 -263.54896392810673 -160.52103779650975 -372.4298413515649 2 0 0
37 1 3 0 -261.2300690737605 -155.28240414340397 -372.4433610203345 2 0 0
35 1 4 0 -270.09070718589885 -151.0410049436713 -370.92709861305934 2 0 0
36 1 2 0 -264.6153868206369 -150.7796479796496 -373.5202930184329 2 0 0
31 1 1 0 -284.7961980212076 -154.11568175208282 -356.6021695536382 2 0 0
30 1 2 0 -284.7641297466818 -155.14900332497365 -350.95050183175334 2 0 0
21 1 3 0 -274.67644799785677 -161.0181815513064 -364.6196629581934 2 0 0
32 1 3 0 -282.06357745494205 -151.13611584345176 -361.0560869194594 2 0 0
22 1 2 0 -269.281975257391 -160.67270328792995 -363.07299271135474 2 0 0
23 1 4 0 -266.5962826640347 -157.65699729315747 -358.37268366062773 2 0 0
24 1 2 0 -263.86337594499093 -152.79553801566107 -357.5277439783669 2 0 0
33 1 4 0 -278.30435482108123 -147.6515229238214 -363.6718758411075 2 0 0
34 1 3 0 -273.2639969798194 -148.2922999671977 -366.90560836145954 2 0 0
26 1 2 0 -271.06902419494503 -145.11735796158604 -355.7443237175236 2 0 0
27 1 4 0 -275.93219855046766 -145.13810712618593 -352.2217724999763 2 0 0
25 1 1 0 -265.8153054488591 -147.76450377170602 -357.02821366001257 2 0 0
29 1 2 0 -283.63871975937224 -150.4544224906571 -347.50531951258347 2 0 0
28 1 1 0 -278.8034714358561 -147.3320351797255 -348.2676189845064 2 0 0

Velocities

3 0.00018787772274853214 -0.001594241880953317 0.0015992940634006892
2 -0.00031365688861668755 0.0009517352040642765 0.000881013408930229
1 0.000868792860575929 0.00030726845327583817 0.0006972562179249949
4 0.000383194159774776 0.00014699170434146733 -1.0702568227758563e-05
5 0.0009115503675460738 0.0018911773093342264 -0.00021473592015840937
6 0.0005598180164945924 0.0005750289488224528 0.0003232932525479034
13 0.000560324579554778 0.000629146496620003 0.0005206660833502102
12 -0.00030777576546176086 3.400124800459144e-05 -0.00027996393946094013
11 0.0013730751423063345 0.00026421629789043883 -0.0006687359164959568
7 0.0006568831841128064 -0.001619268791540674 -0.00011013429638757095
9 -0.0002007562209791649 -0.0007488336045051728 -0.00021134238705693527
10 0.0008370472293955049 -0.0008798837372953554 -0.000596663495816712
8 0.0014361260261892955 0.00012583408627817415 0.0009856069366838722
49 -0.00011528226171698639 -0.0012473335287120167 0.00019076708289997912
50 0.0010416107808238176 -0.0006918705103063687 -0.0002251249465893133
46 0.0013946244041639893 -0.0003187527744975657 0.0001222024737182629
45 0.00014441117925184148 0.0005031915299309987 -0.000135193774422342
14 -9.713958096182585e-05 0.0008970504663207083 0.0008605600916684404
15 -0.0013607840381335116 -0.0008632504982534772 -0.000610734960235952
16 -8.442111743986532e-05 0.0005554121081348071 0.00076063761972793
47 -0.0003827326008423628 0.001555884268733692 -0.0005077292068322283
48 0.0002708011784950892 -7.500707521695286e-05 0.0004156175810257485
17 0.0014779249082012603 -0.001012440179809424 0.0010142845326014244
42 -0.0009861691981437727 -0.0005032059602313076 -0.0021149249932687084
41 0.0012631728381025176 0.0003836381263355132 0.0010786083744569117
40 -0.0003609509186751222 -0.0004892074991648562 0.0005773565804370712
44 -0.00035696749767342274 0.00123941203709586 -0.0007612915105416616
43 0.0014211825962650074 -0.000731707743991353 0.0005119524834254506
18 0.0006892168117597363 0.00119985407769363 -0.000715199294375027
19 -0.0005070229897968786 -0.0005115595992205708 0.0007723661831039154
20 -0.0014251194528335617 -9.322922509954495e-05 -0.0008778651351406325
39 -0.002064268426333799 -0.0012238175743436537 0.0015578418133693176
38 6.868972899406018e-05 -0.0005591376878320214 8.743372360262864e-05
37 -0.0010735014365248956 0.00129394878886541 0.0006838511301786812
35 0.0017930514020836343 0.0005277851260460686 0.0014249300527146953
36 -0.0004441714179810568 -0.0005606891497075135 -9.115640706551912e-06
31 0.0017052098291695265 0.0007023147178970044 0.001062493002705753
30 -0.0013507614393799825 -0.0004511968016535006 -0.00038422081048953617
21 -0.000232911822763734 -0.00014686924590439428 0.0005927744068953279
32 -6.943038017799801e-05 -0.0005646047448312354 -0.0008019629820393405
22 0.0002759010437401659 -0.0011738201606901154 -0.0007849338183070842
23 2.5697096770509406e-05 -0.0005554682524689743 -0.0004766785477682952
24 -0.0004813705381110409 -0.0008947431834907069 -0.0004891908141604835
33 0.0004658343213351945 0.00046014459130172997 -0.001256203913946818
34 -0.0008873914592499718 -0.00010935949775515383 -0.0007195881727391782
26 0.0007549991608697079 -0.00011850456768091649 -0.001732658308994858
27 -0.001585836841480398 7.998150799194909e-05 0.0005585286511433367
25 -0.0007099620752444851 -0.0016092702296453814 -0.00011740711331845062
29 0.000952343716839462 -0.00020107054729857178 0.0007819670323790828
28 0.0012230570546892141 0.0012678949708437464 -0.0001001087787683255

Bonds

1 1 3 4
2 1 2 3
3 1 1 2
4 1 4 5
5 1 5 6
6 1 6 7
7 1 13 14
8 1 12 13
9 1 11 12
10 1 7 8
11 1 9 10
12 1 10 11
13 1 8 9
14 1 49 50
15 1 46 47
16 1 45 46
17 1 14 15
18 1 15 16
19 1 16 17
20 1 47 48
21 1 48 49
22 1 17 18
23 1 42 43
24 1 41 42
25 1 40 41
26 1 44 45
27 1 43 44
28 1 18 19
29 1 19 20
30 1 20 21
31 1 39 40
32 1 38 39
33 1 37 38
34 1 35 36
35 1 36 37
36 1 31 32
37 1 30 31
38 1 21 22
39 1 32 33
40 1 22 23
41 1 23 24
42 1 24 25
43 1 33 34
44 1 34 35
45 1 26 27
46 1 27 28
47 1 25 26
48 1 29 30
49 1 28 29

Angles

1 1 2 3 4
2 1 1 2 3
3 1 3 4 5
4 1 4 5 6
5 1 5 6 7
6 1 12 13 14
7 1 11 12 13
8 1 10 11 12
9 1 6 7 8
10 1 8 9 10
11 1 9 10 11
12 1 7 8 9
13 1 48 49 50
14 1 45 46 47
15 1 44 45 46
16 1 13 14 15
17 1 14 15 16
18 1 15 16 17
19 1 46 47 48
20 1 47 48 49
21 1 16 17 18
22 1 41 42 43
23 1 40 41 42
24 1 39 40 41
25 1 43 44 45
26 1 42 43 44
27 1 17 18 19
28 1 18 19 20
29 1 19 20 21
30 1 38 39 40
31 1 37 38 39
32 1 36 37 38
33 1 34 35 36
34 1 35 36 37
35 1 30 31 32
36 1 29 30 31
37 1 20 21 22
38 1 31 32 33
39 1 21 22 23
40 1 22 23 24
41 1 23 24 25
42 1 32 33 34
43 1 33 34 35
44 1 25 26 27
45 1 26 27 28
46 1 24 25 26
47 1 28 29 30
48 1 27 28 29
