
# ===============================
# FORCE FIELD
# ===============================
bond_style harmonic
bond_coeff 1 7.5 5.9

angle_style harmonic
angle_coeff 1 5.0 150.0

pair_style hybrid/overlay lj/cut 10.0 base/rna 18.0
pair_modify shift yes
pair_coeff * * lj/cut 2.0 8.9089871814

# Base-pair interactions
pair_coeff 1 1 base/rna 0.00000 3.0 13.8 1.5 0.5 1.8326 0.9425 1.8326 1.1345
pair_coeff 1 2 base/rna 0.00000 3.0 13.8 1.5 0.5 1.8326 0.9425 1.8326 1.1345
pair_coeff 1 3 base/rna 0.00000 3.0 13.8 1.5 0.5 1.8326 0.9425 1.8326 1.1345
pair_coeff 1 4 base/rna 3.33333 3.0 13.8 1.5 0.5 1.8326 0.9425 1.8326 1.1345
pair_coeff 2 2 base/rna 0.00000 3.0 13.8 1.5 0.5 1.8326 0.9425 1.8326 1.1345
pair_coeff 2 3 base/rna 5.00000 3.0 13.8 1.5 0.5 1.8326 0.9425 1.8326 1.1345
pair_coeff 2 4 base/rna 0.00000 3.0 13.8 1.5 0.5 1.8326 0.9425 1.8326 1.1345
pair_coeff 3 3 base/rna 0.00000 3.0 13.8 1.5 0.5 1.8326 0.9425 1.8326 1.1345
pair_coeff 3 4 base/rna 3.33333 3.0 13.8 1.5 0.5 1.8326 0.9425 1.8326 1.1345
pair_coeff 4 4 base/rna 0.00000 3.0 13.8 1.5 0.5 1.8326 0.9425 1.8326 1.1345

special_bonds lj 0.0 0.0 1.0
Finding 1-2 1-3 1-4 neighbors ...
  special bond factors lj:    0        0        1       
  special bond factors coul:  0        0        0       
     2 = max # of 1-2 neighbors
     2 = max # of 1-3 neighbors
     4 = max # of 1-4 neighbors
     6 = max # of special neighbors
  special bonds CPU = 0.000 seconds
neighbor 15.0 bin
neigh_modify every 10 delay 0
comm_style tiled
timestep 10

# ===============================
# DUMPS
# ===============================
dump d1 all custom ${dump_stride} outputs_100/${tag}.lammpstrj id mol type q xu yu zu
dump d1 all custom 50000 outputs_100/${tag}.lammpstrj id mol type q xu yu zu
dump d1 all custom 50000 outputs_100/config_04_len50_04.dat.lammpstrj id mol type q xu yu zu
dump_modify d1 sort id

# ===============================
# THERMO
# ===============================
thermo_style custom step pe ke temp
thermo ${thermo_stride}
thermo 10000
thermo_modify flush yes

variable vpe equal pe
variable vke equal ke
variable vT  equal temp

fix fa all ave/time ${thermo_stride} 10 ${stride10} v_vpe v_vke v_vT file outputs_100/thermo_${tag}_averaged.dat
fix fa all ave/time 10000 10 ${stride10} v_vpe v_vke v_vT file outputs_100/thermo_${tag}_averaged.dat
fix fa all ave/time 10000 10 100000 v_vpe v_vke v_vT file outputs_100/thermo_${tag}_averaged.dat
fix fa all ave/time 10000 10 100000 v_vpe v_vke v_vT file outputs_100/thermo_config_04_len50_04.dat_averaged.dat

# ===============================
# EQUILIBRATION (40 ns)
# ===============================
fix fxnve all nve
variable seed0 equal 43001
fix fxl all langevin ${T_eq} ${T_eq} 100000.0 ${seed0}
fix fxl all langevin 298 ${T_eq} 100000.0 ${seed0}
fix fxl all langevin 298 298 100000.0 ${seed0}
fix fxl all langevin 298 298 100000.0 43001

run ${n_eq}
run 4000000

CITE-CITE-CITE-CITE-CITE-CITE-CITE-CITE-CITE-CITE-CITE-CITE-CITE

Your simulation uses code contributions which should be cited:

- Type Label Framework: https://doi.org/10.1021/acs.jpcb.3c08419

@Article{Gissinger24,
 author = {Jacob R. Gissinger, Ilia Nikiforov, Yaser Afshar, Brendon Waters, Moon-ki Choi, Daniel S. Karls, Alexander Stukowski, Wonpil Im, Hendrik Heinz, Axel Kohlmeyer, and Ellad B. Tadmor},
 title = {Type Label Framework for Bonded Force Fields in LAMMPS},
 journal = {J. Phys. Chem. B},
 year =    2024,
 volume =  128,
 number =  13,
 pages =   {3282–-3297}
}

CITE-CITE-CITE-CITE-CITE-CITE-CITE-CITE-CITE-CITE-CITE-CITE-CITE

Generated 0 of 6 mixed pair_coeff terms from geometric mixing rule
Neighbor list info ...
  update: every = 10 steps, delay = 0 steps, check = yes
  max neighbors/atom: 2000, page size: 100000
  master list distance cutoff = 33
  ghost atom cutoff = 33
  binsize = 16.5, bins = 122 122 122
  2 neighbor lists, perpetual/occasional/extra = 2 0 0
  (1) pair lj/cut, perpetual, trim from (2)
      attributes: half, newton on, cut 25
      pair build: trim
      stencil: none
      bin: none
  (2) pair base/rna, perpetual
      attributes: half, newton on
      pair build: half/bin/newton
      stencil: half/bin/3d
      bin: standard
Per MPI rank memory allocation (min/avg/max) = 15.09 | 15.09 | 15.09 Mbytes
   Step         PotEng         KinEng          Temp     
         0   65.797361      0              0            
     10000   22.784912      40.250731      275.57727    
     20000   30.726523      41.447883      283.77359    
     30000   10.279296      47.720372      326.71829    
     40000   9.9989505      51.898596      355.32456    
     50000   15.694449      57.99646       397.07368    
     60000   17.843691      52.529009      359.64069    
     70000   20.620238      53.402718      365.62256    
     80000   18.032575      47.146146      322.78684    
     90000   6.9102963      51.629278      353.48067    
    100000   10.767607      43.276331      296.29208    
    110000   9.1571282      42.857165      293.42226    
    120000  -0.72781403     45.696636      312.86275    
    130000   12.140337      48.899811      334.79333    
    140000   11.500618      47.388404      324.44546    
    150000   16.61477       47.220753      323.29764    
    160000   8.0242882      39.85298       272.85406    
    170000   1.3765605      41.046195      281.02343    
    180000   4.6168746      43.69214       299.13893    
    190000  -7.5293219      57.752327      395.40222    
    200000   5.6218085      44.167947      302.39655    
    210000   0.47854729     48.575705      332.57433    
    220000  -8.3299121      40.679412      278.51224    
    230000  -0.092293545    45.492494      311.46508    
    240000  -8.2489842      36.568644      250.3678     
    250000  -4.9802192      43.142064      295.37282    
    260000  -2.1890844      48.091731      329.2608     
    270000  -8.7416181      55.328869      378.80998    
    280000  -13.157551      50.597586      346.41718    
    290000  -11.362959      41.504029      284.15799    
    300000  -12.581668      38.688036      264.87825    
    310000  -4.50545        33.92006       232.23423    
    320000  -12.803384      46.031664      315.15652    
    330000  -17.431172      39.925765      273.35238    
    340000  -16.275617      49.956391      342.02722    
    350000  -17.624797      51.091881      349.80138    
    360000  -9.0553571      43.484049      297.71423    
    370000  -14.393872      42.134033      288.47133    
    380000  -10.469635      41.26389       282.51388    
    390000  -8.3247395      41.420348      283.58507    
    400000  -10.505177      43.371824      296.94588    
    410000  -15.612827      44.506692      304.71577    
    420000  -14.843292      47.674498      326.40421    
    430000  -15.738909      45.919619      314.3894     
    440000  -14.100695      51.579626      353.14073    
    450000   5.4574776      42.093058      288.19079    
    460000  -15.502106      49.926339      341.82147    
    470000   5.5360803      39.017146      267.13151    
    480000  -1.5839221      55.553923      380.35081    
    490000  -0.28092694     49.645929      339.90164    
    500000  -14.625395      49.038795      335.74489    
    510000  -13.431853      36.806869      251.99881    
    520000  -2.9042467      44.54222       304.95902    
    530000   3.0265324      44.581087      305.22512    
    540000   1.9229953      40.969009      280.49497    
    550000  -6.6768365      41.969227      287.34298    
    560000  -8.0957967      43.128444      295.27958    
    570000   1.0685546      45.140372      309.05427    
    580000  -1.9239133      51.533167      352.82264    
    590000  -3.8762103      43.973303      301.06392    
    600000  -6.7896204      44.457437      304.37855    
    610000   0.38190452     36.585086      250.48037    
    620000  -5.4288071      44.875386      307.24004    
    630000   0.90871347     46.442035      317.96613    
    640000   6.5836744      43.392058      297.08441    
    650000   1.4993629      46.076092      315.4607     
    660000  -3.3816865      47.039272      322.05512    
    670000   1.1425562      45.074484      308.60317    
    680000  -1.9166978      44.000481      301.24999    
    690000  -0.11970568     38.98813       266.93285    
    700000   4.8364193      44.740282      306.31505    
    710000   9.5874715      48.098175      329.30492    
    720000   17.629432      50.353687      344.74731    
    730000   16.075471      54.987157      376.47044    
    740000   16.415851      51.465289      352.35791    
    750000   21.305737      50.087335      342.92373    
    760000   27.872424      47.728677      326.77514    
    770000   27.872994      40.454763      276.97418    
    780000   28.91471       52.581419      359.99952    
    790000   22.328055      55.599589      380.66346    
    800000   28.377823      49.333298      337.76121    
    810000   20.1028        57.118366      391.0618     
    820000   27.482834      47.579412      325.7532     
    830000   17.121956      47.156572      322.85822    
    840000   2.3570457      46.988297      321.70612    
    850000   5.145456       45.068524      308.56237    
    860000  -4.7846548      38.44884       263.24059    
    870000  -2.1570909      41.812801      286.27201    
    880000  -3.8913451      50.634447      346.66954    
    890000  -4.2671599      41.803326      286.20714    
    900000   5.4203873      44.62108       305.49893    
    910000   10.910692      50.053035      342.6889     
    920000   3.0426062      42.260504      289.33721    
    930000  -13.367581      54.514239      373.2326     
    940000  -15.194725      35.236702      241.24864    
    950000  -8.5500842      48.436661      331.62236    
    960000  -3.1780925      42.862249      293.45707    
    970000  -12.029993      47.675406      326.41042    
    980000  -9.1930755      47.853754      327.63148    
    990000  -9.5691224      50.487355      345.66248    
   1000000  -14.038254      45.42075       310.97388    
   1010000  -12.838096      50.793041      347.75536    
   1020000  -15.202328      56.022089      383.55612    
   1030000  -15.170748      44.184574      302.51039    
   1040000  -17.962942      40.13522       274.78642    
   1050000  -25.077163      40.725671      278.82895    
   1060000  -11.081337      31.955279      218.78232    
   1070000  -6.1514047      42.492301      290.92421    
   1080000  -10.158559      41.911774      286.94963    
   1090000  -11.511564      51.880641      355.20163    
   1100000   4.1476619      41.63729       285.07037    
   1110000  -6.2171933      48.18057       329.86904    
   1120000  -5.3300934      49.385541      338.11889    
   1130000   0.090610592    53.046049      363.18062    
   1140000   3.284053       48.651691      333.09457    
   1150000  -8.7919556      50.537287      346.00433    
   1160000   7.8055647      43.637295      298.76343    
   1170000   14.060644      32.805953      224.60648    
   1180000  -11.554646      64.823653      443.81617    
   1190000  -21.428929      53.251808      364.58935    
   1200000  -18.273367      62.746961      429.59806    
   1210000   11.767759      46.190215      316.24204    
   1220000   7.6068554      47.992967      328.58461    
   1230000   9.8495075      45.585551      312.1022     
   1240000   22.197412      50.24809       344.02434    
   1250000   22.368899      45.2737        309.9671     
   1260000   16.398403      47.758438      326.9789     
   1270000   13.071825      48.271186      330.48944    
   1280000  -0.94717807     42.911092      293.79148    
   1290000  -3.5036331      39.236657      268.63439    
   1300000  -3.4435541      34.695567      237.54375    
   1310000  -14.882861      47.0291        321.98548    
   1320000  -6.886623       52.259354      357.79449    
   1330000  -6.9837594      48.068232      329.09991    
   1340000  -9.2843393      48.43336       331.59977    
   1350000  -1.3264231      42.854801      293.40607    
   1360000  -4.3096038      56.265598      385.22331    
   1370000   2.3982911      50.723137      347.27676    
   1380000   2.9363512      42.932246      293.9363     
   1390000  -6.7299584      43.940582      300.83989    
   1400000  -0.98736516     45.214507      309.56184    
   1410000  -13.744923      43.114452      295.18378    
   1420000  -17.525515      40.794525      279.30037    
   1430000  -7.1785997      43.245942      296.08403    
   1440000  -14.475036      48.100507      329.32088    
   1450000  -10.831097      43.66835       298.97605    
   1460000  -6.2728956      43.6281        298.70048    
   1470000  -12.071079      39.841717      272.77695    
   1480000  -10.863854      38.081233      260.72377    
   1490000  -13.007991      42.589372      291.58881    
   1500000  -7.920151       40.442325      276.88902    
   1510000  -2.3324826      43.921118      300.70663    
   1520000   2.1998816      42.935969      293.96179    
   1530000  -7.9291533      50.067328      342.78675    
   1540000  -6.0324424      45.945746      314.56828    
   1550000  -1.8944891      48.744369      333.7291     
   1560000  -10.171137      56.23365       385.00457    
   1570000   5.7679611      40.231768      275.44744    
   1580000   6.1844987      47.680442      326.4449     
   1590000  -0.59374161     54.574764      373.64699    
   1600000  -2.2195985      40.867433      279.79953    
   1610000   4.470365       43.642552      298.79942    
   1620000  -0.45235071     34.559058      236.60914    
   1630000  -17.987487      45.59767       312.18517    
   1640000  -17.128853      42.590229      291.59468    
   1650000  -14.244771      40.427356      276.78653    
   1660000  -14.387242      41.979091      287.41051    
   1670000  -6.7157194      48.576201      332.57773    
   1680000  -12.358346      52.163333      357.13708    
   1690000  -15.07824       48.767956      333.89058    
   1700000  -12.545621      41.911234      286.94593    
   1710000  -17.263756      38.836907      265.8975     
   1720000  -2.1141308      34.454116      235.89065    
   1730000  -3.4942623      42.879821      293.57737    
   1740000  -3.5875681      39.106574      267.74378    
   1750000  -6.8441821      51.173171      350.35793    
   1760000  -2.7819515      44.938209      307.67016    
   1770000  -11.473232      49.760115      340.68341    
   1780000  -4.180136       50.135659      343.25459    
   1790000  -12.685088      41.833029      286.4105     
   1800000  -13.696096      40.450328      276.94381    
   1810000  -4.6434749      37.648932      257.76401    
   1820000  -16.339122      44.766337      306.49344    
   1830000  -7.0563109      48.121801      329.46667    
   1840000  -9.4541607      44.576634      305.19463    
   1850000  -4.3325439      43.291763      296.39774    
   1860000  -9.4422441      44.907515      307.46001    
   1870000  -5.2383335      45.822781      313.7264     
   1880000  -8.7521097      44.728636      306.23532    
   1890000  -0.7700872      42.599008      291.65478    
   1900000  -5.7368331      53.068829      363.33658    
   1910000  -8.0615963      43.388798      297.0621     
   1920000  -17.961374      40.925076      280.19418    
   1930000  -15.198953      39.948835      273.51033    
   1940000  -1.7200427      49.335397      337.77558    
   1950000  -10.960102      47.4959        325.18143    
   1960000  -5.3878445      43.514445      297.92234    
   1970000   6.5374175      45.877164      314.09873    
   1980000   0.49864185     40.648288      278.29915    
   1990000  -4.27338        48.939487      335.06497    
   2000000  -4.9093245      53.04214       363.15385    
   2010000  -4.7993475      50.114759      343.11149    
   2020000  -1.8946146      48.344319      330.99015    
   2030000  -12.065464      62.476243      427.74459    
   2040000   2.6454216      45.784603      313.46501    
   2050000   2.7506747      39.855283      272.86983    
   2060000  -4.7878718      46.899007      321.09479    
   2070000  -6.9885615      43.101762      295.0969     
   2080000  -0.81521886     56.381512      386.01692    
   2090000  -4.8903233      40.858776      279.74026    
   2100000  -15.956292      40.030182      274.06727    
   2110000  -10.8594        42.594016      291.62061    
   2120000   4.500625       42.665277      292.1085     
   2130000  -11.49812       44.226605      302.79815    
   2140000  -12.0035        40.884978      279.91965    
   2150000  -5.7578325      39.846887      272.81234    
   2160000  -8.8523552      42.330392      289.8157     
   2170000  -9.8825338      53.489478      366.21656    
   2180000   5.8128843      47.215701      323.26305    
   2190000  -4.388651       47.094789      322.43522    
   2200000  -8.027658       45.448923      311.16678    
   2210000  -6.8567763      41.184814      281.97248    
   2220000  -10.444229      48.804295      334.13938    
   2230000   1.3772898      41.115502      281.49794    
   2240000  -9.7967044      45.675202      312.71599    
   2250000  -11.832044      42.513008      291.06598    
   2260000  -2.5813202      47.493443      325.16461    
   2270000  -4.9985108      35.521613      243.19929    
   2280000  -12.829908      48.538697      332.32096    
   2290000  -16.89114       44.230686      302.8261     
   2300000  -0.13277333     45.668453      312.66979    
   2310000  -18.276638      50.786872      347.71312    
   2320000  -7.5626985      44.841456      307.00774    
   2330000  -3.5708851      36.867487      252.41383    
   2340000  -7.4347041      49.593232      339.54085    
   2350000  -7.9559337      41.633228      285.04256    
   2360000  -1.5794075      37.304501      255.40585    
   2370000  -12.747994      50.502191      345.76405    
   2380000  -4.2626053      48.14072       329.59621    
   2390000  -15.722551      46.236399      316.55824    
   2400000  -4.6773189      39.425761      269.9291     
   2410000  -15.10782       46.072692      315.43742    
   2420000   4.7013105      44.681973      305.91583    
   2430000  -9.700728       50.436449      345.31395    
   2440000  -10.494213      48.233093      330.22864    
   2450000  -12.837477      43.752264      299.55057    
   2460000  -7.1042373      55.483971      379.87189    
   2470000   5.0149141      38.701793      264.97244    
   2480000  -11.9893        41.330564      282.97036    
   2490000  -7.4806479      42.643973      291.96264    
   2500000  -0.75268164     39.729575      272.00917    
   2510000  -1.7890789      46.78004       320.28028    
   2520000   8.2760532      48.935454      335.03736    
   2530000   0.15885745     47.000746      321.79135    
   2540000  -4.3325783      38.027837      260.35819    
   2550000  -17.650229      44.249608      302.95565    
   2560000  -13.946945      39.894211      273.13635    
   2570000  -14.065677      47.168657      322.94096    
   2580000  -8.0245706      44.24219       302.90486    
   2590000  -4.3246601      46.406967      317.72604    
   2600000  -7.7419242      38.721408      265.10673    
   2610000  -5.6132457      48.727867      333.61612    
   2620000   2.588711       48.877467      334.64035    
   2630000  -5.7150081      43.936537      300.8122     
   2640000  -13.360383      46.362214      317.41964    
   2650000  -18.069556      49.428776      338.4149     
   2660000  -11.274603      48.111507      329.3962     
   2670000  -7.6964074      52.009266      356.08227    
   2680000  -2.9300335      41.867169      286.64424    
   2690000  -2.969367       38.930398      266.53759    
   2700000   3.7592061      46.833339      320.6452     
   2710000  -1.6932173      35.771314      244.90887    
   2720000   1.3651922      38.611105      264.35154    
   2730000   13.788727      46.643665      319.34659    
   2740000   4.8567167      37.408837      256.12019    
   2750000  -1.654519       41.493391      284.08516    
   2760000  -5.2473153      48.185506      329.90283    
   2770000  -15.362488      55.889895      382.65105    
   2780000  -12.020142      53.811801      368.42335    
   2790000   5.4771826      46.926105      321.28032    
   2800000  -1.3796679      42.721827      292.49567    
   2810000  -2.9828477      45.438823      311.09762    
   2820000  -1.5868248      39.140311      267.97476    
   2830000  -0.94549856     46.829074      320.616      
   2840000  -14.101615      47.148378      322.80212    
   2850000  -10.704808      39.422397      269.90607    
   2860000  -2.0239634      48.272345      330.49738    
   2870000  -1.2721733      42.406892      290.33946    
   2880000  -19.130766      40.060134      274.27234    
   2890000  -17.605038      43.377659      296.98583    
   2900000  -14.856465      50.032585      342.54888    
   2910000  -7.8755333      44.5092        304.73295    
   2920000  -10.882808      46.14207       315.91242    
   2930000  -6.4874821      42.682302      292.22506    
   2940000  -5.4835369      38.829776      265.84868    
   2950000  -4.9150196      48.779113      333.96697    
   2960000  -10.570816      50.279728      344.24095    
   2970000  -4.5177131      39.309799      269.13516    
   2980000   0.59350099     41.073884      281.213      
   2990000  -6.4215493      37.308317      255.43199    
   3000000  -10.047256      51.784297      354.54201    
   3010000  -1.0614356      38.64956       264.61483    
   3020000  -11.180204      46.883206      320.98661    
   3030000  -10.002134      49.342177      337.822      
   3040000   6.386486       38.694846      264.92488    
   3050000  -3.2627967      38.632101      264.49529    
   3060000  -5.329833       39.363838      269.50514    
   3070000  -14.551463      49.559764      339.31171    
   3080000  -11.010416      47.105889      322.51121    
   3090000  -10.384832      40.825188      279.51029    
   3100000  -9.0817244      36.588044      250.50062    
   3110000  -13.80525       45.723362      313.04572    
   3120000  -11.661425      47.752491      326.93819    
   3130000  -5.0407586      41.293223      282.71471    
   3140000  -17.808977      40.834509      279.57412    
   3150000  -1.7161502      42.542963      291.27107    
   3160000  -3.0275662      46.838815      320.68269    
   3170000  -2.7267605      50.519412      345.88195    
   3180000  -1.2938328      49.725157      340.44408    
   3190000  -0.33695707     50.846857      348.12381    
   3200000  -14.42659       42.667953      292.12681    
   3210000  -9.9740801      50.882708      348.36927    
   3220000   2.0506616      38.504874      263.62423    
   3230000  -14.146455      45.745762      313.19909    
   3240000  -15.425821      42.284048      289.4984     
   3250000  -10.902235      43.384614      297.03345    
   3260000  -8.5548245      45.741506      313.16995    
   3270000  -9.4381613      52.883442      362.06733    
   3280000  -6.5574612      48.546987      332.37771    
   3290000  -3.2293879      44.532453      304.89214    
   3300000   4.752707       41.347302      283.08496    
   3310000  -5.456664       53.004946      362.8992     
   3320000  -4.9655912      36.493855      249.85575    
   3330000  -11.748855      43.15395       295.45421    
   3340000  -18.748092      46.887769      321.01785    
   3350000   4.0005462      48.109396      329.38174    
   3360000   7.502553       44.638643      305.61918    
   3370000  -1.0857699      44.953803      307.77692    
   3380000   8.7915467      41.184703      281.97172    
   3390000   15.543796      45.225319      309.63586    
   3400000   11.926413      50.92865       348.68381    
   3410000   5.32537        42.4513        290.6435     
   3420000   2.5714108      46.161915      316.04829    
   3430000  -9.353479       54.923714      376.03608    
   3440000   0.3662902      45.331963      310.36601    
   3450000  -10.918412      39.100173      267.69996    
   3460000  -13.257587      46.477782      318.21087    
   3470000   4.1929335      42.385581      290.19355    
   3480000  -3.248622       48.104988      329.35156    
   3490000   0.15689335     49.584397      339.48036    
   3500000  -5.688944       56.712579      388.28357    
   3510000   6.1404654      50.958313      348.88689    
   3520000  -10.424386      52.987501      362.77977    
   3530000  -0.71439485     43.35163       296.80762    
   3540000  -14.693785      44.23633       302.86473    
   3550000  -14.008678      43.601909      298.52116    
   3560000  -19.48494       49.688008      340.18973    
   3570000  -14.398035      47.407793      324.57821    
   3580000  -6.328164       44.852014      307.08002    
   3590000  -9.7676204      43.717059      299.30954    
   3600000  -19.030143      43.000299      294.40223    
   3610000  -10.209266      48.193142      329.95511    
   3620000   4.3522928      44.558015      305.06716    
   3630000   0.86891071     40.07917       274.40267    
   3640000   6.197367       42.706195      292.38864    
   3650000  -0.22436858     35.670367      244.21773    
   3660000  -0.087767671    44.269159      303.0895     
   3670000  -5.6201191      43.78811       299.79599    
   3680000  -13.376661      45.509337      311.5804     
   3690000  -17.934335      42.579718      291.52272    
   3700000  -3.4667855      39.968889      273.64763    
   3710000   0.24301162     58.147621      398.10861    
   3720000  -7.4367874      53.624666      367.14212    
   3730000  -12.060713      45.763453      313.32021    
   3740000  -11.315003      41.127884      281.58271    
   3750000  -28.359001      44.299377      303.29639    
   3760000  -11.280676      37.993175      260.12087    
   3770000  -14.936169      38.447935      263.2344     
   3780000  -12.1157        30.340117      207.72409    
   3790000  -19.704507      45.177561      309.30889    
   3800000  -14.436462      38.44574       263.21937    
   3810000  -21.57602       45.211276      309.53972    
   3820000  -19.859874      43.875384      300.39351    
   3830000  -15.827089      52.62733       360.31385    
   3840000  -1.9198008      38.456318      263.29179    
   3850000  -0.69490885     43.065877      294.85121    
   3860000  -2.5344826      58.47071       400.32065    
   3870000  -5.8711206      57.514944      393.77698    
   3880000   6.7591282      42.575989      291.49718    
   3890000   8.9242132      42.281652      289.482      
   3900000   6.0324033      45.423999      310.99613    
   3910000   3.4353793      41.840314      286.46037    
   3920000  -7.994609       46.739709      320.00416    
   3930000  -4.7674887      43.436157      297.38634    
   3940000  -5.9745884      44.544598      304.9753     
   3950000   3.5927456      47.132533      322.69364    
   3960000   0.65415139     53.304629      364.95099    
   3970000  -3.8488255      50.651887      346.78895    
   3980000  -20.260153      46.997208      321.76713    
   3990000  -13.727001      39.74822       272.13682    
   4000000  -13.188367      43.379734      297.00004    
Loop time of 125.942 on 1 procs for 4000000 steps with 50 atoms

Performance: 27441.194 ns/day, 0.001 hours/ns, 31760.642 timesteps/s, 1.588 Matom-step/s
99.2% CPU use with 1 MPI tasks x 1 OpenMP threads

MPI task timing breakdown:
Section |  min time  |  avg time  |  max time  |%varavg| %total
---------------------------------------------------------------
Pair    | 94.232     | 94.232     | 94.232     |   0.0 | 74.82
Bond    | 9.5107     | 9.5107     | 9.5107     |   0.0 |  7.55
Neigh   | 8.3342     | 8.3342     | 8.3342     |   0.0 |  6.62
Comm    | 8.6021     | 8.6021     | 8.6021     |   0.0 |  6.83
Output  | 0.079643   | 0.079643   | 0.079643   |   0.0 |  0.06
Modify  | 4.6309     | 4.6309     | 4.6309     |   0.0 |  3.68
Other   |            | 0.5521     |            |       |  0.44

Nlocal:             50 ave          50 max          50 min
Histogram: 1 0 0 0 0 0 0 0 0 0
Nghost:              0 ave           0 max           0 min
Histogram: 1 0 0 0 0 0 0 0 0 0
Neighs:            441 ave         441 max         441 min
Histogram: 1 0 0 0 0 0 0 0 0 0

Total # of neighbors = 441
Ave neighs/atom = 8.82
Ave special neighs/atom = 5.76
Neighbor list builds = 8259
Dangerous builds = 0

# ===============================
# MAIN SA LOOP — 10 cycles
# ===============================
variable c loop ${ncycle}
variable c loop 10
label cyc

  # Heat 298 → 500
  variable seedH equal 44000+${c}
  variable seedH equal 44000+1
  unfix fxl
  fix fxl all langevin ${T_eq} ${T_high} 100000.0 ${seedH}
  fix fxl all langevin 298 ${T_high} 100000.0 ${seedH}
  fix fxl all langevin 298 500 100000.0 ${seedH}
  fix fxl all langevin 298 500 100000.0 44001
  run ${n_heat}
  run 8000000
Generated 0 of 6 mixed pair_coeff terms from geometric mixing rule
Per MPI rank memory allocation (min/avg/max) = 16.34 | 16.34 | 16.34 Mbytes
   Step         PotEng         KinEng          Temp     
   4000000  -13.188367      43.379734      297.00004    
   4010000  -11.194915      51.80973       354.71614    
   4020000  -13.180794      46.283681      316.88195    
   4030000  -7.7837966      38.120067      260.98964    
   4040000  -6.4442503      44.460567      304.39998    
   4050000  -2.7927074      46.440112      317.95296    
   4060000  -0.67784046     48.311878      330.76804    
   4070000  -4.0064536      43.826257      300.05716    
   4080000  -20.92805       41.25456       282.45       
   4090000  -16.196754      40.510839      277.3581     
   4100000  -10.711331      51.991257      355.95897    
   4110000  -5.0983445      40.928877      280.2202     
   4120000  -8.0212762      41.426947      283.63025    
   4130000  -21.51124       46.74655       320.05099    
   4140000  -24.35578       40.814104      279.43441    
   4150000  -13.839083      47.093726      322.42794    
   4160000  -22.168574      49.29392       337.49161    
   4170000  -6.821339       39.299976      269.06791    
   4180000  -6.7435336      42.654563      292.03514    
   4190000  -6.160789       52.753192      361.17557    
   4200000   5.034443       49.630095      339.79323    
   4210000  -11.085031      61.482849      420.9433     
   4220000  -7.1755535      46.981408      321.65896    
   4230000  -14.154399      52.846662      361.81551    
   4240000  -16.016385      45.574616      312.02733    
   4250000  -13.85737       52.145624      357.01584    
   4260000  -24.294103      54.783404      375.07545    
   4270000  -16.488094      41.582485      284.69514    
   4280000  -15.147857      43.527631      298.01261    
   4290000  -25.443581      41.463139      283.87804    
   4300000  -6.0331781      38.668955      264.74761    
   4310000  -8.3191481      43.175809      295.60386    
   4320000  -12.504904      44.693698      305.99611    
   4330000  -23.564628      41.998669      287.54455    
   4340000  -21.901416      49.769133      340.74516    
   4350000  -15.530371      52.104089      356.73147    
   4360000  -9.5063879      40.318984      276.04456    
   4370000  -3.1028297      45.084814      308.67389    
   4380000  -7.7815668      55.309518      378.67749    
   4390000  -12.776493      50.322401      344.53311    
   4400000  -15.012664      41.844311      286.48774    
   4410000  -7.3084665      39.365024      269.51326    
   4420000  -12.724309      59.507903      407.4218     
   4430000  -7.9425811      48.022571      328.78729    
   4440000  -17.352611      51.672346      353.77554    
   4450000  -16.840983      54.050469      370.05739    
   4460000  -8.2686011      45.775366      313.40177    
   4470000   3.1043821      45.037006      308.34658    
   4480000   3.7729941      56.653084      387.87624    
   4490000   7.4293356      42.395299      290.26009    
   4500000   7.2217097      43.876991      300.40451    
   4510000   6.1315991      50.08421       342.90233    
   4520000  -14.231629      68.410854      468.37599    
   4530000   3.5110922      49.637104      339.84122    
   4540000   16.44791       52.562919      359.87286    
   4550000   5.4671521      49.882239      341.51954    
   4560000   6.0950234      43.538575      298.08754    
   4570000  -6.6960923      48.705153      333.4606     
   4580000   4.9034128      49.299215      337.52785    
   4590000  -7.767678       53.876074      368.86339    
   4600000  -3.5023812      43.190219      295.70252    
   4610000  -2.2545729      44.063865      301.68395    
   4620000  -11.319241      48.752516      333.78487    
   4630000  -11.323686      43.028956      294.59843    
   4640000  -14.922057      42.946548      294.03422    
   4650000   1.8851357      39.520904      270.5805     
   4660000   0.60295579     41.915021      286.97186    
   4670000  -12.255294      53.376818      365.44523    
   4680000  -4.0398854      40.497156      277.26442    
   4690000  -11.686023      49.811527      341.03541    
   4700000  -3.2368833      45.177632      309.30937    
   4710000  -5.2204714      51.100259      349.85873    
   4720000  -2.78833        47.433106      324.75151    
   4730000  -0.36670459     44.074606      301.75749    
   4740000  -1.9802611      49.640611      339.86523    
   4750000   0.94224032     50.02643       342.50675    
   4760000   6.4470948      53.828688      368.53896    
   4770000   18.506141      44.183087      302.50021    
   4780000   6.3652757      52.378613      358.611      
   4790000   0.44360832     47.951117      328.29808    
   4800000   8.7965056      46.822997      320.57439    
   4810000   9.5800464      57.02959       390.45399    
   4820000  -6.7638655      44.898511      307.39837    
   4830000   3.415673       50.030567      342.53507    
   4840000   5.5389302      53.776377      368.18082    
   4850000   8.0398282      50.597292      346.41516    
   4860000   2.961042       47.913797      328.04257    
   4870000   15.426464      49.176657      336.68876    
   4880000  -1.7548947      49.990176      342.25853    
   4890000   5.2558513      41.662297      285.24158    
   4900000  -2.3657349      45.605663      312.23989    
   4910000  -4.2135734      42.204059      288.95076    
   4920000   10.905647      42.566689      291.43351    
   4930000   3.0831994      57.642633      394.6512     
   4940000   7.0339791      39.263748      268.81988    
   4950000  -1.9624371      42.623723      291.824      
   4960000  -11.374469      50.585324      346.33322    
   4970000  -9.7738632      34.805168      238.29414    
   4980000  -6.8912915      46.995953      321.75854    
   4990000  -13.151979      44.942808      307.70165    
   5000000   6.7939439      54.905872      375.91392    
   5010000   10.675806      53.398329      365.59251    
   5020000   9.811181       57.618433      394.48551    
   5030000   11.431243      50.823786      347.96585    
   5040000   8.060202       41.042103      280.99541    
   5050000   5.5663037      50.121054      343.15459    
   5060000   0.87356319     51.626671      353.46282    
   5070000   6.7237908      40.781497      279.21117    
   5080000   20.542126      44.651368      305.7063     
   5090000   15.745366      37.691011      258.0521     
   5100000   9.6411411      49.916922      341.757      
   5110000   16.378223      50.140131      343.2852     
   5120000  -0.69994055     63.488882      434.67764    
   5130000   11.156227      53.782302      368.22138    
   5140000   16.838877      56.757791      388.59311    
   5150000   13.6413        50.529226      345.94915    
   5160000   11.416041      43.978409      301.09887    
   5170000   11.695802      48.692401      333.3733     
   5180000   17.318063      50.249457      344.0337     
   5190000   15.909894      57.048495      390.58343    
   5200000   21.677278      48.27078       330.48666    
   5210000   20.97794       56.713213      388.28791    
   5220000   21.644984      42.989939      294.3313     
   5230000   14.372872      52.023719      356.18121    
   5240000   8.3278064      58.939026      403.52698    
   5250000   7.5986833      51.558877      352.99867    
   5260000   16.533006      51.264027      350.97997    
   5270000   23.180248      43.629846      298.71243    
   5280000   10.659932      50.91032       348.55832    
   5290000   13.680293      42.425674      290.46805    
   5300000   7.5879726      53.521231      366.43396    
   5310000   9.0410069      59.721931      408.88714    
   5320000   20.405786      42.682447      292.22605    
   5330000   5.8276628      41.282818      282.64347    
   5340000  -6.0105366      51.492238      352.54242    
   5350000  -5.7865311      49.556673      339.29055    
   5360000   5.3867897      54.206603      371.12636    
   5370000   0.94891431     58.050602      397.44437    
   5380000   5.5813934      53.879332      368.8857     
   5390000   2.684159       44.828819      306.92122    
   5400000   8.5864617      49.955201      342.01908    
   5410000   17.402154      56.475186      386.65825    
   5420000   9.302763       66.237248      453.49437    
   5430000   15.016302      52.240364      357.66448    
   5440000   7.1734096      55.216989      378.04399    
   5450000   14.097523      47.463526      324.95979    
   5460000   12.389488      52.93482       362.41908    
   5470000   16.063879      40.821298      279.48366    
   5480000   17.264515      45.282155      310.02499    
   5490000   19.411657      43.459873      297.54871    
   5500000   8.9886664      46.890161      321.03423    
   5510000   7.6680182      46.867955      320.8822     
   5520000   2.7219897      44.933612      307.63869    
   5530000   16.706456      48.961854      335.21811    
   5540000   21.759414      52.818709      361.62413    
   5550000   15.165563      50.961033      348.90552    
   5560000   13.346884      53.90187       369.04001    
   5570000   11.120751      48.578399      332.59278    
   5580000   17.689116      52.728769      361.00836    
   5590000   15.820914      52.31362       358.16603    
   5600000   17.958492      47.407647      324.57721    
   5610000   20.9841        52.728371      361.00563    
   5620000   22.752891      55.68294       381.23413    
   5630000   17.466588      56.009595      383.47058    
   5640000   22.088316      53.507692      366.34126    
   5650000   17.236847      57.330866      392.51668    
   5660000   18.802382      53.804108      368.37068    
   5670000   23.875943      49.366384      337.98773    
   5680000   18.929247      54.174909      370.90937    
   5690000   29.869116      48.902778      334.81365    
   5700000   22.753408      54.065517      370.16042    
   5710000   23.898788      50.513776      345.84337    
   5720000   19.379903      46.197878      316.2945     
   5730000   28.509267      55.431722      379.51417    
   5740000   27.531191      51.305923      351.26681    
   5750000   31.538949      49.48405       338.79333    
   5760000   21.209466      61.6344        421.9809     
   5770000   22.828744      51.668845      353.75156    
   5780000   17.774627      57.357491      392.69897    
   5790000   26.108188      47.809237      327.3267     
   5800000   39.13882       42.14016       288.51327    
   5810000   18.261587      65.722637      449.97108    
   5820000  -1.8815716      55.481351      379.85395    
   5830000  -4.1393569      45.754951      313.262      
   5840000   4.4610898      48.348016      331.01546    
   5850000   14.931984      42.213429      289.01491    
   5860000   3.6550691      52.509912      359.50994    
   5870000   19.688947      45.745757      313.19905    
   5880000   3.5638201      61.581401      421.61804    
   5890000   9.336067       45.115902      308.88674    
   5900000  -6.2631347      53.272583      364.73158    
   5910000  -0.28400206     58.275745      398.98581    
   5920000   4.0914851      51.092449      349.80526    
   5930000   12.284963      47.827022      327.44846    
   5940000   13.730617      53.714798      367.75922    
   5950000   22.124677      53.862836      368.77276    
   5960000   13.557173      48.78823       334.02939    
   5970000   15.416648      52.501823      359.45456    
   5980000   3.4515459      50.489926      345.68008    
   5990000   1.540536       58.555666      400.9023     
   6000000   13.545657      49.261503      337.26966    
   6010000   6.5109244      45.163344      309.21155    
   6020000   0.82370413     56.380605      386.0107     
   6030000  -4.4824459      41.314042      282.85725    
   6040000  -6.1063482      42.08313       288.12281    
   6050000   2.5478908      47.698613      326.56931    
   6060000  -4.43075        56.92756       389.75544    
   6070000   1.2001955      49.629742      339.79082    
   6080000   1.3527076      63.335533      433.62773    
   6090000  -2.6161058      50.356664      344.7677     
   6100000   7.3448178      49.808486      341.01459    
   6110000   12.120069      56.1507        384.43666    
   6120000   8.3110891      51.618983      353.41019    
   6130000   11.280655      54.475474      372.9672     
   6140000   2.2043996      64.896345      444.31385    
   6150000   6.5876885      49.639713      339.85909    
   6160000  -5.4689033      43.247976      296.09795    
   6170000   1.8223345      38.305582      262.25977    
   6180000   0.98219516     51.501461      352.60557    
   6190000   1.6120888      43.579757      298.3695     
   6200000  -7.7267108      63.612765      435.5258     
   6210000   0.2415846      52.426782      358.94079    
   6220000   1.2611129      57.238843      391.88665    
   6230000   3.7398353      63.795426      436.7764     
   6240000   8.3716978      50.068962      342.79794    
   6250000  -0.29376547     62.509587      427.97288    
   6260000  -7.1657249      52.717404      360.93054    
   6270000   5.7153824      47.334625      324.07726    
   6280000   4.8729403      61.917518      423.91927    
   6290000   18.808766      51.824815      354.81942    
   6300000   9.7852048      55.817797      382.15743    
   6310000   21.564331      46.858363      320.81653    
   6320000   16.860603      49.719066      340.40237    
   6330000   12.887112      44.668681      305.82483    
   6340000   11.868883      41.64181       285.10131    
   6350000   8.5785459      45.626158      312.38022    
   6360000   5.0738248      44.950286      307.75284    
   6370000   22.003285      45.598686      312.19213    
   6380000   22.827397      50.411109      345.14046    
   6390000   27.924254      52.982226      362.74365    
   6400000   35.524684      57.946231      396.72979    
   6410000   39.473002      49.521322      339.04852    
   6420000   30.342412      53.966142      369.48004    
   6430000   27.062593      51.62194       353.43043    
   6440000   31.005215      54.388093      372.36894    
   6450000   27.772368      48.871254      334.59782    
   6460000   31.722962      51.756632      354.3526     
   6470000   34.56272       52.632687      360.35052    
   6480000   30.779463      51.127965      350.04843    
   6490000   35.889683      48.685312      333.32476    
   6500000   28.87353       43.066613      294.85625    
   6510000   30.612406      51.39439       351.87251    
   6520000   32.250338      40.761795      279.07628    
   6530000   34.072876      47.323761      324.00288    
   6540000   27.456397      47.566545      325.66511    
   6550000   32.19388       52.397481      358.74019    
   6560000   31.301797      63.714089      436.21952    
   6570000   34.942861      56.759825      388.60704    
   6580000   29.681495      59.250275      405.65795    
   6590000   36.877541      54.087966      370.31412    
   6600000   32.373854      57.800469      395.73183    
   6610000   29.897053      55.815933      382.14467    
   6620000   32.74443       56.323217      385.6178     
   6630000   26.295533      56.578195      387.36351    
   6640000   28.770626      49.149172      336.50059    
   6650000   37.536746      49.236249      337.09676    
   6660000   28.325236      47.123177      322.62958    
   6670000   45.812656      55.021846      376.70794    
   6680000   31.657834      56.233927      385.00647    
   6690000   26.986148      54.469897      372.92902    
   6700000   28.821071      63.290666      433.32055    
   6710000   34.467272      53.673706      367.47788    
   6720000   35.024765      47.516337      325.32136    
   6730000   30.60303       67.570356      462.62151    
   6740000   28.569775      54.81945       375.32224    
   6750000   36.069259      52.812712      361.58307    
   6760000   21.273954      57.193078      391.57332    
   6770000   33.559931      62.38446       427.11619    
   6780000   30.679013      50.522921      345.90598    
   6790000   25.587093      57.044068      390.55311    
   6800000   18.883676      60.681087      415.45403    
   6810000   24.717111      53.054093      363.23569    
   6820000   26.793915      46.230456      316.51755    
   6830000   32.885302      67.331426      460.98568    
   6840000   15.749121      53.026524      363.04694    
   6850000   7.0792261      51.91419       355.43132    
   6860000   3.9199993      45.02383       308.25637    
   6870000  -3.1550808      51.447985      352.23945    
   6880000   7.1296517      47.971479      328.43749    
   6890000   14.093395      44.050793      301.59446    
   6900000   16.403873      51.392281      351.85807    
   6910000   13.179283      58.396393      399.81183    
   6920000   20.34825       55.317113      378.72949    
   6930000   29.839279      51.666504      353.73554    
   6940000   29.869387      55.312973      378.70114    
   6950000   28.788804      52.747664      361.13772    
   6960000   21.834532      60.851473      416.62058    
   6970000   32.938846      48.702331      333.44128    
   6980000   28.854003      42.300502      289.61106    
   6990000   40.642853      47.375188      324.35498    
   7000000   35.956949      61.591563      421.68761    
   7010000   36.643806      63.332871      433.6095     
   7020000   45.97301       47.185588      323.05687    
   7030000   33.944752      55.340878      378.8922     
   7040000   27.774932      61.053649      418.00478    
   7050000   35.429942      55.937162      382.97467    
   7060000   34.421467      56.848718      389.21565    
   7070000   32.784932      47.869521      327.73943    
   7080000   34.658759      51.814604      354.74951    
   7090000   30.218314      53.146513      363.86845    
   7100000   36.916933      53.407521      365.65544    
   7110000   37.328998      61.563864      421.49797    
   7120000   34.816129      52.40258       358.7751     
   7130000   41.489104      53.650994      367.32238    
   7140000   38.289199      52.621456      360.27364    
   7150000   22.29977       69.550322      476.17738    
   7160000   16.188106      51.778768      354.50415    
   7170000   15.189929      49.730003      340.47725    
   7180000   18.683749      53.454647      365.97809    
   7190000   24.416302      61.487697      420.97649    
   7200000   34.960542      47.16578       322.92126    
   7210000   31.649623      48.470743      331.85571    
   7220000   37.811829      52.790218      361.42907    
   7230000   26.669149      58.794358      402.5365     
   7240000   40.170042      62.015615      424.59089    
   7250000   27.431523      49.539097      339.17021    
   7260000   37.682146      62.246205      426.16963    
   7270000   32.3752        54.66862       374.28957    
   7280000   34.833728      62.880375      430.51148    
   7290000   43.145025      59.868875      409.8932     
   7300000   43.654616      62.516488      428.02013    
   7310000   40.235597      52.014353      356.11709    
   7320000   48.465931      52.410996      358.83271    
   7330000   46.698121      53.773631      368.16202    
   7340000   36.635632      60.63428       415.13356    
   7350000   33.215027      64.334138      440.46469    
   7360000   32.638818      52.49845       359.43147    
   7370000   46.428025      53.932509      369.24978    
   7380000   30.370479      66.065855      452.32092    
   7390000   18.669068      59.025731      404.1206     
   7400000   35.746592      55.366164      379.06532    
   7410000   29.0214        63.82896       437.00599    
   7420000   27.778177      65.172131      446.20203    
   7430000   28.906053      56.441879      386.43022    
   7440000   33.427902      59.360539      406.41287    
   7450000   34.195335      50.445803      345.37799    
   7460000   36.979277      55.301313      378.62132    
   7470000   34.883821      57.84677       396.04883    
   7480000   45.033542      50.035429      342.56836    
   7490000   42.429566      57.425868      393.16712    
   7500000   35.395726      58.28941       399.07937    
   7510000   33.597246      48.295589      330.65652    
   7520000   26.006367      51.179438      350.40083    
   7530000   28.466296      57.193793      391.57821    
   7540000   29.853459      65.330293      447.28489    
   7550000   34.674104      54.181482      370.95438    
   7560000   35.072645      50.936488      348.73747    
   7570000   32.538821      56.087009      384.0006     
   7580000   37.134637      50.261932      344.11911    
   7590000   40.715105      50.527955      345.94044    
   7600000   33.722441      51.629451      353.48185    
   7610000   29.943333      49.352255      337.891      
   7620000   20.617515      60.902326      416.96874    
   7630000   34.063806      61.018774      417.766      
   7640000   35.051705      50.723437      347.27882    
   7650000   33.470583      48.882524      334.67497    
   7660000   30.850254      61.361258      420.11083    
   7670000   22.015036      57.886536      396.32108    
   7680000   21.210289      51.568363      353.06361    
   7690000   16.234337      45.059446      308.50021    
   7700000   18.400539      58.551105      400.87107    
   7710000   31.064122      60.698412      415.57264    
   7720000   37.150987      57.392002      392.93525    
   7730000   33.196445      52.757227      361.20319    
   7740000   26.560175      54.569834      373.61323    
   7750000   33.316315      58.587702      401.12163    
   7760000   27.691208      50.274481      344.20503    
   7770000   32.611938      61.623193      421.90417    
   7780000   30.029137      69.058346      472.80906    
   7790000   25.329461      70.548286      483.00996    
   7800000   22.073575      55.688952      381.27529    
   7810000   22.663715      66.481775      455.16853    
   7820000   35.230534      63.730178      436.32967    
   7830000   36.793458      52.49744       359.42455    
   7840000   43.855036      53.337973      365.17928    
   7850000   38.288557      42.646417      291.97937    
   7860000   29.848182      50.021812      342.47513    
   7870000   43.585913      53.507536      366.3402     
   7880000   40.850814      55.757152      381.74222    
   7890000   29.037257      59.242245      405.60297    
   7900000   37.80576       65.785911      450.40428    
   7910000   38.944884      56.421911      386.29351    
   7920000   38.807941      65.646137      449.44732    
   7930000   39.028424      70.019237      479.38781    
   7940000   35.505931      65.55463       448.82081    
   7950000   39.07876       70.155868      480.32327    
   7960000   29.341649      47.269994      323.63476    
   7970000   28.563193      62.100055      425.16901    
   7980000   31.471901      54.361246      372.18513    
   7990000   35.323714      41.709925      285.56767    
   8000000   38.760338      55.578772      380.52094    
   8010000   28.421442      69.263998      474.21706    
   8020000   49.070293      55.996404      383.38027    
   8030000   35.776515      65.175516      446.2252     
   8040000   36.420948      45.058813      308.49588    
   8050000   40.026401      50.6292        346.63362    
   8060000   42.186072      62.130893      425.38014    
   8070000   40.075662      64.145975      439.17644    
   8080000   41.734274      69.629805      476.72156    
   8090000   50.981725      66.523029      455.45097    
   8100000   47.276887      61.45654       420.76318    
   8110000   47.106842      65.917634      451.30613    
   8120000   20.870625      63.925177      437.66474    
   8130000   23.077381      50.675594      346.95126    
   8140000   27.206507      61.301088      419.69887    
   8150000   38.182656      49.533014      339.12857    
   8160000   34.922138      62.318702      426.66598    
   8170000   36.676293      78.328808      536.27942    
   8180000   35.401611      67.452543      461.8149     
   8190000   45.152379      61.63837       422.00808    
   8200000   41.516724      60.464181      413.96897    
   8210000   43.853856      55.380486      379.16337    
   8220000   48.195487      57.953497      396.77954    
   8230000   35.145399      50.729475      347.32015    
   8240000   38.644086      55.000037      376.55863    
   8250000   36.890257      57.553228      394.03909    
   8260000   34.763738      62.348714      426.87146    
   8270000   43.024849      51.488231      352.51499    
   8280000   40.226229      63.416675      434.18327    
   8290000   40.176561      53.945693      369.34004    
   8300000   34.262282      45.733018      313.11183    
   8310000   38.206582      53.58076       366.84152    
   8320000   37.811707      52.441208      359.03956    
   8330000   41.937725      50.076975      342.8528     
   8340000   34.860731      47.900876      327.95411    
   8350000   41.34131       59.791146      409.36103    
   8360000   35.233095      62.813023      430.05036    
   8370000   35.160435      49.816938      341.07245    
   8380000   40.098733      48.091663      329.26033    
   8390000   33.478818      60.281278      412.71673    
   8400000   26.344354      71.079389      486.64616    
   8410000   42.664164      57.78284       395.61113    
   8420000   37.432813      60.83838       416.53094    
   8430000   44.49694       63.202672      432.7181     
   8440000   38.924209      61.640445      422.02228    
   8450000   27.536684      61.966916      424.25747    
   8460000   51.452669      56.241722      385.05984    
   8470000   38.886671      55.568947      380.45367    
   8480000   35.527749      68.815269      471.14483    
   8490000   35.339796      68.007431      465.61395    
   8500000   35.947536      61.766377      422.88448    
   8510000   46.625621      61.162979      418.75331    
   8520000   48.570778      62.36039       426.9514     
   8530000   50.508792      52.000662      356.02335    
   8540000   38.522985      55.473821      379.80239    
   8550000   41.837667      67.780554      464.06064    
   8560000   35.721837      71.992581      492.89835    
   8570000   29.288913      60.370057      413.32455    
   8580000   30.372398      58.513929      400.61654    
   8590000   39.446743      74.124005      507.49118    
   8600000   43.342679      65.521461      448.59372    
   8610000   34.985597      61.898571      423.78955    
   8620000   35.542365      70.098172      479.92824    
   8630000   36.717967      61.965693      424.2491     
   8640000   40.460341      60.888245      416.87233    
   8650000   59.027522      55.924036      382.8848     
   8660000   39.133286      59.876069      409.94245    
   8670000   40.873093      65.245071      446.70141    
   8680000   33.129932      68.126457      466.42887    
   8690000   35.155316      60.310862      412.91927    
   8700000   43.634946      66.453719      454.97644    
   8710000   39.897502      63.286335      433.2909     
   8720000   41.247376      56.032137      383.62492    
   8730000   36.349769      62.732258      429.4974     
   8740000   40.195751      68.139018      466.51486    
   8750000   35.679389      56.814577      388.9819     
   8760000   34.174918      75.876321      519.48843    
   8770000   40.674121      60.437173      413.78407    
   8780000   40.34837       58.450739      400.18391    
   8790000   35.837462      67.608791      462.88466    
   8800000   42.656101      76.310201      522.459      
   8810000   38.193186      72.312201      495.08663    
   8820000   42.802971      59.661112      408.47075    
   8830000   34.518085      65.385074      447.65994    
   8840000   43.082059      70.577323      483.20876    
   8850000   36.327423      75.126293      514.35336    
   8860000   40.660584      55.798052      382.02224    
   8870000   39.478624      62.721613      429.42452    
   8880000   36.101702      55.08211       377.12054    
   8890000   36.58591       61.686121      422.335      
   8900000   40.030765      69.085333      472.99382    
   8910000   46.26302       59.454688      407.05746    
   8920000   37.488914      70.834654      484.97058    
   8930000   44.416375      62.479072      427.76396    
   8940000   39.588907      53.48162       366.16276    
   8950000   37.580116      66.22261       453.39415    
   8960000   41.622391      54.649117      374.15605    
   8970000   42.478135      76.643646      524.74194    
   8980000   36.443896      58.504003      400.54859    
   8990000   31.00193       53.654979      367.34966    
   9000000   41.371522      66.223728      453.40181    
   9010000   35.962938      58.94999       403.60204    
   9020000   41.088487      74.517324      510.18404    
   9030000   46.642507      65.542245      448.73602    
   9040000   43.308935      74.519616      510.19973    
   9050000   31.807628      59.768128      409.20344    
   9060000   37.119121      62.564084      428.34599    
   9070000   42.453342      73.349381      502.1877     
   9080000   32.698603      74.446982      509.70245    
   9090000   44.605957      61.721358      422.57626    
   9100000   44.323558      53.232036      364.45398    
   9110000   40.646151      58.253151      398.83112    
   9120000   31.327982      60.719556      415.7174     
   9130000   48.45596       69.654397      476.88994    
   9140000   43.732245      64.886812      444.24858    
   9150000   35.949448      65.234434      446.62859    
   9160000   43.583027      67.925792      465.05501    
   9170000   49.506755      65.603421      449.15486    
   9180000   40.963945      62.410025      427.29122    
   9190000   37.772666      61.863318      423.54819    
   9200000   33.817495      65.466426      448.21692    
   9210000   41.993952      65.710246      449.88624    
   9220000   41.362547      62.786121      429.86618    
   9230000   40.163331      55.737847      381.61005    
   9240000   34.02252       57.640846      394.63897    
   9250000   39.552467      56.307257      385.50853    
   9260000   44.033989      55.866739      382.49252    
   9270000   46.17671       60.961067      417.37091    
   9280000   30.104891      68.592328      469.61846    
   9290000   42.883792      63.36197       433.80873    
   9300000   36.292917      50.85693       348.19278    
   9310000   37.438958      56.703584      388.22199    
   9320000   40.799404      64.234187      439.78038    
   9330000   42.16424       58.62379       401.36871    
   9340000   37.09189       63.531355      434.96843    
   9350000   40.093389      68.754779      470.73069    
   9360000   42.5549        51.533011      352.82157    
   9370000   42.1061        49.553536      339.26907    
   9380000   39.469672      54.035726      369.95645    
   9390000   40.14388       79.532152      544.51814    
   9400000   45.504961      82.206653      562.82915    
   9410000   49.143701      68.460578      468.71643    
   9420000   31.564596      61.415082      420.47933    
   9430000   43.802044      67.298696      460.76159    
   9440000   48.34311       57.505811      393.71445    
   9450000   40.855038      62.844582      430.26642    
   9460000   49.921458      76.014668      520.43563    
   9470000   48.180588      67.694553      463.47183    
   9480000   40.816226      62.947873      430.97361    
   9490000   41.081598      76.619102      524.5739     
   9500000   45.136204      66.95674       458.42038    
   9510000   37.889064      66.791644      457.29005    
   9520000   38.872285      64.915146      444.44258    
   9530000   43.502645      62.794446      429.92317    
   9540000   46.063457      81.493694      557.94787    
   9550000   35.849473      73.438806      502.79995    
   9560000   40.853722      67.92184       465.02796    
   9570000   47.50906       66.426028      454.78686    
   9580000   43.019324      64.721431      443.11631    
   9590000   37.678021      72.735255      497.98307    
   9600000   35.103313      74.797188      512.10014    
   9610000   42.56491       73.548222      503.54907    
   9620000   41.194265      78.097143      534.69332    
   9630000   43.382252      66.506006      455.33443    
   9640000   33.733016      81.161074      555.67058    
   9650000   51.693048      68.688427      470.2764     
   9660000   37.799119      63.338312      433.64676    
   9670000   33.069881      67.954386      465.25078    
   9680000   47.481212      54.979898      376.42074    
   9690000   33.110622      59.230455      405.52225    
   9700000   36.490786      68.65432       470.04289    
   9710000   40.061455      68.111134      466.32396    
   9720000   32.738875      60.02273       410.94657    
   9730000   31.379153      58.863586      403.01048    
   9740000   29.62899       69.215678      473.88623    
   9750000   40.602002      61.093059      418.2746     
   9760000   35.968922      77.036247      527.42989    
   9770000   37.84093       67.5262        462.3192     
   9780000   26.287048      71.796337      491.55476    
   9790000   38.880737      58.710866      401.96488    
   9800000   37.88411       60.101448      411.48552    
   9810000   43.127911      67.366449      461.22546    
   9820000   38.494116      75.965689      520.10029    
   9830000   35.544384      53.107723      363.60287    
   9840000   48.799927      64.584544      442.1791     
   9850000   44.257572      67.753599      463.87609    
   9860000   44.448663      77.238415      528.81403    
   9870000   42.9329        55.584949      380.56324    
   9880000   38.39351       62.622601      428.74663    
   9890000   53.059911      69.41206       475.23077    
   9900000   45.493437      68.240136      467.20718    
   9910000   37.559514      73.323685      502.01177    
   9920000   50.925066      87.563983      599.50819    
   9930000   52.617785      83.895847      574.39424    
   9940000   40.89231       81.377447      557.15198    
   9950000   52.438156      72.322179      495.15495    
   9960000   45.089495      77.027701      527.37137    
   9970000   40.938158      67.628416      463.01902    
   9980000   42.524863      71.508993      489.58746    
   9990000   52.473648      62.906675      430.69155    
  10000000   41.622064      78.500442      537.45452    
  10010000   47.340715      73.354973      502.22598    
  10020000   54.942278      74.259392      508.4181     
  10030000   44.281903      80.395034      550.42587    
  10040000   40.04886       75.514995      517.01461    
  10050000   56.622191      75.928806      519.84778    
  10060000   42.955424      73.215534      501.27131    
  10070000   41.128289      70.499422      482.67541    
  10080000   52.783387      73.68628       504.49429    
  10090000   38.355238      86.109007      589.54668    
  10100000   55.972315      65.410689      447.83532    
  10110000   35.039965      77.15347       528.23246    
  10120000   46.658827      73.853902      505.64191    
  10130000   43.978496      68.921122      471.86956    
  10140000   43.662324      73.99204       506.58768    
  10150000   33.274548      70.233629      480.85565    
  10160000   31.962123      74.946518      513.12253    
  10170000   52.958244      60.110896      411.5502     
  10180000   42.800658      71.747112      491.21774    
  10190000   37.253488      72.39525       495.65523    
  10200000   51.452937      76.841707      526.09796    
  10210000   41.567904      61.781229      422.98616    
  10220000   55.927719      63.934787      437.73053    
  10230000   40.344102      54.464958      372.8952     
  10240000   28.856605      62.831966      430.18005    
  10250000   43.446491      67.795179      464.16077    
  10260000   41.081598      74.151279      507.67791    
  10270000   35.500754      65.173903      446.21416    
  10280000   52.458474      74.87164       512.60987    
  10290000   37.83797       78.009845      534.09564    
  10300000   43.901745      65.590538      449.06666    
  10310000   51.522623      67.496786      462.11781    
  10320000   52.858486      63.052388      431.68918    
  10330000   39.062328      72.286317      494.90941    
  10340000   37.275124      73.274292      501.6736     
  10350000   33.667257      73.459251      502.93992    
  10360000   35.059086      64.971577      444.82893    
  10370000   46.593661      80.347206      550.09842    
  10380000   41.460093      74.870513      512.60216    
  10390000   41.720715      66.476718      455.1339     
  10400000   37.444427      75.988566      520.25692    
  10410000   40.067424      51.943495      355.63196    
  10420000   36.35645       59.817874      409.54402    
  10430000   44.795809      66.270008      453.71866    
  10440000   51.097241      76.107699      521.07257    
  10450000   45.175681      66.157073      452.94545    
  10460000   38.876981      73.330015      502.05511    
  10470000   34.64372       65.044828      445.33045    
  10480000   42.544303      66.018721      451.99822    
  10490000   32.237701      60.873365      416.77046    
  10500000   40.69493       72.143847      493.93399    
  10510000   56.253149      64.732258      443.19043    
  10520000   41.595483      86.861753      594.70037    
  10530000   44.835687      68.708026      470.41059    
  10540000   38.124679      86.476403      592.06206    
  10550000   40.915129      61.087875      418.23911    
  10560000   39.388774      61.098408      418.31122    
  10570000   36.428796      60.262726      412.58971    
  10580000   41.461843      63.349882      433.72597    
  10590000   36.09448       77.853564      533.02566    
  10600000   44.722677      60.871604      416.7584     
  10610000   36.618999      60.439711      413.80144    
  10620000   37.969097      73.981455      506.5152     
  10630000   43.419304      62.446196      427.53887    
  10640000   42.102758      69.9813        479.12808    
  10650000   40.932791      70.914256      485.51558    
  10660000   40.402281      60.436354      413.77845    
  10670000   36.382888      78.578724      537.99048    
  10680000   42.915421      70.351944      481.6657     
  10690000   48.140736      55.502255      379.99707    
  10700000   49.086667      65.032369      445.24514    
  10710000   45.284389      85.689685      586.67579    
  10720000   41.47645       69.335548      474.70693    
  10730000   40.253378      70.666633      483.82022    
  10740000   51.330183      71.76331       491.32864    
  10750000   43.608458      72.643514      497.35497    
  10760000   51.331399      72.063807      493.386      
  10770000   42.663389      71.331798      488.37429    
  10780000   48.224657      64.72491       443.14013    
  10790000   45.085566      73.415512      502.64047    
  10800000   35.173251      65.025462      445.19785    
  10810000   35.406328      60.862411      416.69546    
  10820000   41.951491      66.050802      452.21787    
  10830000   44.698193      73.08093       500.34975    
  10840000   41.371016      64.067965      438.64234    
  10850000   45.984748      57.625173      394.53166    
  10860000   43.614682      57.218885      391.75       
  10870000   36.415616      59.692234      408.68383    
  10880000   43.356982      66.389789      454.53875    
  10890000   48.975768      81.268371      556.40519    
  10900000   47.97856       72.404657      495.71964    
  10910000   40.615674      82.000053      561.41466    
  10920000   47.434231      78.676996      538.6633     
  10930000   44.631951      56.282172      385.33678    
  10940000   40.589199      61.355291      420.06997    
  10950000   49.073261      76.122443      521.17351    
  10960000   42.325216      71.061892      486.52637    
  10970000   52.152823      65.995102      451.83651    
  10980000   52.470444      73.792678      505.22274    
  10990000   44.065726      71.686483      490.80264    
  11000000   47.063143      58.384561      399.73082    
  11010000   29.120791      87.526409      599.25094    
  11020000   46.273278      65.69793       449.80192    
  11030000   46.616282      65.722223      449.96824    
  11040000   38.312312      69.21891       473.90836    
  11050000   46.857199      55.998033      383.39142    
  11060000   50.28421       76.781606      525.68648    
  11070000   40.842024      66.367977      454.38941    
  11080000   41.232838      60.956581      417.3402     
  11090000   45.352863      65.317555      447.19768    
  11100000   50.119542      73.528658      503.41512    
  11110000   39.902089      55.339558      378.88316    
  11120000   56.236249      66.443968      454.90968    
  11130000   39.611473      59.840593      409.69957    
  11140000   41.860351      77.703169      531.99598    
  11150000   37.290144      80.380931      550.32932    
  11160000   44.823734      67.465744      461.90529    
  11170000   53.848728      69.177214      473.62289    
  11180000   43.643175      62.735237      429.51779    
  11190000   43.876907      66.648768      456.31185    
  11200000   36.10423       79.124189      541.72501    
  11210000   44.931479      73.656778      504.2923     
  11220000   53.319444      63.601603      435.44939    
  11230000   35.424138      62.454138      427.59325    
  11240000   43.039163      70.840749      485.01231    
  11250000   45.650157      68.027893      465.75405    
  11260000   58.857246      60.518161      414.33855    
  11270000   48.378528      89.620885      613.59081    
  11280000   52.963691      77.35698       529.62579    
  11290000   45.389859      68.000222      465.5646     
  11300000   32.773751      80.51006       551.2134     
  11310000   44.524708      76.905482      526.5346     
  11320000   47.888613      69.511533      475.91181    
  11330000   42.735553      69.154527      473.46757    
  11340000   43.102822      76.252532      522.06417    
  11350000   42.579171      62.591257      428.53203    
  11360000   41.368573      70.892249      485.36491    
  11370000   51.468003      71.815095      491.68318    
  11380000   43.177591      67.845195      464.5032     
  11390000   56.340789      76.952175      526.85429    
  11400000   46.341455      69.864917      478.33126    
  11410000   38.200326      78.761248      539.24013    
  11420000   43.757854      61.550613      421.40725    
  11430000   47.564508      69.990311      479.18978    
  11440000   44.960521      95.337989      652.73305    
  11450000   55.498873      69.958636      478.97291    
  11460000   48.677912      82.266749      563.2406     
  11470000   52.769392      69.045027      472.71787    
  11480000   53.375835      78.295892      536.05407    
  11490000   57.293625      70.790145      484.66585    
  11500000   31.788375      83.129581      569.14799    
  11510000   48.381868      71.999652      492.94676    
  11520000   36.979734      77.619802      531.42521    
  11530000   56.688829      72.990012      499.72727    
  11540000   55.343271      71.935684      492.5088     
  11550000   45.469943      79.082128      541.43705    
  11560000   49.830571      69.937996      478.8316     
  11570000   53.315591      80.507182      551.1937     
  11580000   53.995956      67.55667       462.52781    
  11590000   57.267616      67.648025      463.15327    
  11600000   45.45169       60.622317      415.05166    
  11610000   41.368531      81.271842      556.42895    
  11620000   41.811114      66.929247      458.23215    
  11630000   40.656397      83.112319      569.02981    
  11640000   54.635244      68.753492      470.72187    
  11650000   35.109424      65.700558      449.81991    
  11660000   51.728364      72.964264      499.55099    
  11670000   43.371353      85.517622      585.49776    
  11680000   46.134489      73.301795      501.8619     
  11690000   39.888801      75.239429      515.12794    
  11700000   40.536056      80.194558      549.05331    
  11710000   43.457194      60.550817      414.56213    
  11720000   38.936049      75.387852      516.14413    
  11730000   48.930532      78.229827      535.60175    
  11740000   42.54775       69.670414      476.99959    
  11750000   49.573912      81.609937      558.74373    
  11760000   39.512129      86.168613      589.95477    
  11770000   53.65215       70.537526      482.93629    
  11780000   54.873918      69.038877      472.67577    
  11790000   41.272874      94.568787      647.4667     
  11800000   51.315318      76.337733      522.6475     
  11810000   54.867184      76.339717      522.66108    
  11820000   36.036091      62.548509      428.23936    
  11830000   54.874511      76.087994      520.93766    
  11840000   47.749703      76.373385      522.89159    
  11850000   48.32073       72.420492      495.82805    
  11860000   38.598988      78.399399      536.76273    
  11870000   33.203415      66.506272      455.33625    
  11880000   46.152553      69.817968      478.00982    
  11890000   47.286317      69.049724      472.75003    
  11900000   43.666519      70.941432      485.70164    
  11910000   49.607107      65.232213      446.61338    
  11920000   33.828281      70.911324      485.49551    
  11930000   39.063255      60.08271       411.35722    
  11940000   44.251015      78.318185      536.20669    
  11950000   40.883904      59.025525      404.1192     
  11960000   42.153315      81.348258      556.95214    
  11970000   44.814647      75.370095      516.02255    
  11980000   38.992603      84.389772      577.77591    
  11990000   44.179999      69.307957      474.51803    
  12000000   34.854545      87.09098       596.26977    
Loop time of 164.44 on 1 procs for 8000000 steps with 50 atoms

Performance: 42033.684 ns/day, 0.001 hours/ns, 48650.098 timesteps/s, 2.433 Matom-step/s
99.2% CPU use with 1 MPI tasks x 1 OpenMP threads

MPI task timing breakdown:
Section |  min time  |  avg time  |  max time  |%varavg| %total
---------------------------------------------------------------
Pair    | 96.451     | 96.451     | 96.451     |   0.0 | 58.65
Bond    | 18.96      | 18.96      | 18.96      |   0.0 | 11.53
Neigh   | 21.435     | 21.435     | 21.435     |   0.0 | 13.04
Comm    | 17.208     | 17.208     | 17.208     |   0.0 | 10.46
Output  | 0.15562    | 0.15562    | 0.15562    |   0.0 |  0.09
Modify  | 9.1361     | 9.1361     | 9.1361     |   0.0 |  5.56
Other   |            | 1.093      |            |       |  0.66

Nlocal:             50 ave          50 max          50 min
Histogram: 1 0 0 0 0 0 0 0 0 0
Nghost:              0 ave           0 max           0 min
Histogram: 1 0 0 0 0 0 0 0 0 0
Neighs:            151 ave         151 max         151 min
Histogram: 1 0 0 0 0 0 0 0 0 0

Total # of neighbors = 151
Ave neighs/atom = 3.02
Ave special neighs/atom = 5.76
Neighbor list builds = 21612
Dangerous builds = 0

  # Hold at 500
  variable seedHH equal 45000+${c}
  variable seedHH equal 45000+1
  unfix fxl
  fix fxl all langevin ${T_high} ${T_high} 100000.0 ${seedHH}
  fix fxl all langevin 500 ${T_high} 100000.0 ${seedHH}
  fix fxl all langevin 500 500 100000.0 ${seedHH}
  fix fxl all langevin 500 500 100000.0 45001
  run ${n_holdH}
  run 8000000
Generated 0 of 6 mixed pair_coeff terms from geometric mixing rule
Per MPI rank memory allocation (min/avg/max) = 16.34 | 16.34 | 16.34 Mbytes
   Step         PotEng         KinEng          Temp     
  12000000   34.854545      87.09098       596.26977    
  12010000   52.547915      94.497381      646.97782    
  12020000   51.852894      84.699158      579.89413    
  12030000   49.160946      90.358019      618.63761    
  12040000   50.346397      82.990052      568.19271    
  12050000   55.956148      86.224343      590.33633    
  12060000   49.980468      87.196826      596.99445    
  12070000   49.039503      75.55388       517.28084    
  12080000   51.778118      82.199221      562.77827    
  12090000   51.34202       86.868919      594.74943    
  12100000   50.812738      69.785289      477.78609    
  12110000   47.328718      70.752775      484.41       
  12120000   42.270503      77.77668       532.49927    
  12130000   46.430095      85.403622      584.71725    
  12140000   55.515043      78.681118      538.69153    
  12150000   56.089882      64.29653       440.20721    
  12160000   39.697625      77.210991      528.62627    
  12170000   50.230547      73.458516      502.9349     
  12180000   63.088798      66.516951      455.40936    
  12190000   54.828458      59.574635      407.87869    
  12200000   49.070172      54.114915      370.49862    
  12210000   48.895675      60.1023        411.49135    
  12220000   50.110645      79.88184       546.91228    
  12230000   48.41977       74.946855      513.12483    
  12240000   58.586475      67.922503      465.0325     
  12250000   47.96002       64.427029      441.10067    
  12260000   42.410518      71.980185      492.81348    
  12270000   45.735128      69.188692      473.70148    
  12280000   36.253377      75.853378      519.33135    
  12290000   48.682323      64.433843      441.14733    
  12300000   42.308071      68.335007      467.85671    
  12310000   50.64953       74.662974      511.18124    
  12320000   45.310835      67.666467      463.27954    
  12330000   43.143723      88.791176      607.91019    
  12340000   48.663968      86.932368      595.18383    
  12350000   41.357474      85.391517      584.63437    
  12360000   36.000822      60.577513      414.7449     
  12370000   49.036372      67.552266      462.49766    
  12380000   56.957484      66.593912      455.93628    
  12390000   41.536339      72.969673      499.58803    
  12400000   43.547701      62.315625      426.64491    
  12410000   35.511574      61.933685      424.02996    
  12420000   53.492101      81.650327      559.02026    
  12430000   49.523673      84.634935      579.45442    
  12440000   48.603041      74.973319      513.30601    
  12450000   42.000703      72.31449       495.10231    
  12460000   50.992659      80.589186      551.75514    
  12470000   55.540238      68.54298       469.2806     
  12480000   41.898725      82.512479      564.923      
  12490000   53.454188      83.355001      570.69134    
  12500000   45.332508      77.656869      531.67898    
  12510000   40.988572      69.480108      475.69666    
  12520000   38.21348       74.479731      509.92666    
  12530000   42.630883      59.63343       408.28122    
  12540000   52.289237      81.441132      557.588      
  12550000   49.178029      71.208825      487.53235    
  12560000   49.441086      70.092765      479.89123    
  12570000   37.240678      70.73754       484.30569    
  12580000   46.708038      82.678008      566.05629    
  12590000   45.319255      70.345725      481.62312    
  12600000   40.474112      74.893205      512.75752    
  12610000   58.166262      76.063935      520.77293    
[...]
 404760000  -20.268858      56.056816      383.79388    
 404770000  -11.725993      44.27783       303.14886    
 404780000  -5.9434371      42.473756      290.79724    
 404790000  -10.553191      40.943246      280.31858    
 404800000  -21.247055      45.603031      312.22187    
 404810000  -19.002859      47.37642       324.36341    
 404820000  -20.737152      41.08827       281.31149    
 404830000  -11.278095      39.757363      272.19942    
 404840000  -15.549151      50.893497      348.44313    
 404850000  -10.630929      45.006713      308.13917    
 404860000   2.1856968      49.676585      340.11153    
 404870000   5.9443895      47.7947        327.22717    
 404880000   1.4303319      51.49215       352.54182    
 404890000   0.95371548     40.71147       278.73172    
 404900000  -15.159975      45.417366      310.95071    
 404910000  -14.518582      51.573786      353.10074    
 404920000  -5.6401693      44.773005      306.53909    
 404930000  -10.820478      52.653933      360.49599    
 404940000  -8.4659844      43.878708      300.41627    
 404950000  -1.5813271      47.697214      326.55973    
 404960000   5.7825808      43.966846      301.01971    
 404970000   5.2252704      46.711196      319.80894    
 404980000  -9.3262579      49.739639      340.54323    
 404990000  -11.247533      45.895083      314.22141    
 405000000  -21.488818      37.781355      258.67065    
 405010000  -17.64353       45.486462      311.42378    
 405020000  -25.104226      43.32007       296.59155    
 405030000  -5.9697604      42.918608      293.84293    
 405040000  -8.0719601      47.356067      324.22406    
 405050000  -7.3386046      38.936931      266.58231    
 405060000  -4.3120219      46.503462      318.38669    
 405070000  -7.3207785      51.895994      355.30675    
 405080000  -4.3070483      46.691059      319.67108    
 405090000  -6.311648       41.613579      284.90803    
 405100000  -15.060113      39.745745      272.11987    
 405110000  -22.043164      41.396111      283.41913    
 405120000  -16.270634      39.696579      271.78326    
 405130000  -11.683709      46.51659       318.47657    
 405140000  -11.377022      43.094554      295.04755    
 405150000  -9.2323022      38.621065      264.41973    
 405160000   0.47021801     39.408079      269.80804    
 405170000  -3.1772735      40.085372      274.44513    
 405180000  -8.5054319      43.320561      296.59491    
 405190000  -13.474095      43.356032      296.83776    
 405200000  -2.6848153      39.787431      272.40528    
 405210000  -7.8389407      57.334703      392.54295    
 405220000  -0.97438633     48.613284      332.83162    
 405230000  -11.783248      44.242608      302.90772    
 405240000  -17.56946       45.391549      310.77396    
 405250000  -5.2043599      54.77121       374.99196    
 405260000   4.9294828      50.071377      342.81448    
 405270000  -4.1044191      48.692067      333.37101    
 405280000  -0.15588864     34.489928      236.13584    
 405290000  -4.9342931      49.137805      336.42276    
 405300000  -13.594288      52.598828      360.11871    
 405310000  -17.952262      46.774236      320.24055    
 405320000  -16.565663      45.354897      310.52302    
 405330000  -18.151621      44.576778      305.19561    
 405340000  -13.125367      40.433898      276.83132    
 405350000  -0.80083868     44.484585      304.56441    
 405360000  -15.557629      46.254153      316.67979    
 405370000  -8.6138416      43.572023      298.31655    
 405380000  -15.216805      41.361969      283.18538    
 405390000  -14.825672      43.47849       297.67617    
 405400000  -21.826402      43.408294      297.19558    
 405410000  -15.653138      42.245829      289.23674    
 405420000  -13.880158      45.661221      312.62028    
 405430000  -11.219011      41.623707      284.97737    
 405440000  -5.042377       43.999085      301.24043    
 405450000  -5.6919042      49.547022      339.22447    
 405460000  -3.91414        40.471956      277.09189    
 405470000   7.5872702      48.465568      331.82028    
 405480000   1.083922       54.643935      374.12057    
 405490000   8.5903029      42.189413      288.85048    
 405500000  -10.272797      50.607005      346.48166    
 405510000  -9.3892297      53.524208      366.45434    
 405520000  -8.8567952      45.083906      308.66768    
 405530000  -9.8641491      40.350982      276.26364    
 405540000  -14.418899      45.456047      311.21555    
 405550000  -11.833047      46.820031      320.55408    
 405560000  -4.1601215      45.24611       309.77821    
 405570000  -5.6967014      49.813182      341.04674    
 405580000  -12.239152      50.519889      345.88522    
 405590000  -4.1144647      37.922741      259.63865    
 405600000  -11.068307      48.127994      329.50907    
 405610000  -6.6713439      50.012931      342.41432    
 405620000  -1.7696904      36.99545       253.28994    
 405630000  -9.4663156      45.243004      309.75694    
 405640000  -16.361709      45.924361      314.42186    
 405650000  -6.7866094      44.600196      305.35595    
 405660000   1.0358123      47.749502      326.91772    
 405670000  -4.3304558      45.131348      308.99249    
 405680000  -6.2865488      54.344885      372.07312    
 405690000  -6.5909019      50.163996      343.44859    
 405700000  -4.0091924      41.787196      286.0967     
 405710000   2.9192291      41.837802      286.44317    
 405720000  -1.2422528      49.648188      339.91711    
 405730000  -3.3851869      48.04443       328.93695    
 405740000  -11.019641      38.78793       265.56218    
 405750000  -12.814725      35.602731      243.75466    
 405760000  -20.019739      45.460501      311.24604    
 405770000  -5.9834918      30.724502      210.35579    
 405780000  -14.351869      39.618716      271.25017    
 405790000  -11.671908      38.858602      266.04604    
 405800000  -13.276344      40.39188       276.54365    
 405810000   1.1756525      40.763499      279.08794    
 405820000  -6.520288       45.020433      308.23311    
 405830000  -17.999903      52.142933      356.99742    
 405840000  -18.178932      42.265607      289.37215    
 405850000  -18.421195      45.742758      313.17852    
 405860000  -5.3245069      42.202133      288.93757    
 405870000  -14.419397      43.424879      297.30912    
 405880000  -9.8749833      34.611004      236.96479    
 405890000  -15.625821      40.149956      274.88731    
 405900000  -10.423952      40.95486       280.3981     
 405910000  -15.608694      49.940833      341.92071    
 405920000   5.1934525      38.16419       261.29173    
 405930000   0.34124593     40.462488      277.02707    
 405940000   5.4266259      43.654269      298.87964    
 405950000   4.1062145      35.528245      243.24469    
 405960000  -6.8551195      32.798337      224.55434    
 405970000  -16.432775      47.463695      324.96094    
 405980000  -15.530227      42.866901      293.48892    
 405990000  -9.3884454      33.596371      230.01809    
 406000000  -13.900448      37.746575      258.43253    
 406010000  -18.026863      46.681999      319.60905    
 406020000  -20.241753      50.540205      346.02431    
 406030000  -5.515914       43.928948      300.76024    
 406040000  -12.871483      39.893243      273.12972    
 406050000  -22.173478      43.733582      299.42266    
 406060000  -13.308462      46.283019      316.87742    
 406070000  -15.220103      44.482179      304.54794    
 406080000  -1.820428       41.879239      286.72687    
 406090000  -3.6964082      47.594503      325.85652    
 406100000  -5.6293369      46.088109      315.54297    
 406110000  -15.908467      47.249044      323.49133    
 406120000  -12.463919      53.214742      364.33557    
 406130000  -12.832967      51.875442      355.16604    
 406140000  -10.461797      51.187797      350.45806    
 406150000  -9.5395455      33.264137      227.74344    
 406160000  -11.268665      43.91133       300.63962    
 406170000  -10.565877      48.092621      329.26689    
 406180000  -6.7348629      41.72599       285.67765    
 406190000   3.6558989      43.98112       301.11744    
 406200000  -0.39613487     51.464385      352.35173    
 406210000   1.678184       53.234504      364.47087    
 406220000  -2.999214       42.965167      294.1617     
 406230000  -3.392234       48.85101       334.45922    
 406240000  -8.8666929      44.144418      302.23546    
 406250000  -12.380956      46.739424      320.0022     
 406260000  -19.656267      46.497621      318.3467     
 406270000  -18.421322      40.963559      280.45766    
 406280000  -19.726413      43.000049      294.40052    
 406290000  -22.733485      42.925403      293.88945    
 406300000  -14.268193      39.122712      267.85427    
 406310000  -7.3983148      43.989377      301.17397    
 406320000  -3.8088687      40.167061      275.00442    
 406330000  -11.437636      36.320628      248.66976    
 406340000  -9.4994549      43.111324      295.16236    
 406350000  -3.8367251      45.829403      313.77173    
 406360000  -1.7546147      38.445107      263.21504    
 406370000  -6.1616979      37.069863      253.7994     
 406380000  -3.9890613      40.919733      280.1576     
 406390000  -9.5208338      41.811476      286.26294    
 406400000  -12.462413      47.06291       322.21696    
 406410000  -14.040464      53.043924      363.16607    
 406420000  -1.5354826      38.035567      260.41111    
 406430000  -4.4348017      47.909386      328.01237    
 406440000  -2.6966313      42.041509      287.83786    
 406450000  -3.091555       46.073445      315.44257    
 406460000  -13.754739      49.811733      341.03682    
 406470000  -20.927137      41.017437      280.82654    
 406480000  -8.0285933      37.116606      254.11943    
 406490000  -13.585601      46.051215      315.29037    
 406500000  -18.444829      38.134202      261.08642    
 406510000  -24.587595      46.120926      315.76765    
 406520000  -24.482477      40.323016      276.07217    
 406530000  -17.738352      48.179374      329.86085    
 406540000  -16.608689      33.946757      232.41701    
 406550000  -18.414502      44.273974      303.12247    
 406560000  -7.8403183      40.868266      279.80523    
 406570000  -12.168646      38.738788      265.22573    
 406580000  -11.724197      47.346705      324.15997    
 406590000  -12.571162      36.501792      249.91009    
 406600000  -12.468325      43.663391      298.9421     
 406610000  -12.156976      40.444707      276.90533    
 406620000  -21.302235      39.883963      273.06619    
 406630000  -23.757914      42.780794      292.89939    
 406640000  -20.490282      39.155894      268.08145    
 406650000  -15.61212       46.228857      316.5066     
 406660000  -0.035868882    35.781951      244.98169    
 406670000  -1.7064335      47.696993      326.55822    
 406680000  -2.2964039      50.142069      343.29847    
 406690000  -7.1498031      44.196008      302.58867    
 406700000  -4.2033064      47.004883      321.81968    
 406710000  -13.459886      44.497515      304.65294    
 406720000  -3.4448753      40.706543      278.69799    
 406730000  -14.640237      43.417605      297.25932    
 406740000  -14.411973      46.440846      317.95799    
 406750000  -20.309138      45.679423      312.7449     
 406760000  -24.288293      45.923674      314.41716    
 406770000  -18.714015      46.808473      320.47495    
 406780000  -9.5957986      39.906436      273.22005    
 406790000  -22.847924      45.876304      314.09284    
 406800000  -8.4160956      37.095096      253.97216    
 406810000  -10.575272      36.212177      247.92725    
 406820000  -1.8340847      50.178575      343.54841    
 406830000  -0.1888718      54.101474      370.4066     
 406840000   11.941093      52.520475      359.58226    
 406850000   1.2591311      49.915772      341.74912    
 406860000  -11.787847      53.719107      367.78872    
 406870000  -8.7086831      39.801704      272.503      
 406880000  -7.4469337      37.262137      255.11581    
 406890000  -3.2565913      42.637365      291.9174     
 406900000   1.3239523      36.911785      252.71712    
 406910000  -7.7246154      46.763001      320.16363    
 406920000  -14.359159      43.336615      296.70482    
 406930000  -15.530761      41.748714      285.83323    
 406940000  -14.488674      37.988061      260.08586    
 406950000  -24.225325      56.700216      388.19893    
 406960000  -18.8758        45.827457      313.75841    
 406970000  -21.211361      43.46247       297.56649    
 406980000  -9.8744284      47.591197      325.83389    
 406990000  -8.3377313      41.004575      280.73847    
 407000000  -17.430656      40.871566      279.82782    
 407010000  -20.549486      41.87337       286.68669    
 407020000  -8.4655944      36.1622        247.58508    
 407030000  -9.2426723      42.920441      293.85548    
 407040000  -20.793054      43.266326      296.22359    
 407050000  -14.75881       41.985952      287.45748    
 407060000  -14.684945      36.678401      251.11926    
 407070000  -20.069637      45.931463      314.47049    
 407080000  -13.818155      45.435215      311.07292    
 407090000  -17.026523      40.733057      278.87952    
 407100000  -16.899623      54.030247      369.91894    
 407110000  -15.963173      47.330341      324.04793    
 407120000  -2.0916102      46.741336      320.0153     
 407130000   0.4677734      50.196303      343.66978    
 407140000  -3.5625148      43.406092      297.1805     
 407150000  -7.5818903      40.040292      274.13649    
 407160000  -4.2434142      44.361743      303.72338    
 407170000  -4.2960111      40.329674      276.11775    
 407180000  -12.95865       39.698562      271.79684    
 407190000  -11.561122      50.058731      342.72789    
 407200000  -2.6610235      45.293274      310.10112    
 407210000  -6.5162648      43.486232      297.72918    
 407220000  -11.160961      47.754781      326.95386    
 407230000  -11.022843      40.275951      275.74994    
 407240000  -12.56204       46.07536       315.45568    
 407250000  -10.325304      51.656255      353.66537    
 407260000  -6.534728       48.562669      332.48508    
 407270000  -13.450187      41.722188      285.65162    
 407280000  -4.3370169      34.884229      238.83543    
 407290000  -10.908814      46.770404      320.21431    
 407300000  -0.12927767     42.805544      293.06883    
 407310000  -8.2429415      38.272546      262.0336     
 407320000  -12.38626       39.065094      267.45979    
 407330000   6.6647902      42.539755      291.24911    
 407340000  -3.6697315      51.763726      354.40117    
 407350000   7.649465       38.576764      264.11643    
 407360000  -3.8422716      46.263672      316.74497    
 407370000  -2.9784692      44.972325      307.90374    
 407380000  -17.888755      48.447364      331.69565    
 407390000  -10.887408      46.66163       319.46959    
 407400000  -15.989994      43.70342       299.21616    
 407410000  -9.6546237      43.848604      300.21016    
 407420000   2.0637775      41.163123      281.82397    
 407430000  -20.868863      44.180673      302.48368    
 407440000  -6.3445771      48.905836      334.83458    
 407450000  -7.8240914      36.838961      252.21853    
 407460000  -19.356695      41.716579      285.61322    
 407470000  -5.7858762      36.49656       249.87427    
 407480000  -5.4089816      44.610026      305.42325    
 407490000  -15.680152      39.785004      272.38866    
 407500000  -12.969593      41.748255      285.83009    
 407510000  -18.937396      43.776987      299.71983    
 407520000  -4.4932605      46.280063      316.85719    
 407530000  -4.5864351      44.784663      306.61891    
 407540000  -13.303464      41.074485      281.21711    
 407550000  -14.043679      44.560199      305.08211    
 407560000  -10.542574      50.914666      348.58807    
 407570000  -6.8681232      43.651551      298.86104    
 407580000  -16.810251      34.046312      233.09861    
 407590000  -22.960882      38.710189      265.02993    
 407600000  -14.24782       41.867099      286.64376    
 407610000  -8.7516986      41.939413      287.13886    
 407620000  -7.0099098      42.43878       290.55778    
 407630000  -20.031119      39.988662      273.78301    
 407640000  -18.401748      45.235447      309.7052     
 407650000  -8.2189044      36.572795      250.39622    
 407660000  -7.3821056      49.671766      340.07853    
 407670000  -6.8602421      42.429103      290.49153    
 407680000  -5.9974665      46.492881      318.31425    
 407690000  -14.397253      40.673156      278.46941    
 407700000  -17.798241      40.000486      273.86396    
 407710000  -19.70726       41.237755      282.33494    
 407720000  -21.127973      44.301031      303.30771    
 407730000  -13.423402      37.962724      259.91239    
 407740000  -11.903972      54.469027      372.92306    
 407750000  -9.4533274      48.758347      333.8248     
 407760000  -9.9656457      41.677399      285.34497    
 407770000  -10.55168       50.654577      346.80736    
 407780000  -6.9046635      37.098113      253.99282    
 407790000  -22.108188      42.238374      289.18569    
 407800000  -10.684092      46.446569      317.99717    
 407810000  -19.698025      43.699832      299.19159    
 407820000  -15.11259       46.838074      320.67762    
 407830000  -12.496666      57.027349      390.43865    
 407840000  -5.7531135      51.459115      352.31565    
 407850000  -6.037328       51.452456      352.27006    
 407860000  -13.629554      52.064227      356.45856    
 407870000  -9.6936932      53.624692      367.1423     
 407880000  -7.9463926      49.065574      335.92823    
 407890000  -10.705239      50.841894      348.08983    
 407900000  -9.9638639      47.273418      323.65821    
 407910000  -5.2962594      41.359686      283.16975    
 407920000  -13.335994      50.20088       343.70112    
 407930000  -17.475326      43.959611      300.97018    
 407940000  -21.311602      47.637208      326.1489     
 407950000  -1.7087975      39.658209      271.52056    
 407960000  -11.364956      42.87676       293.55642    
 407970000  -8.5402852      38.510855      263.66518    
 407980000  -14.376026      51.985862      355.92203    
 407990000  -10.358036      42.871354      293.51941    
 408000000  -6.949099       40.810041      279.40659    
Loop time of 130.24 on 1 procs for 4000000 steps with 50 atoms

Performance: 26535.728 ns/day, 0.001 hours/ns, 30712.648 timesteps/s, 1.536 Matom-step/s
99.2% CPU use with 1 MPI tasks x 1 OpenMP threads

MPI task timing breakdown:
Section |  min time  |  avg time  |  max time  |%varavg| %total
---------------------------------------------------------------
Pair    | 98.415     | 98.415     | 98.415     |   0.0 | 75.56
Bond    | 9.5207     | 9.5207     | 9.5207     |   0.0 |  7.31
Neigh   | 8.3013     | 8.3013     | 8.3013     |   0.0 |  6.37
Comm    | 8.675      | 8.675      | 8.675      |   0.0 |  6.66
Output  | 0.087327   | 0.087327   | 0.087327   |   0.0 |  0.07
Modify  | 4.6439     | 4.6439     | 4.6439     |   0.0 |  3.57
Other   |            | 0.5963     |            |       |  0.46

Nlocal:             50 ave          50 max          50 min
Histogram: 1 0 0 0 0 0 0 0 0 0
Nghost:              0 ave           0 max           0 min
Histogram: 1 0 0 0 0 0 0 0 0 0
Neighs:            341 ave         341 max         341 min
Histogram: 1 0 0 0 0 0 0 0 0 0

Total # of neighbors = 341
Ave neighs/atom = 6.82
Ave special neighs/atom = 5.76
Neighbor list builds = 8148
Dangerous builds = 0

write_data outputs_100/${tag}_final.data
write_data outputs_100/config_04_len50_04.dat_final.data
System init for write_data ...
Generated 0 of 6 mixed pair_coeff terms from geometric mixing rule
Total wall time: 2:28:12
