
# ===============================
# FORCE FIELD
# ===============================
bond_style harmonic
bond_coeff 1 7.5 5.9

angle_style harmonic
angle_coeff 1 5.0 150.0

pair_style hybrid/overlay lj/cut 10.0 base/rna 18.0
pair_modify shift yes
pair_coeff * * lj/cut 2.0 8.9089871814

# Base-pair interactions
pair_coeff 1 1 base/rna 0.00000 3.0 13.8 1.5 0.5 1.8326 0.9425 1.8326 1.1345
pair_coeff 1 2 base/rna 0.00000 3.0 13.8 1.5 0.5 1.8326 0.9425 1.8326 1.1345
pair_coeff 1 3 base/rna 0.00000 3.0 13.8 1.5 0.5 1.8326 0.9425 1.8326 1.1345
pair_coeff 1 4 base/rna 3.33333 3.0 13.8 1.5 0.5 1.8326 0.9425 1.8326 1.1345
pair_coeff 2 2 base/rna 0.00000 3.0 13.8 1.5 0.5 1.8326 0.9425 1.8326 1.1345
pair_coeff 2 3 base/rna 5.00000 3.0 13.8 1.5 0.5 1.8326 0.9425 1.8326 1.1345
pair_coeff 2 4 base/rna 0.00000 3.0 13.8 1.5 0.5 1.8326 0.9425 1.8326 1.1345
pair_coeff 3 3 base/rna 0.00000 3.0 13.8 1.5 0.5 1.8326 0.9425 1.8326 1.1345
pair_coeff 3 4 base/rna 3.33333 3.0 13.8 1.5 0.5 1.8326 0.9425 1.8326 1.1345
pair_coeff 4 4 base/rna 0.00000 3.0 13.8 1.5 0.5 1.8326 0.9425 1.8326 1.1345

special_bonds lj 0.0 0.0 1.0
Finding 1-2 1-3 1-4 neighbors ...
  special bond factors lj:    0        0        1       
  special bond factors coul:  0        0        0       
     2 = max # of 1-2 neighbors
     2 = max # of 1-3 neighbors
     4 = max # of 1-4 neighbors
     6 = max # of special neighbors
  special bonds CPU = 0.000 seconds
neighbor 15.0 bin
neigh_modify every 10 delay 0
comm_style tiled
timestep 10

# ===============================
# DUMPS
# ===============================
dump d1 all custom ${dump_stride} outputs_100/${tag}.lammpstrj id mol type q xu yu zu
dump d1 all custom 50000 outputs_100/${tag}.lammpstrj id mol type q xu yu zu
dump d1 all custom 50000 outputs_100/config_02_len50_02.dat.lammpstrj id mol type q xu yu zu
dump_modify d1 sort id

# ===============================
# THERMO
# ===============================
thermo_style custom step pe ke temp
thermo ${thermo_stride}
thermo 10000
thermo_modify flush yes

variable vpe equal pe
variable vke equal ke
variable vT  equal temp

fix fa all ave/time ${thermo_stride} 10 ${stride10} v_vpe v_vke v_vT file outputs_100/thermo_${tag}_averaged.dat
fix fa all ave/time 10000 10 ${stride10} v_vpe v_vke v_vT file outputs_100/thermo_${tag}_averaged.dat
fix fa all ave/time 10000 10 100000 v_vpe v_vke v_vT file outputs_100/thermo_${tag}_averaged.dat
fix fa all ave/time 10000 10 100000 v_vpe v_vke v_vT file outputs_100/thermo_config_02_len50_02.dat_averaged.dat

# ===============================
# EQUILIBRATION (40 ns)
# ===============================
fix fxnve all nve
variable seed0 equal 43001
fix fxl all langevin ${T_eq} ${T_eq} 100000.0 ${seed0}
fix fxl all langevin 298 ${T_eq} 100000.0 ${seed0}
fix fxl all langevin 298 298 100000.0 ${seed0}
fix fxl all langevin 298 298 100000.0 43001

run ${n_eq}
run 4000000

CITE-CITE-CITE-CITE-CITE-CITE-CITE-CITE-CITE-CITE-CITE-CITE-CITE

Your simulation uses code contributions which should be cited:

- Type Label Framework: https://doi.org/10.1021/acs.jpcb.3c08419

@Article{Gissinger24,
 author = {Jacob R. Gissinger, Ilia Nikiforov, Yaser Afshar, Brendon Waters, Moon-ki Choi, Daniel S. Karls, Alexander Stukowski, Wonpil Im, Hendrik Heinz, Axel Kohlmeyer, and Ellad B. Tadmor},
 title = {Type Label Framework for Bonded Force Fields in LAMMPS},
 journal = {J. Phys. Chem. B},
 year =    2024,
 volume =  128,
 number =  13,
 pages =   {3282–-3297}
}

CITE-CITE-CITE-CITE-CITE-CITE-CITE-CITE-CITE-CITE-CITE-CITE-CITE

Generated 0 of 6 mixed pair_coeff terms from geometric mixing rule
Neighbor list info ...
  update: every = 10 steps, delay = 0 steps, check = yes
  max neighbors/atom: 2000, page size: 100000
  master list distance cutoff = 33
  ghost atom cutoff = 33
  binsize = 16.5, bins = 61 61 61
  2 neighbor lists, perpetual/occasional/extra = 2 0 0
  (1) pair lj/cut, perpetual, trim from (2)
      attributes: half, newton on, cut 25
      pair build: trim
      stencil: none
      bin: none
  (2) pair base/rna, perpetual
      attributes: half, newton on
      pair build: half/bin/newton
      stencil: half/bin/3d
      bin: standard
Per MPI rank memory allocation (min/avg/max) = 8.368 | 8.368 | 8.368 Mbytes
   Step         PotEng         KinEng          Temp     
         0   65.797361      0              0            
     10000   24.197768      52.501792      359.45435    
     20000   25.389218      43.772343      299.68804    
     30000   24.049086      35.898516      245.77976    
     40000   26.708489      55.182773      377.80973    
     50000   25.449969      58.484935      400.41804    
     60000   20.198697      55.122359      377.3961     
     70000   17.82911       52.427722      358.94723    
     80000   12.269822      39.971767      273.66734    
     90000   10.822901      49.269687      337.32569    
    100000   10.572845      49.436074      338.46487    
    110000   3.4649116      42.174622      288.74922    
    120000   16.753591      40.802307      279.35364    
    130000   11.648499      43.353569      296.8209     
    140000   7.9992296      44.24015       302.89089    
    150000   0.75003263     42.895029      293.6815     
    160000   10.683019      45.140804      309.05723    
    170000   28.648593      50.197963      343.68115    
    180000   35.151593      36.040944      246.75489    
    190000   27.049625      44.540102      304.94451    
    200000   22.570932      49.250434      337.19387    
    210000   18.11795       44.828102      306.91631    
    220000   19.466204      40.175679      275.06342    
    230000   0.86528752     46.856963      320.80694    
    240000   4.768923       38.334101      262.45503    
    250000  -1.0340444      45.012123      308.17621    
    260000  -5.7591167      50.327649      344.56905    
    270000   2.2598285      52.802777      361.51505    
    280000  -5.3335488      45.610759      312.27479    
    290000  -4.3417738      40.319279      276.04658    
    300000  -1.4978524      36.244567      248.149      
    310000  -11.451667      42.314688      289.70818    
    320000  -1.526978       38.021001      260.31138    
    330000  -7.3607903      36.086282      247.0653     
    340000  -3.2681136      43.468223      297.60588    
    350000   3.6648528      34.242883      234.44444    
    360000  -3.3962967      44.363421      303.73487    
    370000  -1.1929791      46.311871      317.07496    
    380000  -7.5873225      47.431958      324.74365    
    390000   3.6444819      42.299184      289.60204    
    400000  -5.7339426      46.281741      316.86867    
    410000  -5.0781903      42.433734      290.52323    
    420000  -8.0062382      46.163153      316.05676    
    430000   1.3494933      42.063674      287.98961    
    440000   4.304514       43.504593      297.85489    
    450000   0.87666984     49.340706      337.81192    
    460000  -8.6532512      51.367838      351.69072    
    470000   14.968114      43.471699      297.62968    
    480000   9.3293106      42.889705      293.64504    
    490000   2.5274667      38.873416      266.14746    
    500000   2.8057435      53.363995      365.35744    
    510000   14.477611      46.974929      321.61459    
    520000   15.120837      42.487556      290.89172    
    530000   7.1574686      31.891522      218.34581    
    540000  -14.737492      48.763731      333.86166    
    550000  -14.210177      52.892177      362.12713    
    560000  -6.7806075      35.947522      246.11528    
    570000  -20.890737      45.755583      313.26632    
    580000  -21.40777       41.156372      281.77775    
    590000  -8.8372029      38.455131      263.28367    
    600000  -0.57020648     37.708526      258.17202    
    610000  -10.889911      38.552494      263.95026    
    620000  -12.634279      44.376768      303.82625    
    630000  -8.2198269      44.87671       307.24911    
    640000   3.5159021      46.074815      315.45195    
    650000   3.6042156      50.51498       345.85161    
    660000   5.0662295      48.158817      329.7201     
    670000  -0.50412009     47.432204      324.74534    
    680000  -10.56961       38.403666      262.93131    
    690000  -10.37458       44.868794      307.19491    
    700000  -8.7353676      46.412717      317.7654     
    710000  -11.55872       41.558408      284.5303     
    720000  -16.427989      45.336169      310.3948     
    730000  -7.7108614      50.193439      343.65017    
    740000  -2.6230224      52.472788      359.25578    
    750000   3.1414565      48.016532      328.74594    
    760000  -12.767976      34.55618       236.58943    
    770000  -18.63664       36.524424      250.06505    
    780000  -20.060489      42.063242      287.98666    
    790000  -15.658683      47.890311      327.88177    
    800000  -9.9421539      51.061474      349.59319    
    810000  -2.858506       51.355976      351.6095     
    820000   0.26368812     42.532569      291.19991    
    830000  -18.038039      35.782715      244.98693    
    840000  -2.3689347      52.275039      357.90188    
    850000  -2.7746506      42.759708      292.75502    
    860000  -7.4613373      48.440604      331.64936    
    870000  -4.2630412      45.058575      308.49425    
    880000   3.8492589      40.824279      279.50407    
    890000   0.95062453     42.805939      293.07154    
    900000   2.39484        51.565671      353.04519    
    910000  -12.66406       41.160417      281.80545    
    920000  -17.911999      48.666926      333.19888    
    930000  -15.001475      44.996666      308.07039    
    940000  -0.80527627     46.550156      318.70638    
    950000   0.54312731     43.837241      300.13236    
    960000   3.0423636      56.510242      386.89827    
    970000   4.592813       51.275192      351.05641    
    980000   2.9270436      47.821831      327.41292    
    990000  -9.8696838      36.875328      252.46752    
   1000000  -0.46140958     39.380305      269.61788    
   1010000  -4.1846262      42.488901      290.90093    
   1020000  -8.879788       50.166156      343.46338    
   1030000   1.2006273      58.681001      401.7604     
   1040000  -5.0059807      48.948332      335.12553    
   1050000  -12.322374      52.065584      356.46785    
   1060000   0.71561626     41.840396      286.46093    
   1070000  -8.9622901      42.58972       291.59119    
   1080000  -11.195375      35.30582       241.72185    
   1090000  -8.7214775      48.428417      331.56592    
   1100000  -6.11107        40.027461      274.04865    
   1110000  -9.6083439      47.4702        325.00548    
   1120000  -2.9067855      37.938683      259.7478     
   1130000  -12.632195      43.981838      301.12235    
   1140000  -3.4449631      35.066774      240.08523    
   1150000  -12.50388       43.871865      300.36942    
   1160000  -2.9177524      44.542768      304.96277    
   1170000   3.3439536      40.923803      280.18547    
   1180000  -9.909273       41.47504       283.95952    
   1190000  -3.7566037      39.290283      269.00154    
   1200000  -3.0364705      40.909568      280.08801    
   1210000  -8.3531791      49.28115       337.40418    
   1220000  -9.6452644      41.632586      285.03816    
   1230000   1.8727503      47.36592       324.29152    
   1240000  -7.6969861      43.342743      296.74678    
   1250000  -8.2851759      39.744641      272.11231    
   1260000  -10.220488      49.789325      340.8834     
   1270000  -9.5381736      42.68353       292.23347    
   1280000   1.191762       39.208591      268.44224    
   1290000  -11.154624      47.076583      322.31057    
   1300000  -13.751406      39.978618      273.71424    
   1310000  -11.281175      38.104657      260.88414    
   1320000  -9.3116122      48.251945      330.35771    
   1330000  -10.281618      43.902061      300.57615    
   1340000  -10.666899      39.747279      272.13037    
   1350000  -7.0207971      37.05169       253.67498    
   1360000  -9.8562571      43.644977      298.81602    
   1370000  -4.534153       41.310705      282.8344     
   1380000  -9.877217       42.829517      293.23297    
   1390000  -10.891184      41.015273      280.81172    
   1400000  -14.777522      50.949128      348.82401    
   1410000  -3.4190569      47.072823      322.28483    
   1420000  -7.6743569      42.487847      290.89372    
   1430000  -10.897321      48.177403      329.84735    
   1440000  -6.3986546      43.548188      298.15336    
   1450000  -8.2282414      42.361715      290.03016    
   1460000  -0.73850912     36.37655       249.05263    
   1470000  -15.26266       50.019437      342.45887    
   1480000  -21.473058      44.743579      306.33763    
   1490000  -18.043165      39.820336      272.63056    
   1500000  -8.8255709      44.430812      304.19626    
   1510000  -5.9343489      42.842756      293.32361    
   1520000   1.4451095      47.03493       322.0254     
   1530000   7.2097101      41.186905      281.9868     
   1540000   0.071619961    49.665549      340.03597    
   1550000  -1.1102236      50.007082      342.37428    
   1560000   9.2989469      45.264877      309.9067     
   1570000   1.5705312      44.71361       306.13244    
   1580000   0.8389614      41.289437      282.68878    
   1590000   6.0782126      40.643954      278.26948    
   1600000   12.425129      42.747987      292.67477    
   1610000   0.17067705     38.369947      262.70045    
   1620000  -3.0629992      44.292653      303.25035    
   1630000  -12.670054      48.080015      329.18059    
   1640000   1.0874426      42.946305      294.03256    
   1650000  -5.6783967      42.551244      291.32777    
   1660000  -15.928634      45.349159      310.48373    
   1670000  -5.8567617      38.471203      263.3937     
   1680000  -7.7144306      47.549487      325.54831    
   1690000  -3.7112075      37.717889      258.23612    
   1700000   1.5087007      45.252999      309.82538    
   1710000  -2.6308997      40.245002      275.53804    
   1720000  -11.17326       44.854005      307.09366    
   1730000  -1.352632       40.467024      277.05812    
   1740000  -8.4414183      53.679958      367.52068    
   1750000  -2.4588785      48.926761      334.97784    
   1760000   10.178846      51.485602      352.49699    
   1770000   7.8857916      55.364019      379.05063    
   1780000   22.114104      47.570531      325.69239    
   1790000   17.551887      46.657047      319.43821    
   1800000   11.033527      52.772445      361.30738    
   1810000   14.486609      41.815463      286.29023    
   1820000  -3.7848011      54.784218      375.08102    
   1830000  -1.4367318      46.334671      317.23106    
   1840000  -5.4508268      46.393597      317.6345     
   1850000  -6.0648293      52.941851      362.46722    
   1860000  -8.4820671      50.600705      346.43853    
   1870000   7.598395       38.86617       266.09785    
   1880000   0.98593512     36.887495      252.55082    
   1890000   10.139226      50.119968      343.14715    
   1900000   10.306276      51.85344       355.0154     
   1910000  -3.8143959      42.406263      290.33515    
   1920000  -11.737162      37.046632      253.64035    
   1930000  -4.3679017      41.996532      287.52992    
   1940000  -4.1346679      38.253221      261.90128    
   1950000  -7.0066317      45.408128      310.88747    
   1960000  -5.2874952      51.602479      353.29719    
   1970000  -2.8153454      41.521114      284.27496    
   1980000  -13.872294      59.649068      408.38829    
   1990000  -2.5601758      50.702598      347.13614    
   2000000  -3.5863153      52.986127      362.77036    
   2010000  -2.9454726      42.264101      289.36184    
   2020000  -2.59249        53.211884      364.31601    
   2030000  -4.8268047      52.463941      359.19521    
   2040000   2.4422014      39.968411      273.64436    
   2050000   0.31550207     47.735059      326.81884    
   2060000   0.34311163     43.198992      295.76258    
   2070000   2.6630851      38.836448      265.89436    
   2080000  -6.4248529      53.443962      365.90494    
   2090000   2.6548288      41.011303      280.78454    
   2100000  -12.208665      45.257826      309.85842    
   2110000   0.089874983    48.156222      329.70234    
   2120000  -7.9135413      49.030761      335.68988    
   2130000  -4.5231913      40.18123       275.10143    
   2140000   2.4399606      46.36472       317.43679    
   2150000   9.0852009      47.272743      323.65358    
   2160000   5.9991524      43.856232      300.26239    
   2170000  -1.7887515      37.923305      259.64251    
   2180000   0.2517692      38.595998      264.24811    
   2190000  -4.6367278      40.720061      278.79054    
   2200000   2.9505729      43.533842      298.05514    
   2210000   6.3434775      47.375957      324.36024    
   2220000  -2.6174259      52.262817      357.81821    
   2230000   2.4119774      51.053066      349.53562    
   2240000  -8.6650366      46.822842      320.57333    
   2250000  -5.5507147      48.153518      329.68382    
   2260000  -11.837355      47.494996      325.17524    
   2270000  -14.926514      46.008916      315.00077    
   2280000  -5.2090024      43.46531       297.58594    
   2290000   8.6442912      36.61539       250.68785    
   2300000  -0.16277909     45.404029      310.8594     
   2310000   11.872611      43.974093      301.06933    
   2320000   2.1335521      56.156395      384.47565    
   2330000   3.4492585      54.547292      373.4589     
   2340000   1.1209331      45.181189      309.33373    
   2350000  -13.364952      45.082346      308.657      
   2360000  -12.109975      37.873412      259.30091    
   2370000  -1.4149085      42.241558      289.20749    
   2380000  -2.964737       36.078346      247.01097    
   2390000  -2.4109339      39.792627      272.44085    
   2400000  -10.936651      37.981677      260.04215    
   2410000  -9.9207387      39.196418      268.35889    
   2420000  -6.1142687      44.995359      308.06144    
   2430000   3.6795633      44.573688      305.17446    
   2440000   1.9546927      40.466778      277.05644    
   2450000  -5.4971508      36.243603      248.1424     
   2460000  -6.4024916      45.554269      311.88802    
   2470000  -12.056978      45.705042      312.92029    
   2480000  -6.7545579      47.948405      328.27952    
   2490000  -12.959087      50.27896       344.2357     
   2500000  -10.549939      39.10403       267.72636    
   2510000  -13.188724      50.481071      345.61945    
   2520000  -7.4581432      48.116296      329.42898    
   2530000  -4.2504284      45.122834      308.9342     
   2540000   11.189533      46.71404       319.82841    
   2550000  -0.31280529     53.717766      367.77954    
   2560000   1.3072571      43.831451      300.09273    
   2570000  -1.7542183      41.131092      281.60467    
   2580000  -1.1449567      51.792207      354.59617    
   2590000   3.2316514      40.61659       278.08213    
   2600000  -6.0419032      40.08215       274.42307    
   2610000   1.3729408      47.676221      326.416      
   2620000   0.7944071      42.986245      294.30601    
   2630000   1.2316458      51.19913       350.53565    
   2640000   3.9539086      49.394574      338.18074    
   2650000   5.0331292      39.258186      268.78179    
   2660000   0.58973984     47.071056      322.27273    
   2670000   10.178324      49.222589      337.00323    
   2680000  -0.22166385     46.367693      317.45715    
   2690000  -0.55432634     37.056911      253.71073    
   2700000  -9.7079236      36.343001      248.82293    
   2710000  -11.035366      38.677503      264.80613    
   2720000   3.9405664      49.98241       342.20536    
   2730000   11.848197      41.376606      283.28559    
   2740000   10.662656      47.781793      327.1388     
   2750000   14.285789      45.6025        312.21824    
   2760000   17.701042      45.49373       311.47354    
   2770000   16.059581      47.340395      324.11676    
   2780000   18.468756      44.991743      308.03668    
   2790000  -1.1466215      48.29455       330.6494     
   2800000   4.6337782      42.468206      290.75924    
   2810000   0.58117601     43.873307      300.37929    
   2820000   5.0348363      39.032365      267.2357     
   2830000  -7.7572301      39.458899      270.15598    
   2840000  -5.0829239      30.197473      206.74748    
   2850000  -5.2370204      49.050422      335.82449    
   2860000  -4.8887144      35.764629      244.8631     
   2870000   1.5311341      59.363104      406.43043    
   2880000   0.9402103      45.867046      314.02946    
   2890000  -4.6694224      40.003751      273.88631    
   2900000   1.73456        44.213669      302.70959    
   2910000  -0.34106395     49.238984      337.11549    
   2920000   8.2639703      46.102881      315.64411    
   2930000  -1.6143431      53.335128      365.1598     
   2940000   12.503553      53.119         363.68008    
   2950000  -2.5587094      50.429867      345.26889    
   2960000  -4.4301428      40.203667      275.25504    
   2970000  -2.1812294      45.603045      312.22197    
   2980000   2.4286027      44.93798       307.6686     
   2990000  -0.48085413     43.065813      294.85077    
   3000000  -11.616917      48.248638      330.33506    
   3010000  -20.468399      45.056166      308.47775    
   3020000  -19.049678      36.763838      251.7042     
   3030000  -2.393108       47.719091      326.70952    
   3040000  -3.3254509      42.869031      293.5035     
   3050000  -6.5664776      45.288153      310.06606    
   3060000  -14.231674      35.694517      244.38308    
   3070000  -1.8966784      36.057633      246.86916    
   3080000  -6.5035662      46.206122      316.35095    
   3090000  -4.0524094      49.843471      341.25411    
   3100000  -9.4066642      42.299124      289.60162    
   3110000  -10.568722      46.263978      316.74706    
   3120000  -11.193723      48.089629      329.24641    
   3130000  -4.0264814      41.092298      281.33907    
   3140000   1.5622708      40.77688       279.17956    
   3150000  -7.5327143      42.625402      291.83549    
   3160000   4.3003616      39.112233      267.78252    
   3170000  -6.0607196      43.34712       296.77674    
   3180000  -8.7147828      41.196117      282.04987    
   3190000  -12.174588      48.986392      335.38611    
   3200000  -7.879268       39.691596      271.74914    
   3210000  -10.860801      35.119056      240.44318    
   3220000  -6.9145472      42.786442      292.93805    
   3230000  -2.8199994      34.030214      232.9884     
   3240000  -1.1608811      42.531033      291.18939    
   3250000  -5.0042365      42.97131       294.20375    
   3260000   5.5670268      45.675304      312.71669    
   3270000  -6.5230222      48.787061      334.02139    
   3280000   15.12741       33.395612      228.64358    
   3290000   3.2308184      36.491519      249.83976    
   3300000  -6.3141836      49.451409      338.56986    
   3310000   1.45153        42.673612      292.16556    
   3320000   5.8151331      51.14952       350.196      
   3330000  -1.1775706      46.261903      316.73285    
   3340000   8.1232699      46.118724      315.75257    
   3350000  -4.975184       47.361738      324.26289    
   3360000  -7.0345477      49.598032      339.57372    
   3370000  -0.23240155     34.946529      239.26196    
   3380000  -3.6984465      46.668691      319.51793    
   3390000  -1.4026906      36.953966      253.00591    
   3400000  -8.1229261      48.942728      335.08716    
   3410000  -8.7562606      46.43212       317.89825    
   3420000  -19.049962      42.917047      293.83224    
   3430000   0.18976356     34.424643      235.68887    
   3440000  -11.456821      51.683981      353.8552     
   3450000  -2.3560987      41.390276      283.37918    
   3460000  -6.1821856      39.017909      267.13673    
   3470000  -7.1661314      43.440025      297.41282    
   3480000  -9.9536001      43.113137      295.17477    
   3490000  -10.136242      49.798966      340.94941    
   3500000  -10.910989      45.714145      312.98262    
   3510000  -5.7379292      36.160916      247.57629    
   3520000  -4.310886       36.687453      251.18123    
   3530000   2.365103       40.269722      275.70729    
   3540000  -17.188107      42.487591      290.89197    
   3550000  -6.7050745      52.010556      356.0911     
   3560000  -1.7654373      39.784         272.38179    
   3570000  -10.83335       50.959477      348.89487    
   3580000   5.4375398      41.177378      281.92157    
   3590000  -8.9009783      45.650214      312.54491    
   3600000   4.4388207      36.667332      251.04347    
   3610000  -0.33784326     37.787958      258.71586    
   3620000  -6.7744301      44.089514      301.85956    
   3630000  -8.9110799      40.819579      279.4719     
   3640000  -2.5294788      38.626041      264.4538     
   3650000  -8.0422698      41.105845      281.43182    
   3660000  -16.054034      40.617813      278.0905     
   3670000  -11.938748      47.984181      328.52445    
   3680000  -7.9398546      37.677282      257.95811    
   3690000   6.5327519      37.191273      254.63064    
   3700000  -9.4362171      48.966359      335.24895    
   3710000  -0.30872654     40.834463      279.5738     
   3720000  -0.53406485     38.838783      265.91034    
   3730000  -6.2385089      44.069915      301.72537    
   3740000  -4.6815273      55.926654      382.90272    
   3750000  -7.6299392      50.488352      345.6693     
   3760000  -5.9409219      50.666551      346.88935    
   3770000  -6.8957494      54.782823      375.07147    
   3780000  -4.0430705      43.28718       296.36637    
   3790000  -1.9108725      51.230464      350.75019    
   3800000   5.9802981      33.923551      232.25813    
   3810000  -9.5370207      44.828112      306.91638    
   3820000   2.9682851      37.184468      254.58405    
   3830000  -3.4752717      47.165661      322.92045    
   3840000  -7.49884        49.130197      336.37067    
   3850000  -4.4135527      45.670671      312.68497    
   3860000   5.0410156      42.925824      293.89234    
   3870000  -0.0021770153   48.964605      335.23694    
   3880000   8.8700463      51.329922      351.43113    
   3890000   9.2489598      45.85985       313.98019    
   3900000   4.5998589      43.791474      299.81902    
   3910000   3.0328145      43.366949      296.91251    
   3920000   2.5049945      44.161061      302.34941    
   3930000   7.3154917      37.940863      259.76272    
   3940000   4.4558477      40.043127      274.1559     
   3950000   6.9843068      41.153548      281.75842    
   3960000   2.0501239      48.378721      331.22568    
   3970000  -4.0914606      51.17904       350.39811    
   3980000  -3.0405021      50.677597      346.96497    
   3990000  -9.5579846      46.921503      321.24881    
   4000000  -10.252784      44.679055      305.89586    
Loop time of 112.193 on 1 procs for 4000000 steps with 50 atoms

Performance: 30804.027 ns/day, 0.001 hours/ns, 35652.809 timesteps/s, 1.783 Matom-step/s
99.3% CPU use with 1 MPI tasks x 1 OpenMP threads

MPI task timing breakdown:
Section |  min time  |  avg time  |  max time  |%varavg| %total
---------------------------------------------------------------
Pair    | 93.403     | 93.403     | 93.403     |   0.0 | 83.25
Bond    | 10.259     | 10.259     | 10.259     |   0.0 |  9.14
Neigh   | 1.2076     | 1.2076     | 1.2076     |   0.0 |  1.08
Comm    | 1.8297     | 1.8297     | 1.8297     |   0.0 |  1.63
Output  | 0.071019   | 0.071019   | 0.071019   |   0.0 |  0.06
Modify  | 4.7418     | 4.7418     | 4.7418     |   0.0 |  4.23
Other   |            | 0.6808     |            |       |  0.61

Nlocal:             50 ave          50 max          50 min
Histogram: 1 0 0 0 0 0 0 0 0 0
Nghost:              3 ave           3 max           3 min
Histogram: 1 0 0 0 0 0 0 0 0 0
Neighs:            312 ave         312 max         312 min
Histogram: 1 0 0 0 0 0 0 0 0 0

Total # of neighbors = 312
Ave neighs/atom = 6.24
Ave special neighs/atom = 5.76
Neighbor list builds = 8564
Dangerous builds = 0

# ===============================
# MAIN SA LOOP — 10 cycles
# ===============================
variable c loop ${ncycle}
variable c loop 10
label cyc

  # Heat 298 → 500
  variable seedH equal 44000+${c}
  variable seedH equal 44000+1
  unfix fxl
  fix fxl all langevin ${T_eq} ${T_high} 100000.0 ${seedH}
  fix fxl all langevin 298 ${T_high} 100000.0 ${seedH}
  fix fxl all langevin 298 500 100000.0 ${seedH}
  fix fxl all langevin 298 500 100000.0 44001
  run ${n_heat}
  run 8000000
Generated 0 of 6 mixed pair_coeff terms from geometric mixing rule
Per MPI rank memory allocation (min/avg/max) = 9.625 | 9.625 | 9.625 Mbytes
   Step         PotEng         KinEng          Temp     
   4000000  -10.252784      44.679055      305.89586    
   4010000   0.025534337    42.190644      288.85891    
   4020000   8.384357       41.655585      285.19562    
   4030000  -1.1398255      46.651366      319.39932    
   4040000   12.949407      39.962023      273.60062    
   4050000  -2.6944903      39.775272      272.32203    
   4060000  -7.2484755      44.986019      307.99749    
   4070000  -15.016959      44.053148      301.61058    
   4080000  -4.8468594      39.463229      270.18562    
   4090000  -12.312912      50.013437      342.41779    
   4100000   2.9942154      51.202913      350.56155    
   4110000  -1.2572451      48.650222      333.08451    
   4120000  -0.68915671     46.876209      320.93871    
   4130000  -1.2109532      44.60048       305.35789    
   4140000  -10.575423      44.784804      306.61987    
   4150000  -10.998864      44.981718      307.96804    
   4160000   1.0894625      49.168187      336.63077    
   4170000  -5.5431233      50.448112      345.3938     
   4180000  -3.2853786      40.583318      277.85433    
   4190000  -12.7538        49.260601      337.26349    
   4200000  -9.7539063      41.579668      284.67586    
   4210000  -10.310324      47.558454      325.60971    
   4220000  -2.1190739      30.535225      209.0599     
   4230000  -1.6171554      47.627408      326.08181    
   4240000  -1.3020321      46.109095      315.68665    
   4250000   2.2339605      46.148044      315.95331    
   4260000  -7.9397806      49.830433      341.16485    
   4270000  -11.926467      43.190782      295.70637    
   4280000   2.1697512      38.81243       265.72992    
   4290000   9.7326383      42.847289      293.35464    
   4300000   4.1257366      42.654163      292.03241    
   4310000  -3.7905487      40.204693      275.26207    
   4320000   0.054261315    41.585778      284.71769    
   4330000   7.1058229      47.838498      327.52703    
   4340000   2.0297604      47.183607      323.04331    
   4350000  -6.8074667      39.390601      269.68837    
   4360000  -1.2158236      45.052616      308.45345    
   4370000  -0.33853662     43.917672      300.68304    
   4380000  -7.458914       39.064302      267.45437    
   4390000  -9.2616213      47.115523      322.57718    
   4400000   2.0499749      51.412066      351.99353    
   4410000  -3.6648046      40.298701      275.90569    
   4420000  -4.8926375      46.732203      319.95277    
   4430000   4.959596       46.577898      318.89631    
   4440000   6.0370368      41.327428      282.94889    
   4450000  -2.6234229      41.908709      286.92864    
   4460000   0.73991668     55.68111       381.2216     
   4470000  -2.4946863      48.138708      329.58243    
   4480000   8.74678        36.438573      249.47727    
   4490000  -2.0018044      47.994477      328.59495    
   4500000  -5.0929703      46.771277      320.22029    
   4510000  -2.2301139      49.094661      336.12737    
   4520000   4.0409796      45.577112      312.04442    
   4530000   3.8339479      53.386436      365.51108    
   4540000   0.05640924     48.614592      332.84057    
   4550000  -3.3023385      46.212895      316.39732    
   4560000  -0.60633472     43.126781      295.26819    
   4570000  -4.1969881      49.855309      341.33517    
   4580000  -2.6219499      46.504361      318.39285    
   4590000  -9.8971996      44.928698      307.60504    
   4600000  -12.898427      46.274109      316.81642    
   4610000  -4.9775677      51.917298      355.4526     
   4620000  -2.5411397      51.764468      354.40625    
   4630000   7.7266292      48.911764      334.87517    
   4640000   1.8695144      45.672164      312.6952     
   4650000  -1.131838       47.970831      328.43306    
   4660000  -8.1403677      45.498666      311.50734    
   4670000  -8.8313795      48.247471      330.32707    
   4680000  -4.3051741      46.090211      315.55736    
   4690000  -5.4042672      48.155893      329.70008    
   4700000  -8.2620001      41.923257      287.02824    
   4710000   2.7932701      45.873687      314.07492    
   4720000  -7.6911002      45.844333      313.87395    
   4730000  -5.1634624      46.631206      319.26129    
   4740000  -1.5112414      53.313755      365.01347    
   4750000  -0.23483915     57.118846      391.06509    
   4760000  -5.5550166      48.616986      332.85697    
   4770000  -10.799348      49.099517      336.16062    
   4780000  -4.0308169      42.938742      293.98078    
   4790000  -16.839429      46.020701      315.08146    
   4800000  -7.3662785      39.416167      269.86341    
   4810000  -9.0939033      44.170476      302.41386    
   4820000   4.5268516      45.57421       312.02455    
   4830000   14.695276      45.56062       311.93151    
   4840000   9.0891283      37.154531      254.37908    
   4850000   12.269805      41.255381      282.45562    
   4860000   19.064797      43.366087      296.9066     
   4870000   14.835621      55.335773      378.85725    
   4880000   20.442757      46.118687      315.75232    
   4890000   13.1561        46.708721      319.792      
   4900000   9.3450619      49.016296      335.59085    
   4910000   7.4550249      50.280072      344.24331    
   4920000   11.879849      47.525474      325.38391    
   4930000   18.100056      43.735254      299.43411    
   4940000   2.3558279      55.308186      378.66837    
   4950000   18.268014      44.030151      301.45312    
   4960000   17.37419       50.577547      346.27998    
   4970000   24.633758      44.234422      302.85167    
   4980000   22.0912        50.232777      343.91951    
   4990000   11.296274      44.747042      306.36133    
   5000000   5.2840508      40.599028      277.96189    
   5010000   8.8307288      51.717261      354.08305    
   5020000   2.3672491      50.222958      343.85228    
   5030000   5.5643373      48.232081      330.22171    
   5040000   18.344697      42.808515      293.08918    
   5050000   17.397646      44.188332      302.53611    
   5060000   7.1210032      48.92136       334.94087    
   5070000   12.286028      44.981482      307.96643    
   5080000   6.6672366      44.32955       303.50296    
   5090000   4.8254906      44.170552      302.41439    
   5100000   5.2010525      47.35768       324.2351     
   5110000   7.9247348      48.188635      329.92425    
   5120000   6.8463904      53.326318      365.09948    
   5130000   13.719222      48.818356      334.23564    
   5140000   2.7601117      50.797102      347.78316    
   5150000  -5.421789       45.692808      312.83653    
   5160000   2.1565762      38.918699      266.45749    
   5170000  -12.898484      49.558494      339.30301    
   5180000   8.6080887      44.899369      307.40424    
   5190000  -3.9765569      44.332036      303.51999    
   5200000   7.1372511      50.01716       342.44328    
   5210000   11.362508      46.674234      319.55589    
   5220000  -4.408254       45.079752      308.63923    
   5230000   12.384614      42.710468      292.41789    
   5240000   0.61904375     52.582259      360.00527    
   5250000  -12.111574      51.6496        353.61981    
   5260000  -6.8946518      45.753329      313.25089    
   5270000  -2.5484265      42.546577      291.29581    
   5280000  -4.5567182      53.117502      363.66982    
   5290000  -1.6069707      45.349947      310.48913    
   5300000   1.646928       48.242412      330.29244    
   5310000   7.2393211      46.688618      319.65437    
   5320000   16.754428      48.044677      328.93864    
   5330000   14.403025      45.687795      312.80222    
   5340000   13.772373      49.284896      337.42982    
   5350000   7.9184317      47.301076      323.84756    
   5360000   9.6357157      56.19803       384.7607     
   5370000   10.348723      53.35891       365.32262    
   5380000   15.077526      48.458711      331.77333    
   5390000   3.0409         54.779719      375.05022    
   5400000   8.0011833      48.449756      331.71203    
   5410000   18.670466      43.85309       300.24087    
   5420000   18.422351      43.561604      298.24521    
   5430000   12.776911      46.981043      321.65646    
   5440000   12.706476      58.795866      402.54683    
   5450000   13.364231      59.321367      406.14468    
   5460000   20.206177      55.503793      380.0076     
   5470000   22.586579      50.50709       345.79759    
   5480000   21.416937      63.057341      431.72309    
   5490000   26.759341      45.826813      313.754      
   5500000   20.322789      44.646236      305.67116    
   5510000   15.190781      50.780779      347.67141    
   5520000   9.8942846      52.106052      356.74491    
   5530000   13.229399      51.706185      354.00722    
   5540000   19.388463      45.823514      313.73142    
   5550000   13.445942      43.547871      298.15119    
   5560000   22.111413      45.045023      308.40146    
   5570000   25.48612       55.620855      380.80907    
   5580000   28.013251      45.934859      314.49374    
   5590000   28.597554      47.487923      325.12682    
   5600000   20.618127      57.18013       391.48467    
   5610000   19.289844      47.508651      325.26873    
   5620000   20.962652      55.545624      380.29399    
   5630000   13.50926       53.57265       366.786      
   5640000   21.057035      51.672402      353.77592    
   5650000   16.129791      49.917603      341.76166    
   5660000   18.537288      39.943387      273.47303    
   5670000   11.671771      55.633195      380.89355    
   5680000   24.024956      52.087879      356.62049    
   5690000   1.7919861      56.421123      386.28811    
   5700000   6.2450005      50.330782      344.5905     
   5710000   7.759286       48.861176      334.52882    
   5720000   10.981035      48.913385      334.88627    
   5730000   0.41927284     54.303264      371.78816    
   5740000   14.544691      61.619475      421.87871    
   5750000   28.200685      50.949189      348.82443    
   5760000   17.320638      57.283368      392.19149    
   5770000   13.688349      45.227665      309.65192    
   5780000   5.7693643      44.943122      307.7038     
   5790000   14.359291      40.222124      275.38141    
   5800000   17.632965      45.968572      314.72456    
   5810000   12.725914      50.552151      346.1061     
   5820000   4.3689051      46.250854      316.65721    
   5830000   3.8655852      39.650268      271.46619    
   5840000   5.0881131      46.943217      321.39748    
   5850000   7.8586426      51.868402      355.11784    
   5860000   20.551006      50.945775      348.80106    
   5870000   24.160666      47.829555      327.46581    
   5880000   19.179042      56.911398      389.64479    
   5890000   20.242452      56.263427      385.20845    
   5900000   21.875866      50.659563      346.8415     
   5910000   6.630704       65.145209      446.01771    
   5920000   15.009164      50.001785      342.33801    
   5930000   18.82651       48.541113      332.3375     
   5940000   17.647766      45.404071      310.85969    
   5950000   16.950749      49.194592      336.81156    
   5960000   9.7800591      51.156327      350.2426     
   5970000   9.0267673      42.680087      292.20989    
   5980000  -5.2713707      57.980161      396.96209    
   5990000  -3.2448117      58.440279      400.1123     
   6000000   20.193144      43.299457      296.45042    
   6010000   16.387383      53.961345      369.44721    
   6020000  -1.6718498      52.103478      356.72729    
   6030000   10.115396      44.903999      307.43594    
   6040000  -5.8098709      51.491233      352.53554    
   6050000   24.301369      44.664995      305.7996     
   6060000   13.658779      49.542468      339.19329    
   6070000   23.810001      62.862474      430.38892    
   6080000   37.634566      60.98222       417.51574    
   6090000   33.689763      53.181921      364.11087    
   6100000   27.994955      62.700222      429.27807    
   6110000   31.397679      57.233764      391.85187    
   6120000   32.575328      55.137333      377.49863    
   6130000   22.117703      43.803677      299.90257    
   6140000   5.4062323      57.81773       395.85001    
   6150000   10.817318      49.263671      337.2845     
   6160000   23.687451      47.663545      326.32922    
   6170000   22.861863      57.860556      396.14321    
   6180000   21.318399      59.559325      407.77386    
   6190000   31.960463      46.798446      320.4063     
   6200000   25.995421      53.403405      365.62726    
   6210000   29.212366      51.595904      353.25217    
   6220000   33.217582      52.477191      359.28592    
   6230000   27.68862       53.564786      366.73216    
   6240000   35.728474      53.744795      367.96459    
   6250000   32.256268      55.415539      379.40336    
   6260000   38.540309      39.946441      273.49394    
   6270000   32.635571      59.336092      406.2455     
   6280000   25.028977      50.088747      342.9334     
   6290000   33.893528      44.55437       305.0422     
   6300000   36.851059      50.885043      348.38525    
   6310000   29.987481      60.132291      411.69668    
   6320000   30.459185      57.136471      391.18575    
   6330000   29.81898       48.37348       331.1898     
   6340000   26.509309      62.191337      425.79397    
   6350000   33.205655      48.298009      330.67309    
   6360000   31.422181      59.440884      406.96296    
   6370000   28.583475      56.706267      388.24035    
   6380000   32.216563      57.424508      393.15781    
   6390000   34.700233      46.67753       319.57845    
   6400000   35.127667      60.470736      414.01385    
   6410000   30.962956      59.596503      408.0284     
   6420000   26.124174      50.987431      349.08625    
   6430000   40.554598      48.201217      330.0104     
   6440000   45.320387      53.321853      365.06891    
   6450000   32.916159      51.510568      352.66792    
   6460000   38.555897      45.65892       312.60452    
   6470000   26.528239      52.981158      362.73634    
   6480000   32.00518       49.329739      337.73684    
   6490000   32.283331      57.489428      393.60228    
   6500000   30.987192      53.060501      363.27956    
   6510000   27.671841      63.999821      438.17579    
   6520000   35.367382      51.904803      355.36706    
   6530000   30.228301      68.393107      468.25449    
   6540000   36.00062       59.121847      404.77866    
   6550000   44.337614      50.320359      344.51914    
   6560000   32.775654      49.186237      336.75435    
   6570000   28.239078      56.297761      385.44351    
   6580000   40.909769      57.702919      395.06395    
   6590000   35.125162      59.886581      410.01442    
   6600000   37.733845      58.232052      398.68667    
   6610000   32.682243      51.650169      353.6237     
   6620000   35.505993      54.839903      375.46226    
   6630000   36.423506      57.878597      396.26673    
   6640000   42.491062      50.579739      346.29498    
   6650000   29.938902      54.829271      375.38947    
   6660000   33.342091      55.790569      381.97102    
   6670000   35.206542      57.71343       395.13591    
   6680000   32.871645      57.964364      396.85394    
   6690000   36.082686      53.23679       364.48653    
   6700000   32.157819      49.637338      339.84282    
   6710000   42.1432        54.277887      371.61441    
   6720000   33.816007      45.895205      314.22225    
   6730000   30.961895      55.969387      383.1953     
   6740000   34.008212      49.083696      336.0523     
   6750000   30.99305       55.000848      376.56418    
   6760000   19.563973      55.068529      377.02756    
   6770000   25.985396      51.898668      355.32505    
   6780000   24.476509      45.634083      312.43447    
   6790000   14.068979      56.538455      387.09143    
   6800000   18.454907      55.032177      376.77867    
   6810000   29.678711      61.002662      417.65569    
   6820000   36.094381      62.360995      426.95554    
   6830000   38.12473       54.368013      372.23147    
   6840000   36.832868      48.67157       333.23068    
   6850000   34.259411      59.496971      407.34695    
   6860000   43.177717      53.206         364.27572    
   6870000   37.504496      49.945591      341.95328    
   6880000   31.606143      58.565186      400.96747    
   6890000   36.444825      57.303449      392.32897    
   6900000   47.397967      64.25198       439.9022     
   6910000   35.938597      50.341658      344.66496    
   6920000   33.820856      53.377863      365.45239    
   6930000   34.29016       63.294665      433.34793    
   6940000   39.503614      49.97651       342.16497    
   6950000   23.465082      49.437668      338.47577    
   6960000   31.229843      58.296235      399.1261     
   6970000   24.717697      57.613198      394.44967    
   6980000   35.60506       60.438881      413.79576    
   6990000   27.123027      52.876271      362.01823    
   7000000   24.078034      43.9957        301.21726    
   7010000   23.096698      54.009182      369.77472    
   7020000   18.543783      57.260964      392.0381     
   7030000   29.436418      49.113636      336.25729    
   7040000   36.034586      50.915145      348.59135    
   7050000   37.502967      59.924161      410.27172    
   7060000   35.927305      56.377572      385.98994    
   7070000   38.812531      54.542683      373.42734    
   7080000   36.733569      59.497351      407.34955    
   7090000   38.966643      63.581454      435.31143    
   7100000   41.137312      65.592167      449.07781    
   7110000   37.253166      63.235372      432.94198    
   7120000   33.496526      55.042265      376.84774    
   7130000   34.123264      47.970632      328.43169    
   7140000   30.346296      59.191436      405.25511    
   7150000   35.666229      55.080212      377.10754    
   7160000   30.46923       58.996304      403.91913    
   7170000   41.051746      50.613459      346.52585    
   7180000   27.034845      61.658463      422.14565    
   7190000   48.271647      58.599124      401.19983    
   7200000   38.08104       56.405708      386.18257    
   7210000   32.460881      59.092702      404.57912    
   7220000   36.064755      53.325622      365.09472    
   7230000   32.857601      46.08607       315.52901    
   7240000   36.177766      50.713714      347.21225    
   7250000   34.156129      62.695689      429.24703    
   7260000   40.457329      61.480994      420.9306     
   7270000   32.933074      65.068728      445.49407    
   7280000   34.586954      52.157394      357.09642    
   7290000   32.454471      57.552269      394.03253    
   7300000   34.781391      57.717794      395.16579    
   7310000   38.198442      63.100164      432.01628    
   7320000   34.424492      49.041296      335.76201    
   7330000   39.702994      42.953917      294.08467    
   7340000   35.673139      48.516016      332.16567    
   7350000   46.70555       59.052245      404.30213    
   7360000   38.040257      54.835449      375.43177    
   7370000   41.276843      61.799654      423.11231    
   7380000   33.971485      54.043478      370.00953    
   7390000   39.114738      63.344439      433.68871    
   7400000   37.643976      69.738684      477.467      
   7410000   41.53035       68.836754      471.29193    
   7420000   36.975205      51.775795      354.4838     
   7430000   40.754722      50.321305      344.52561    
   7440000   29.295574      65.448444      448.09381    
   7450000   40.537519      55.552794      380.34308    
   7460000   24.859673      63.865818      437.25833    
   7470000   32.080401      67.145216      459.71078    
   7480000   36.02447       60.584779      414.79465    
   7490000   43.106473      58.828284      402.76878    
   7500000   44.839627      57.564673      394.11745    
   7510000   40.967289      47.726965      326.76342    
   7520000   42.958879      49.889448      341.5689     
   7530000   37.251665      52.60308       360.14782    
   7540000   40.154707      54.007322      369.76199    
   7550000   41.08784       62.026341      424.66433    
   7560000   34.122826      48.684244      333.31745    
   7570000   38.746107      47.362866      324.27061    
   7580000   35.924354      57.793117      395.68149    
   7590000   25.944059      61.623711      421.90771    
   7600000   31.758348      47.547311      325.53342    
   7610000   35.321838      45.138706      309.04287    
   7620000   34.817084      70.710676      484.12177    
   7630000   34.02894       73.34207       502.13765    
   7640000   31.706015      65.44874       448.09584    
   7650000   30.084181      65.142662      446.00027    
   7660000   39.541146      52.877998      362.03005    
   7670000   36.904113      57.18237       391.5        
   7680000   40.396219      54.373183      372.26686    
   7690000   32.902607      65.457552      448.15617    
   7700000   39.422794      58.050885      397.4463     
   7710000   40.102649      66.240148      453.51422    
   7720000   35.676512      61.256795      419.39562    
   7730000   36.267253      61.096872      418.3007     
   7740000   32.722655      65.914836      451.28697    
   7750000   38.271116      72.583421      496.94354    
   7760000   50.16651       48.678912      333.28095    
   7770000   30.096161      62.489237      427.83355    
   7780000   36.038733      56.05688       383.79432    
   7790000   37.052242      61.026901      417.82164    
   7800000   34.334588      68.79571       471.01092    
   7810000   33.404176      62.063498      424.91872    
   7820000   32.280968      57.880342      396.27868    
   7830000   34.408079      63.330322      433.59206    
   7840000   35.480365      57.629313      394.56001    
   7850000   32.561736      57.832903      395.95389    
   7860000   45.949351      48.728497      333.62043    
   7870000   36.082565      53.027098      363.05087    
   7880000   30.581161      64.139879      439.1347     
   7890000   29.641469      56.257304      385.16653    
   7900000   28.105167      68.240639      467.21062    
   7910000   28.319258      52.377379      358.60255    
   7920000   39.798111      61.333263      419.91916    
   7930000   24.944778      61.15381       418.69053    
   7940000   43.647071      44.647082      305.67696    
   7950000   45.892716      66.868908      457.81904    
   7960000   35.278564      57.228828      391.81808    
   7970000   31.477512      72.416413      495.80012    
   7980000   31.401137      64.041325      438.45994    
   7990000   33.761603      58.770469      402.37295    
   8000000   32.656164      52.025865      356.19591    
   8010000   34.747204      66.034571      452.10674    
   8020000   32.116569      60.735294      415.82515    
   8030000   19.768402      57.154666      391.31033    
   8040000   19.173246      64.601401      442.29452    
   8050000   41.882128      60.376671      413.36984    
   8060000   43.852974      65.720688      449.95773    
   8070000   31.532776      79.972211      547.53101    
   8080000   43.901141      63.333851      433.61621    
   8090000   28.811849      51.717325      354.08349    
   8100000   46.295324      48.56885       332.5274     
   8110000   37.944613      67.501326      462.1489     
   8120000   30.679224      54.715301      374.60917    
   8130000   32.276405      53.555444      366.66819    
   8140000   39.365355      55.213551      378.02045    
   8150000   33.271671      64.95424       444.71023    
   8160000   38.007491      51.010582      349.24476    
   8170000   31.50383       68.683004      470.23928    
   8180000   36.90977       68.382014      468.17854    
   8190000   34.280834      61.385232      420.27497    
   8200000   39.280871      48.161205      329.73645    
   8210000   46.60993       70.466204      482.44798    
   8220000   42.912338      51.315112      351.32973    
   8230000   35.353903      70.758828      484.45144    
   8240000   47.894196      74.428628      509.57678    
   8250000   46.907908      50.338339      344.64224    
   8260000   44.560916      51.642097      353.56843    
   8270000   40.3683        67.63684       463.0767     
   8280000   29.889825      70.732461      484.27091    
   8290000   25.660277      62.344636      426.84354    
   8300000   26.320387      66.33353       454.15357    
   8310000   35.182527      51.104101      349.88504    
   8320000   34.168358      59.767114      409.19649    
   8330000   35.893628      58.06866       397.568      
   8340000   27.379714      56.793074      388.83468    
   8350000   28.211121      47.978758      328.48732    
   8360000   34.83772       51.340187      351.5014     
   8370000   36.521684      57.25942       392.02752    
   8380000   31.117139      62.718063      429.40021    
   8390000   34.936144      60.510424      414.28557    
   8400000   29.133172      66.873963      457.85364    
   8410000   40.077648      60.457653      413.92428    
   8420000   37.905426      61.530096      421.26678    
   8430000   42.503594      56.473519      386.64684    
   8440000   33.53195       46.616405      319.15996    
   8450000   23.629969      59.219034      405.44406    
   8460000   13.828902      61.410853      420.45038    
   8470000   28.129631      48.707351      333.47565    
   8480000   23.980528      59.765688      409.18673    
   8490000   33.738304      55.306511      378.6569     
   8500000   36.290321      51.319807      351.36187    
   8510000   26.521634      62.578391      428.44394    
   8520000   34.084111      55.782323      381.91456    
   8530000   30.577573      65.520871      448.58969    
   8540000   33.432462      70.745839      484.36251    
   8550000   40.460648      59.178666      405.16768    
   8560000   36.088504      59.32865       406.19454    
   8570000   41.027196      60.385382      413.42947    
   8580000   35.537026      63.905489      437.52995    
   8590000   31.772865      54.991647      376.50118    
   8600000   37.393529      48.076575      329.15703    
   8610000   37.329102      61.630597      421.95486    
   8620000   29.025036      60.102492      411.49266    
   8630000   38.667461      49.768522      340.74098    
   8640000   41.213555      57.470399      393.472      
   8650000   36.915835      49.714335      340.36998    
   8660000   30.844592      72.321003      495.1469     
   8670000   20.823701      72.086574      493.54188    
   8680000   31.687494      52.48222       359.32035    
   8690000   29.204894      55.308187      378.66838    
   8700000   36.785201      54.681734      374.37936    
   8710000   30.419813      66.823368      457.50725    
   8720000   34.133207      73.331242      502.06351    
   8730000   43.194685      55.858473      382.43592    
   8740000   33.051997      66.902137      458.04654    
   8750000   29.452227      65.478825      448.30182    
   8760000   36.900132      63.355644      433.76542    
   8770000   38.011205      71.989028      492.87402    
   8780000   45.525155      55.261257      378.34707    
   8790000   38.881768      53.694762      367.62204    
   8800000   56.078396      42.158938      288.64184    
   8810000   42.622841      48.870299      334.59127    
   8820000   31.315909      63.919061      437.62287    
   8830000   20.451179      68.071333      466.05146    
   8840000   27.759129      51.589888      353.21098    
   8850000   23.487676      71.630708      490.42078    
   8860000   39.757933      55.687313      381.26407    
   8870000   33.985114      66.831028      457.55969    
   8880000   38.599707      79.951004      547.38582    
   8890000   49.759666      51.384405      351.80414    
   8900000   45.353627      68.514302      469.08425    
   8910000   41.87396       70.947995      485.74657    
   8920000   51.29294       64.79427       443.615      
   8930000   41.747022      70.232588      480.84852    
   8940000   36.009899      53.33352       365.14879    
   8950000   48.067208      56.890619      389.50252    
   8960000   41.900829      59.567433      407.82937    
   8970000   42.505416      62.787707      429.87703    
   8980000   28.267107      66.937365      458.28773    
   8990000   40.706707      66.672298      456.47295    
   9000000   35.746761      58.600968      401.21245    
   9010000   36.35534       60.855177      416.64593    
   9020000   45.350692      55.015419      376.66394    
   9030000   41.980349      55.311993      378.69443    
   9040000   33.730117      63.463916      434.50671    
   9050000   30.272392      56.451498      386.49607    
   9060000   30.883642      62.195627      425.82334    
   9070000   50.418931      74.653236      511.11456    
   9080000   50.498461      70.788711      484.65603    
   9090000   37.185891      79.241187      542.52604    
   9100000   31.233766      75.977961      520.18431    
   9110000   45.005745      66.029379      452.07119    
   9120000   42.341099      62.726651      429.45901    
   9130000   42.308504      63.04453       431.63537    
   9140000   39.693356      60.55314       414.57803    
   9150000   34.602456      62.149492      425.50748    
   9160000   37.009374      71.019544      486.23643    
   9170000   25.848012      66.109989      452.62309    
   9180000   42.555482      69.184644      473.67376    
   9190000   38.332342      66.568685      455.76356    
   9200000   45.517578      65.93498       451.42489    
   9210000   44.047952      76.102322      521.03575    
   9220000   44.853551      57.744074      395.34572    
   9230000   40.068827      67.342569      461.06196    
   9240000   36.058443      51.601579      353.29103    
   9250000   44.45555       53.679273      367.51599    
   9260000   35.110172      64.073156      438.67788    
   9270000   38.404673      71.003099      486.12385    
   9280000   44.144957      58.963531      403.69475    
   9290000   38.783696      66.238268      453.50135    
   9300000   43.472041      61.27058       419.49       
   9310000   43.871371      60.254467      412.53317    
   9320000   47.97512       67.914107      464.97501    
   9330000   43.918121      70.131482      480.15631    
   9340000   42.473994      60.365039      413.2902     
   9350000   42.402969      55.705939      381.39159    
   9360000   32.577957      66.85028       457.6915     
   9370000   48.450016      71.274886      487.98464    
   9380000   31.129062      62.960713      431.06152    
   9390000   45.397818      69.620985      476.66118    
   9400000   49.33767       64.082178      438.73965    
   9410000   46.921769      68.181699      466.80708    
   9420000   45.166926      78.701598      538.83174    
   9430000   40.994958      58.288895      399.07585    
   9440000   39.757956      59.748971      409.07228    
   9450000   45.557427      64.095394      438.83013    
   9460000   36.367994      57.31117       392.38184    
   9470000   44.988269      71.083547      486.67463    
   9480000   42.335802      81.220515      556.07754    
   9490000   40.156058      68.419783      468.43713    
   9500000   47.131982      67.984428      465.45646    
   9510000   46.660258      60.521174      414.35918    
   9520000   35.173699      62.188254      425.77287    
   9530000   51.230248      64.161383      439.28192    
   9540000   41.679969      61.106108      418.36394    
   9550000   44.664018      75.229624      515.06081    
   9560000   43.751333      81.123907      555.41611    
   9570000   41.325863      63.673036      435.93845    
   9580000   32.767653      67.466276      461.90893    
   9590000   40.605028      67.801636      464.20497    
   9600000   36.713222      59.929517      410.30839    
   9610000   42.245632      68.600426      469.6739     
   9620000   43.726561      68.270506      467.4151     
   9630000   43.186126      61.234119      419.24037    
   9640000   41.717697      69.169388      473.56931    
   9650000   26.297932      62.236673      426.10437    
   9660000   44.666124      60.290067      412.7769     
   9670000   42.284742      55.861977      382.45991    
   9680000   26.690247      54.575702      373.65341    
   9690000   25.484096      61.132177      418.54242    
   9700000   33.194116      61.935408      424.04175    
   9710000   40.797969      74.626585      510.9321     
   9720000   32.371176      67.938446      465.14165    
   9730000   35.584477      56.557553      387.22218    
   9740000   40.325646      57.887768      396.32952    
   9750000   38.043469      71.299102      488.15043    
   9760000   37.369541      61.244963      419.31461    
   9770000   28.405216      55.569985      380.46078    
   9780000   26.190246      57.140131      391.21081    
   9790000   30.904377      76.936622      526.7478     
   9800000   31.006722      55.939784      382.99262    
   9810000   38.726394      56.016868      383.52037    
   9820000   40.431105      73.380138      502.39828    
   9830000   44.87136       74.71314       511.5247     
   9840000   45.19622       66.381337      454.48087    
   9850000   34.041635      68.171602      466.73795    
   9860000   27.92475       69.080284      472.95926    
   9870000   42.981416      69.172588      473.59122    
   9880000   41.00561       69.078221      472.94513    
   9890000   42.117006      80.084755      548.30154    
   9900000   41.073698      73.991598      506.58465    
   9910000   43.666623      61.404473      420.4067     
   9920000   44.947573      54.243549      371.37932    
   9930000   39.095826      69.530469      476.04146    
   9940000   40.121837      71.240314      487.74794    
   9950000   41.027172      57.577451      394.20493    
   9960000   35.052381      65.915871      451.29405    
   9970000   57.215191      70.199969      480.6252     
   9980000   39.893161      81.128214      555.44561    
   9990000   34.725301      68.579629      469.53152    
  10000000   32.372793      63.616619      435.55219    
  10010000   40.008636      50.914324      348.58572    
  10020000   45.560625      66.488335      455.21344    
  10030000   34.124163      73.813616      505.36609    
  10040000   55.797291      71.296953      488.13572    
  10050000   51.928768      77.482191      530.48305    
  10060000   54.01646       77.666497      531.7449     
  10070000   38.859754      65.54894       448.78186    
  10080000   49.604038      66.518815      455.42212    
  10090000   37.194703      70.634465      483.59998    
  10100000   37.403569      68.611254      469.74804    
  10110000   41.838817      70.163113      480.37286    
  10120000   38.619109      68.429254      468.50197    
  10130000   30.127879      53.458068      366.00151    
  10140000   40.895078      61.497605      421.04433    
  10150000   34.700199      60.571351      414.70271    
  10160000   46.225777      54.739357      374.77388    
  10170000   31.236463      57.849088      396.0647     
  10180000   41.000036      57.995533      397.06734    
  10190000   44.099633      60.056383      411.17698    
  10200000   47.405202      76.485403      523.65852    
  10210000   56.338776      71.854791      491.95496    
  10220000   49.28723       64.930222      444.5458     
  10230000   35.342876      71.298412      488.14571    
  10240000   41.741437      74.642711      511.04251    
  10250000   47.879695      48.569124      332.52928    
  10260000   48.299116      56.781978      388.75871    
  10270000   47.327407      72.547933      496.70058    
  10280000   50.299708      56.772136      388.69133    
  10290000   37.225241      60.060907      411.20795    
  10300000   38.444122      69.823342      478.04662    
  10310000   33.906919      76.773837      525.63329    
  10320000   51.520206      69.702514      477.21937    
  10330000   45.986056      70.977099      485.94583    
  10340000   41.136834      77.931431      533.55877    
  10350000   44.487712      66.249248      453.57653    
  10360000   42.591124      72.30763       495.05534    
  10370000   42.355903      62.943626      430.94453    
  10380000   54.455532      67.091076      459.34012    
  10390000   54.270441      76.748769      525.46167    
  10400000   42.079969      93.835951      642.44933    
  10410000   50.465057      85.65434       586.4338     
  10420000   53.431892      68.585493      469.57167    
  10430000   42.951725      66.04228       452.15952    
  10440000   37.019065      81.060388      554.98123    
  10450000   35.356109      61.965387      424.247      
  10460000   29.213505      70.101814      479.95318    
  10470000   39.574844      64.705497      443.00721    
  10480000   56.175618      65.129169      445.90789    
  10490000   45.298741      74.805535      512.15728    
  10500000   43.67537       61.000549      417.64122    
  10510000   43.377522      66.432434      454.83071    
  10520000   36.75098       74.395717      509.35146    
  10530000   46.206211      72.097037      493.61351    
  10540000   41.063906      67.041133      458.99818    
  10550000   33.212468      68.156059      466.63154    
  10560000   40.381654      62.590457      428.52656    
  10570000   43.303945      76.651806      524.79781    
  10580000   44.909843      64.532088      441.81996    
  10590000   54.7929        68.36301       468.04843    
  10600000   45.563652      63.171402      432.50401    
  10610000   40.769636      73.407054      502.58256    
  10620000   52.621178      73.101199      500.48852    
  10630000   45.53143       71.165955      487.23884    
  10640000   41.886982      64.169673      439.33868    
  10650000   40.908497      61.526523      421.24231    
  10660000   39.755604      71.307179      488.20573    
  10670000   46.756516      69.083287      472.97982    
  10680000   33.638818      51.91153       355.41311    
  10690000   45.788597      55.59841       380.65539    
  10700000   46.779922      76.317291      522.50754    
  10710000   53.083749      64.158668      439.26334    
  10720000   42.19165       76.385493      522.97449    
  10730000   36.907732      58.66561       401.65503    
  10740000   40.92211       52.726063      360.98982    
  10750000   50.83166       49.85338       341.32196    
  10760000   51.144988      66.762504      457.09054    
  10770000   48.029906      76.653429      524.80892    
  10780000   37.008958      80.129646      548.60889    
  10790000   42.523627      72.697914      497.72742    
  10800000   44.851767      78.251714      535.7516     
  10810000   40.663741      70.722936      484.2057     
  10820000   45.380248      68.038         465.82324    
  10830000   35.179028      73.663514      504.33842    
  10840000   46.87662       66.015247      451.97444    
  10850000   40.358412      72.889779      499.04103    
  10860000   44.165731      68.954344      472.09701    
  10870000   46.052576      65.042948      445.31757    
  10880000   43.122432      76.732797      525.35231    
  10890000   46.530422      77.183503      528.43807    
  10900000   53.288121      79.610687      545.05583    
  10910000   43.399385      70.150512      480.28659    
  10920000   36.789944      80.716114      552.62415    
  10930000   41.927288      74.908975      512.86549    
  10940000   43.298062      74.764076      511.87343    
  10950000   47.806972      75.087591      514.08838    
  10960000   45.497011      74.058814      507.04485    
  10970000   39.049842      72.123111      493.79202    
  10980000   53.119163      65.951782      451.53992    
  10990000   49.177986      88.871219      608.45821    
  11000000   49.058306      71.37151       488.64618    
  11010000   43.302275      60.851339      416.61966    
  11020000   42.425616      72.090387      493.56798    
  11030000   54.824732      88.102904      603.19793    
  11040000   49.611091      75.781148      518.83683    
  11050000   39.909024      74.507882      510.1194     
  11060000   34.553205      70.534202      482.91353    
  11070000   48.976876      89.483816      612.65236    
  11080000   49.145286      66.920256      458.17059    
  11090000   32.914374      72.223292      494.47791    
  11100000   43.195077      71.732546      491.11801    
  11110000   45.137443      78.028419      534.22281    
  11120000   32.560014      56.664891      387.95707    
  11130000   47.348545      56.195467      384.74315    
  11140000   43.937856      73.495503      503.18813    
  11150000   36.074771      81.386904      557.21673    
  11160000   41.420115      62.031287      424.69819    
  11170000   51.058781      63.929086      437.6915     
  11180000   48.665095      63.946899      437.81346    
  11190000   61.775818      62.50893       427.96838    
  11200000   52.692024      71.5635        489.96064    
  11210000   53.256615      75.40415       516.25571    
  11220000   49.60899       69.129915      473.29906    
  11230000   35.172806      70.474378      482.50394    
  11240000   48.200391      61.269545      419.48291    
  11250000   41.92226       66.678104      456.5127     
  11260000   47.578319      65.888681      451.1079     
  11270000   47.433578      74.364725      509.13927    
  11280000   37.272538      67.526094      462.31847    
  11290000   43.659299      67.59298       462.77641    
  11300000   43.419471      70.804304      484.76279    
  11310000   47.827718      86.777351      594.12251    
  11320000   45.99006       73.017602      499.91617    
  11330000   38.944903      71.834151      491.81366    
  11340000   45.455732      74.347326      509.02014    
  11350000   33.452092      63.051402      431.68242    
  11360000   46.855286      68.858881      471.44342    
  11370000   48.285703      79.737315      545.92279    
  11380000   63.539348      61.919459      423.93255    
  11390000   56.327014      71.076841      486.62872    
  11400000   44.920774      86.159834      589.89467    
  11410000   60.995803      76.418155      523.19811    
  11420000   43.653592      69.10039       473.09692    
  11430000   46.548182      64.764215      443.40922    
  11440000   39.016824      69.552307      476.19097    
  11450000   46.873224      55.440744      379.57593    
  11460000   34.940511      90.14306       617.16589    
  11470000   34.724689      71.405498      488.87887    
  11480000   44.045945      71.728387      491.08954    
  11490000   48.892498      67.955266      465.2568     
  11500000   60.964132      67.447535      461.78062    
  11510000   39.543598      79.64319       545.27837    
  11520000   34.429666      65.783769      450.38962    
  11530000   49.498648      66.188984      453.16393    
  11540000   32.644741      83.807301      573.78801    
  11550000   51.952813      70.068082      479.72224    
  11560000   44.127563      59.565872      407.81869    
  11570000   43.200252      70.919464      485.55123    
  11580000   41.037356      74.0767        507.1673     
  11590000   34.661254      62.521251      428.05274    
  11600000   50.102941      74.558944      510.46899    
  11610000   46.3979        78.783951      539.39557    
  11620000   57.752336      91.09774       623.70212    
  11630000   45.454925      75.701211      518.28954    
  11640000   44.107978      84.444548      578.15094    
  11650000   47.673407      64.10993       438.92965    
  11660000   35.054907      89.884995      615.39904    
  11670000   52.029562      69.378106      474.9983     
  11680000   39.329674      74.629239      510.95027    
  11690000   44.269553      71.701487      490.90537    
  11700000   61.729799      69.387068      475.05966    
  11710000   47.931715      79.599436      544.9788     
  11720000   41.720125      79.803763      546.37773    
  11730000   48.218246      72.08746       493.54794    
  11740000   46.363382      69.793214      477.84035    
  11750000   51.358402      72.913834      499.20572    
  11760000   41.405826      79.192239      542.19092    
  11770000   48.948477      68.932243      471.9457     
  11780000   45.069288      86.830231      594.48455    
  11790000   44.907663      72.349158      495.33966    
  11800000   53.886834      68.092397      466.19567    
  11810000   45.125189      66.232597      453.46253    
  11820000   53.092454      63.449657      434.40908    
  11830000   58.047333      70.389515      481.92293    
  11840000   33.924769      79.818088      546.47581    
  11850000   40.458408      73.724164      504.75366    
  11860000   51.787725      73.715512      504.69442    
  11870000   53.624756      93.41824       639.58946    
  11880000   47.548257      80.123315      548.56554    
  11890000   42.472246      68.885805      471.62776    
  11900000   49.619166      76.820777      525.95467    
  11910000   55.394402      82.020073      561.55173    
  11920000   59.491524      75.10817       514.22927    
  11930000   40.146078      76.674001      524.94977    
  11940000   49.771188      74.740044      511.7089     
  11950000   39.995251      77.795405      532.62747    
  11960000   49.974549      75.225832      515.03485    
  11970000   49.043141      72.394716      495.65157    
  11980000   50.330111      79.204571      542.27535    
  11990000   42.693823      63.188518      432.62119    
  12000000   51.978414      65.499409      448.44274    
Loop time of 127.054 on 1 procs for 8000000 steps with 50 atoms

Performance: 54401.990 ns/day, 0.000 hours/ns, 62965.266 timesteps/s, 3.148 Matom-step/s
99.2% CPU use with 1 MPI tasks x 1 OpenMP threads

MPI task timing breakdown:
Section |  min time  |  avg time  |  max time  |%varavg| %total
---------------------------------------------------------------
Pair    | 90.287     | 90.287     | 90.287     |   0.0 | 71.06
Bond    | 20.122     | 20.122     | 20.122     |   0.0 | 15.84
Neigh   | 2.8993     | 2.8993     | 2.8993     |   0.0 |  2.28
Comm    | 3.316      | 3.316      | 3.316      |   0.0 |  2.61
Output  | 0.13758    | 0.13758    | 0.13758    |   0.0 |  0.11
Modify  | 9.1628     | 9.1628     | 9.1628     |   0.0 |  7.21
Other   |            | 1.13       |            |       |  0.89

Nlocal:             50 ave          50 max          50 min
Histogram: 1 0 0 0 0 0 0 0 0 0
Nghost:              0 ave           0 max           0 min
Histogram: 1 0 0 0 0 0 0 0 0 0
Neighs:            164 ave         164 max         164 min
Histogram: 1 0 0 0 0 0 0 0 0 0

Total # of neighbors = 164
Ave neighs/atom = 3.28
Ave special neighs/atom = 5.76
Neighbor list builds = 21961
Dangerous builds = 0

  # Hold at 500
  variable seedHH equal 45000+${c}
  variable seedHH equal 45000+1
  unfix fxl
  fix fxl all langevin ${T_high} ${T_high} 100000.0 ${seedHH}
  fix fxl all langevin 500 ${T_high} 100000.0 ${seedHH}
  fix fxl all langevin 500 500 100000.0 ${seedHH}
  fix fxl all langevin 500 500 100000.0 45001
  run ${n_holdH}
  run 8000000
Generated 0 of 6 mixed pair_coeff terms from geometric mixing rule
Per MPI rank memory allocation (min/avg/max) = 9.625 | 9.625 | 9.625 Mbytes
   Step         PotEng         KinEng          Temp     
  12000000   51.978414      65.499409      448.44274    
  12010000   44.576209      64.476621      441.44021    
  12020000   50.196248      63.093085      431.9678     
  12030000   46.889071      86.784383      594.17065    
  12040000   48.345395      93.983994      643.4629     
  12050000   51.22715       70.50586       482.71949    
  12060000   54.836292      83.770238      573.53426    
  12070000   61.549069      76.372285      522.88406    
  12080000   37.608831      63.645501      435.74993    
  12090000   45.1394        70.875297      485.24885    
  12100000   47.71147       65.886695      451.0943     
  12110000   54.672222      56.87438       389.39134    
  12120000   50.781984      70.165006      480.38582    
  12130000   40.766873      80.717123      552.63106    
  12140000   43.616303      76.975091      527.01118    
  12150000   43.058541      83.719685      573.18815    
  12160000   43.339572      77.917041      533.46025    
  12170000   55.001899      51.538226      352.85728    
  12180000   42.759884      70.681793      483.92402    
  12190000   49.684166      82.071029      561.9006     
  12200000   48.427015      69.901178      478.57952    
  12210000   57.01574       68.368316      468.08476    
  12220000   57.977735      79.286557      542.83667    
  12230000   40.127312      78.745935      539.13529    
  12240000   53.47393       66.216485      453.35221    
  12250000   46.498491      74.538319      510.32778    
  12260000   40.220743      71.353282      488.52138    
  12270000   51.964263      77.31601       529.34529    
  12280000   54.254418      86.726112      593.7717     
  12290000   35.151241      70.982453      485.98249    
  12300000   50.085503      60.243416      412.4575     
  12310000   47.910673      80.393782      550.41731    
  12320000   58.210809      59.072146      404.43839    
  12330000   50.740291      70.75812       484.44659    
  12340000   47.84267       72.983805      499.68478    
  12350000   44.901883      93.788514      642.12455    
  12360000   46.276481      68.583819      469.5602     
  12370000   50.815918      79.677022      545.51       
  12380000   52.427121      72.892943      499.06269    
  12390000   44.818372      69.549662      476.17287    
  12400000   46.848337      52.363807      358.50963    
  12410000   50.725697      77.332891      529.46086    
  12420000   57.460137      67.683045      463.39304    
  12430000   49.966663      86.034259      589.03492    
  12440000   51.006177      84.741548      580.18435    
  12450000   48.619409      75.303243      515.56485    
  12460000   38.192645      70.488013      482.5973     
  12470000   41.781548      64.737525      443.22649    
  12480000   37.162666      71.109275      486.85078    
  12490000   50.784294      63.171543      432.50497    
  12500000   47.14789       76.727902      525.3188     
  12510000   44.350468      71.55193       489.88142    
  12520000   44.699007      70.088407      479.86139    
  12530000   46.59712       77.783534      532.5462     
  12540000   42.91414       57.18539       391.52068    
  12550000   50.468458      86.715617      593.69985    
  12560000   62.13762       71.202793      487.49105    
  12570000   49.050705      89.482618      612.64417    
  12580000   38.552271      75.094572      514.13618    
  12590000   45.201483      67.931981      465.09739    
  12600000   41.519691      65.438684      448.02699    
  12610000   45.642193      62.649071      428.92786    
[...]
 404760000   18.262016      50.345171      344.68901    
 404770000   4.3439651      49.712616      340.35822    
 404780000  -5.0927801      54.482085      373.01246    
 404790000  -0.93341607     40.384534      276.49335    
 404800000   0.68730273     45.398326      310.82036    
 404810000   3.6089089      49.104673      336.19592    
 404820000  -0.94952628     41.764758      285.94308    
 404830000   2.8695744      46.783553      320.30434    
 404840000  -3.8487487      50.921492      348.6348     
 404850000   8.5276766      50.290534      344.31494    
 404860000   10.082977      40.509533      277.34916    
 404870000   4.0954574      45.213513      309.55503    
 404880000  -1.1641274      44.628445      305.54936    
 404890000   1.5160024      44.590909      305.29236    
 404900000  -0.90718266     50.436326      345.3131     
 404910000  -1.3286075      40.457906      276.9957     
 404920000  -3.8894336      39.490206      270.37032    
 404930000   3.0160297      35.184863      240.89373    
 404940000  -9.0958046      41.84314       286.47972    
 404950000   0.73997309     42.172079      288.73181    
 404960000   11.039819      40.757197      279.0448     
 404970000  -1.0967235      48.29726       330.66796    
 404980000  -2.7005587      44.547988      304.99851    
 404990000   2.2721622      45.797842      313.55565    
 405000000  -3.2564651      36.155347      247.53816    
 405010000  -10.154192      39.676116      271.64316    
 405020000  -3.9620035      40.533432      277.51278    
 405030000  -3.502211       45.970165      314.73546    
 405040000   7.630726       48.556851      332.44525    
 405050000   7.1608722      40.303111      275.93589    
 405060000  -14.466172      49.062963      335.91035    
 405070000  -5.4554084      38.982974      266.89755    
 405080000  -2.2270334      42.242655      289.21501    
 405090000  -10.94102       45.441382      311.11514    
 405100000  -11.703136      41.822831      286.34068    
 405110000  -4.9827736      46.928745      321.2984     
 405120000  -1.4662303      48.366327      331.14083    
 405130000   20.920337      38.584614      264.17017    
 405140000   1.2380208      46.4794        318.22195    
 405150000   11.116258      41.47575       283.96438    
 405160000   8.5158597      51.267212      351.00178    
 405170000   9.266631       40.782198      279.21596    
 405180000   20.578332      37.729794      258.31763    
 405190000   6.3998623      49.597647      339.57108    
 405200000   0.19395045     59.852474      409.78091    
 405210000   5.4833362      51.087764      349.77319    
 405220000   10.92874       37.661632      257.85096    
 405230000   6.0872793      42.480687      290.8447     
 405240000  -2.9984952      37.390346      255.99359    
 405250000  -2.0411115      36.936241      252.88456    
 405260000   6.3664473      44.31677       303.41547    
 405270000  -0.32632574     45.361928      310.57116    
 405280000  -3.6901545      45.84071       313.84915    
 405290000  -3.8699628      45.78024       313.43514    
 405300000   4.391613       40.592354      277.91619    
 405310000   0.32558063     42.465774      290.7426     
 405320000  -4.0380545      56.409754      386.21028    
 405330000   4.9376088      49.936932      341.894      
 405340000   14.176801      42.286551      289.51554    
 405350000   5.3012026      37.964727      259.92611    
 405360000   7.1627852      46.221622      316.45706    
 405370000   5.555622       53.728897      367.85575    
 405380000   7.1095377      44.317963      303.42364    
 405390000  -7.8841822      48.299981      330.68659    
 405400000  -8.3365092      47.11454       322.57045    
 405410000  -5.2077834      42.047734      287.88048    
 405420000  -10.612593      43.80434       299.90711    
 405430000  -5.9908719      47.255938      323.53853    
 405440000  -10.249563      42.535528      291.22017    
 405450000  -3.1471013      37.937884      259.74232    
 405460000  -10.11876       48.881222      334.66606    
 405470000  -3.1970241      43.542593      298.11505    
 405480000  -3.0687049      47.544007      325.5108     
 405490000   0.51709976     43.643361      298.80496    
 405500000   3.5009968      48.849937      334.45187    
 405510000  -9.7212587      50.485515      345.64988    
 405520000  -6.1780793      38.831306      265.85915    
 405530000  -11.593876      43.805565      299.91549    
 405540000  -8.3672699      38.972599      266.82651    
 405550000  -20.224847      39.941306      273.45878    
 405560000  -17.859025      46.16336       316.05818    
 405570000  -12.729947      45.001254      308.1018     
 405580000   0.3465564      36.730212      251.47398    
 405590000  -11.269115      45.590008      312.13271    
 405600000  -9.6178778      53.605088      367.00808    
 405610000  -3.780474       39.945517      273.48762    
 405620000   4.0619799      47.36624       324.29371    
 405630000  -1.5567588      47.382042      324.4019     
 405640000  -5.717018       39.450623      270.09931    
 405650000  -2.1211728      46.662982      319.47884    
 405660000  -19.946179      58.55614       400.90554    
 405670000  -12.700545      40.588191      277.88769    
 405680000  -8.8564135      47.127711      322.66062    
 405690000  -5.1554356      54.357734      372.16109    
 405700000  -7.2835612      54.960067      376.28497    
 405710000  -6.6584416      43.072615      294.89734    
 405720000  -2.3656733      45.681078      312.75622    
 405730000  -8.3909243      44.151675      302.28514    
 405740000  -1.6773464      41.134972      281.63124    
 405750000   4.4608111      51.134593      350.0938     
 405760000  -4.4472841      47.595615      325.86413    
 405770000  -0.93935459     45.590976      312.13934    
 405780000  -0.3587758      51.735537      354.20818    
 405790000   1.0225256      62.182903      425.73623    
 405800000   13.185614      47.750108      326.92187    
 405810000   9.5271107      41.994685      287.51728    
 405820000   2.2549886      47.673189      326.39525    
 405830000  -4.7289676      38.785236      265.54373    
 405840000  -8.2131056      41.058148      281.10526    
 405850000  -9.1413615      39.421728      269.90148    
 405860000  -4.7705751      40.946767      280.34269    
 405870000  -4.6504864      33.010482      226.00679    
 405880000  -11.953735      35.894395      245.75155    
 405890000  -10.219419      42.961992      294.13996    
 405900000   6.095039       39.597249      271.1032     
 405910000  -0.94562682     45.904587      314.28648    
 405920000   4.6984811      51.987881      355.93585    
 405930000  -0.23436696     43.98447       301.14037    
 405940000   4.9826512      45.024542      308.26124    
 405950000  -5.5814127      49.4969        338.88131    
 405960000   4.3673454      47.230358      323.3634     
 405970000  -5.9716075      52.072866      356.5177     
 405980000   3.9537644      45.723492      313.04662    
 405990000  -8.4976198      50.097817      342.9955     
 406000000  -0.58474276     42.293733      289.56472    
 406010000  -5.4703493      49.059045      335.88353    
 406020000  -13.623766      48.522505      332.2101     
 406030000  -13.933892      45.277139      309.99065    
 406040000  -12.763753      43.221614      295.91747    
 406050000  -18.588503      39.663418      271.55622    
 406060000  -8.0726829      41.501833      284.14296    
 406070000  -16.60434       40.634935      278.20773    
 406080000  -11.286075      43.385352      297.0385     
 406090000  -2.4961195      47.016398      321.89852    
 406100000  -1.461413       49.757743      340.66718    
 406110000   0.24134944     53.122232      363.70221    
 406120000   5.0327796      55.505316      380.01803    
 406130000   9.922186       57.173558      391.43967    
 406140000   10.604122      44.044719      301.55287    
 406150000   10.77607       44.998918      308.08581    
 406160000   4.8496087      44.168376      302.39948    
 406170000   10.573167      47.718661      326.70657    
 406180000   9.6967726      31.309844      214.36334    
 406190000  -2.628366       35.898767      245.78148    
 406200000  -3.6299568      37.951894      259.83825    
 406210000  -0.66581528     51.943958      355.63513    
 406220000   0.64863927     53.34416       365.22163    
 406230000   1.6875208      40.95582       280.40467    
 406240000  -2.740127       48.935122      335.03509    
 406250000   1.0818586      45.308986      310.20869    
 406260000   16.295202      38.729588      265.16274    
 406270000   0.07925719     47.430708      324.73509    
 406280000   15.683792      47.004147      321.81464    
 406290000   8.3359545      46.591239      318.98766    
 406300000   10.775433      45.789276      313.49701    
 406310000   9.0167347      56.895122      389.53336    
 406320000   8.359687       46.045753      315.25298    
 406330000   0.27624793     42.361134      290.02617    
 406340000  -4.5810321      36.240186      248.11901    
 406350000  -4.2835119      40.866969      279.79635    
 406360000  -2.5783834      43.114325      295.18291    
 406370000  -2.0277613      43.011739      294.48055    
 406380000  -7.1077906      44.368418      303.76908    
 406390000   7.1512034      45.654447      312.57389    
 406400000   3.4386248      45.074782      308.60521    
 406410000  -2.4549843      47.014964      321.8887     
 406420000  -9.9187178      50.195059      343.66126    
 406430000  -13.406949      49.645742      339.90036    
 406440000  -7.5488834      46.47508       318.19237    
 406450000  -7.6328691      41.667596      285.27786    
 406460000  -6.1396501      41.49074       284.06701    
 406470000  -15.314702      46.210949      316.38399    
 406480000  -13.225219      54.250103      371.42419    
 406490000  -13.910871      38.353944      262.59088    
 406500000  -18.016118      50.422971      345.22167    
 406510000  -15.677898      41.95247       287.22825    
 406520000  -9.0130072      37.756332      258.49932    
 406530000  -21.172803      42.744192      292.64879    
 406540000  -12.449494      36.59471       250.54626    
 406550000  -19.422953      50.639935      346.70712    
 406560000  -22.988221      43.730351      299.40054    
 406570000  -24.542104      40.471281      277.08727    
 406580000  -18.116998      48.558865      332.45904    
 406590000  -23.219806      38.161433      261.27286    
 406600000  -24.944958      35.673025      244.23593    
 406610000  -19.15984       38.780649      265.51233    
 406620000  -24.328636      48.89241       334.74266    
 406630000  -12.835347      49.303539      337.55746    
 406640000  -8.3465943      56.48073       386.69622    
 406650000  -9.4573348      47.821423      327.41013    
 406660000  -11.588901      47.613917      325.98944    
 406670000  -11.481012      39.004911      267.04774    
 406680000  -8.6344397      47.164898      322.91522    
 406690000  -0.44469478     45.82371       313.73275    
 406700000  -1.1349268      42.319663      289.74224    
 406710000  -4.613325       44.84215       307.01249    
 406720000  -17.289704      46.46811       318.14465    
 406730000  -1.1965257      38.325284      262.39467    
 406740000  -16.935471      46.797931      320.40278    
 406750000  -22.132256      44.638787      305.62016    
 406760000  -26.062794      53.245326      364.54497    
 406770000  -14.244459      37.595052      257.39512    
 406780000  -19.441041      39.256475      268.77008    
 406790000  -30.121668      46.176275      316.1466     
 406800000  -16.785809      42.739484      292.61656    
 406810000  -14.180207      41.687642      285.4151     
 406820000  -9.132273       36.132669      247.38289    
 406830000  -8.0863968      42.373305      290.1095     
 406840000  -1.1575602      44.291773      303.24433    
 406850000  -3.0085557      52.695592      360.78121    
 406860000   5.2262525      45.364569      310.58924    
 406870000  -1.2219081      49.364291      337.9734     
 406880000  -3.0509541      46.261432      316.72963    
 406890000  -1.6017544      46.275911      316.82876    
 406900000   0.54202991     47.065032      322.23149    
 406910000   3.2324952      52.900848      362.1865     
 406920000   2.3045453      51.373927      351.73241    
 406930000   0.56077087     52.079907      356.56591    
 406940000  -12.161822      39.467212      270.2129     
 406950000  -17.725216      42.542057      291.26486    
 406960000  -4.0679686      45.126197      308.95722    
 406970000  -5.826187       39.212603      268.46971    
 406980000  -19.170729      50.819848      347.9389     
 406990000  -10.713113      46.403689      317.7036     
 407000000  -8.1032346      49.162011      336.58849    
 407010000  -2.2787768      42.473132      290.79297    
 407020000  -22.221779      58.314113      399.2485     
 407030000  -22.080444      43.934872      300.8008     
 407040000  -5.6659398      40.771129      279.14018    
 407050000  -5.7545019      51.128427      350.05158    
 407060000  -13.692935      51.906996      355.38207    
 407070000  -4.6890714      46.306123      317.0356     
 407080000  -7.5185098      45.461042      311.24975    
 407090000  -20.445784      49.53693       339.15538    
 407100000  -11.858859      42.759459      292.75331    
 407110000  -9.6283444      39.549939      270.77928    
 407120000  -6.5475992      41.11446       281.4908     
 407130000  -6.0934402      38.203625      261.56172    
 407140000   0.59689066     31.947074      218.72615    
 407150000  -13.964747      39.55939       270.84399    
 407160000  -21.341594      38.479657      263.45158    
 407170000  -8.5768737      38.72545       265.13441    
 407180000   0.24770951     40.640967      278.24902    
 407190000   1.0756136      46.361925      317.41765    
 407200000  -0.78625019     38.015485      260.27362    
 407210000  -1.6547783      37.243079      254.98533    
 407220000  -10.487436      38.627014      264.46047    
 407230000  -6.8336217      42.759648      292.75461    
 407240000  -9.8732751      47.632872      326.11921    
 407250000  -5.0289321      43.018355      294.52585    
 407260000  -7.163065       45.114044      308.87402    
 407270000  -11.231426      40.879879      279.88474    
 407280000  -10.984616      43.506993      297.87132    
 407290000  -17.263316      45.66124       312.6204     
 407300000  -1.1124981      43.121189      295.2299     
 407310000  -15.782922      47.98208       328.51007    
 407320000  -10.60337       47.854722      327.63811    
 407330000  -9.1122678      47.530476      325.41816    
 407340000  -16.352196      41.183203      281.96146    
 407350000  -16.16184       43.288918      296.37827    
 407360000  -20.544012      36.59095       250.52052    
 407370000  -17.162501      43.47065       297.6225     
 407380000  -13.520037      57.81043       395.80003    
 407390000  -2.3477274      44.999532      308.09001    
 407400000  -2.5974847      47.601306      325.9031     
 407410000  -3.0753828      37.608293      257.48578    
 407420000  -3.5358837      53.23366       364.46509    
 407430000  -5.8599173      31.246475      213.92948    
 407440000  -8.9398943      48.809586      334.1756     
 407450000  -13.258323      40.033849      274.09238    
 407460000  -12.859395      39.911323      273.25351    
 407470000  -3.5760761      41.671562      285.30501    
 407480000  -9.7473297      46.77914       320.27413    
 407490000   1.5779645      43.356471      296.84077    
 407500000   2.5274586      42.92242       293.86903    
 407510000   5.6854614      42.598655      291.65237    
 407520000  -12.995767      49.209554      336.91399    
 407530000  -12.668996      47.399041      324.51829    
 407540000  -18.335435      39.8434        272.78847    
 407550000  -15.8916        43.298514      296.44396    
 407560000  -7.9193077      49.351075      337.88292    
 407570000  -10.778077      44.689709      305.9688     
 407580000  -7.5529629      50.374335      344.88868    
 407590000  -7.7205836      40.145275      274.85526    
 407600000   8.6429783      45.985985      314.84377    
 407610000   10.686199      39.239623      268.6547     
 407620000   4.9878538      48.670464      333.22311    
 407630000  -9.1249912      42.376245      290.12963    
 407640000   1.4416901      45.470112      311.31185    
 407650000  -3.3681791      47.866972      327.72198    
 407660000  -9.6371364      46.993491      321.74168    
 407670000  -0.45692241     47.885819      327.85102    
 407680000  -0.34532977     45.085048      308.6755     
 407690000   0.92275317     46.606928      319.09507    
 407700000  -7.0855978      51.163171      350.28946    
 407710000   1.6363112      45.81014       313.63985    
 407720000   2.8713634      38.772838      265.45885    
 407730000   0.18237237     38.970447      266.81178    
 407740000   3.0995644      47.211336      323.23316    
 407750000   2.1177926      50.674098      346.94102    
 407760000   10.386789      35.562469      243.479      
 407770000   9.6117027      35.860574      245.51999    
 407780000   10.107266      47.384044      324.41561    
 407790000   14.052957      42.496607      290.9537     
 407800000   12.71059       45.979009      314.79602    
 407810000  -0.3796726      48.081575      329.19126    
 407820000   2.4497266      47.758373      326.97846    
 407830000  -0.98742128     37.747795      258.44087    
 407840000   0.1842742      49.726806      340.45537    
 407850000   2.9219853      43.843227      300.17335    
 407860000  -0.011200091    51.867441      355.11125    
 407870000   9.276485       45.795625      313.54047    
 407880000   18.281793      42.388452      290.21321    
 407890000   1.0924833      42.09333       288.19265    
 407900000  -6.0079551      50.472884      345.5634     
 407910000  -4.9459886      38.40064       262.91059    
 407920000  -5.4776949      39.673605      271.62597    
 407930000  -1.869714       48.280004      330.54981    
 407940000   2.1989751      47.206978      323.20332    
 407950000  -0.51400965     60.671361      415.38743    
 407960000   11.443983      37.03113       253.53422    
 407970000  -7.0146119      34.080998      233.33609    
 407980000  -11.670904      39.360469      269.48208    
 407990000   2.0017251      44.739807      306.3118     
 408000000  -7.4457339      52.421964      358.90781    
Loop time of 110.306 on 1 procs for 4000000 steps with 50 atoms

Performance: 31331.089 ns/day, 0.001 hours/ns, 36262.835 timesteps/s, 1.813 Matom-step/s
99.2% CPU use with 1 MPI tasks x 1 OpenMP threads

MPI task timing breakdown:
Section |  min time  |  avg time  |  max time  |%varavg| %total
---------------------------------------------------------------
Pair    | 91.828     | 91.828     | 91.828     |   0.0 | 83.25
Bond    | 10.143     | 10.143     | 10.143     |   0.0 |  9.20
Neigh   | 1.2675     | 1.2675     | 1.2675     |   0.0 |  1.15
Comm    | 1.6955     | 1.6955     | 1.6955     |   0.0 |  1.54
Output  | 0.10107    | 0.10107    | 0.10107    |   0.0 |  0.09
Modify  | 4.6951     | 4.6951     | 4.6951     |   0.0 |  4.26
Other   |            | 0.5752     |            |       |  0.52

Nlocal:             50 ave          50 max          50 min
Histogram: 1 0 0 0 0 0 0 0 0 0
Nghost:              0 ave           0 max           0 min
Histogram: 1 0 0 0 0 0 0 0 0 0
Neighs:            460 ave         460 max         460 min
Histogram: 1 0 0 0 0 0 0 0 0 0

Total # of neighbors = 460
Ave neighs/atom = 9.2
Ave special neighs/atom = 5.76
Neighbor list builds = 8558
Dangerous builds = 0

write_data outputs_100/${tag}_final.data
write_data outputs_100/config_02_len50_02.dat_final.data
System init for write_data ...
Generated 0 of 6 mixed pair_coeff terms from geometric mixing rule
Total wall time: 1:59:22
