
# ===============================
# FORCE FIELD
# ===============================
bond_style harmonic
bond_coeff 1 7.5 5.9

angle_style harmonic
angle_coeff 1 5.0 150.0

pair_style hybrid/overlay lj/cut 10.0 base/rna 18.0
pair_modify shift yes
pair_coeff * * lj/cut 2.0 8.9089871814

# Base-pair interactions
pair_coeff 1 1 base/rna 0.00000 3.0 13.8 1.5 0.5 1.8326 0.9425 1.8326 1.1345
pair_coeff 1 2 base/rna 0.00000 3.0 13.8 1.5 0.5 1.8326 0.9425 1.8326 1.1345
pair_coeff 1 3 base/rna 0.00000 3.0 13.8 1.5 0.5 1.8326 0.9425 1.8326 1.1345
pair_coeff 1 4 base/rna 3.33333 3.0 13.8 1.5 0.5 1.8326 0.9425 1.8326 1.1345
pair_coeff 2 2 base/rna 0.00000 3.0 13.8 1.5 0.5 1.8326 0.9425 1.8326 1.1345
pair_coeff 2 3 base/rna 5.00000 3.0 13.8 1.5 0.5 1.8326 0.9425 1.8326 1.1345
pair_coeff 2 4 base/rna 0.00000 3.0 13.8 1.5 0.5 1.8326 0.9425 1.8326 1.1345
pair_coeff 3 3 base/rna 0.00000 3.0 13.8 1.5 0.5 1.8326 0.9425 1.8326 1.1345
pair_coeff 3 4 base/rna 3.33333 3.0 13.8 1.5 0.5 1.8326 0.9425 1.8326 1.1345
pair_coeff 4 4 base/rna 0.00000 3.0 13.8 1.5 0.5 1.8326 0.9425 1.8326 1.1345

special_bonds lj 0.0 0.0 1.0
Finding 1-2 1-3 1-4 neighbors ...
  special bond factors lj:    0        0        1       
  special bond factors coul:  0        0        0       
     2 = max # of 1-2 neighbors
     2 = max # of 1-3 neighbors
     4 = max # of 1-4 neighbors
     6 = max # of special neighbors
  special bonds CPU = 0.000 seconds
neighbor 15.0 bin
neigh_modify every 10 delay 0
comm_style tiled
timestep 10

# ===============================
# DUMPS
# ===============================
dump d1 all custom ${dump_stride} outputs_100/${tag}.lammpstrj id mol type q xu yu zu
dump d1 all custom 50000 outputs_100/${tag}.lammpstrj id mol type q xu yu zu
dump d1 all custom 50000 outputs_100/config_03_len50_03.dat.lammpstrj id mol type q xu yu zu
dump_modify d1 sort id

# ===============================
# THERMO
# ===============================
thermo_style custom step pe ke temp
thermo ${thermo_stride}
thermo 10000
thermo_modify flush yes

variable vpe equal pe
variable vke equal ke
variable vT  equal temp

fix fa all ave/time ${thermo_stride} 10 ${stride10} v_vpe v_vke v_vT file outputs_100/thermo_${tag}_averaged.dat
fix fa all ave/time 10000 10 ${stride10} v_vpe v_vke v_vT file outputs_100/thermo_${tag}_averaged.dat
fix fa all ave/time 10000 10 100000 v_vpe v_vke v_vT file outputs_100/thermo_${tag}_averaged.dat
fix fa all ave/time 10000 10 100000 v_vpe v_vke v_vT file outputs_100/thermo_config_03_len50_03.dat_averaged.dat

# ===============================
# EQUILIBRATION (40 ns)
# ===============================
fix fxnve all nve
variable seed0 equal 43001
fix fxl all langevin ${T_eq} ${T_eq} 100000.0 ${seed0}
fix fxl all langevin 298 ${T_eq} 100000.0 ${seed0}
fix fxl all langevin 298 298 100000.0 ${seed0}
fix fxl all langevin 298 298 100000.0 43001

run ${n_eq}
run 4000000

CITE-CITE-CITE-CITE-CITE-CITE-CITE-CITE-CITE-CITE-CITE-CITE-CITE

Your simulation uses code contributions which should be cited:

- Type Label Framework: https://doi.org/10.1021/acs.jpcb.3c08419

@Article{Gissinger24,
 author = {Jacob R. Gissinger, Ilia Nikiforov, Yaser Afshar, Brendon Waters, Moon-ki Choi, Daniel S. Karls, Alexander Stukowski, Wonpil Im, Hendrik Heinz, Axel Kohlmeyer, and Ellad B. Tadmor},
 title = {Type Label Framework for Bonded Force Fields in LAMMPS},
 journal = {J. Phys. Chem. B},
 year =    2024,
 volume =  128,
 number =  13,
 pages =   {3282–-3297}
}

CITE-CITE-CITE-CITE-CITE-CITE-CITE-CITE-CITE-CITE-CITE-CITE-CITE

Generated 0 of 6 mixed pair_coeff terms from geometric mixing rule
Neighbor list info ...
  update: every = 10 steps, delay = 0 steps, check = yes
  max neighbors/atom: 2000, page size: 100000
  master list distance cutoff = 33
  ghost atom cutoff = 33
  binsize = 16.5, bins = 61 61 61
  2 neighbor lists, perpetual/occasional/extra = 2 0 0
  (1) pair lj/cut, perpetual, trim from (2)
      attributes: half, newton on, cut 25
      pair build: trim
      stencil: none
      bin: none
  (2) pair base/rna, perpetual
      attributes: half, newton on
      pair build: half/bin/newton
      stencil: half/bin/3d
      bin: standard
Per MPI rank memory allocation (min/avg/max) = 8.368 | 8.368 | 8.368 Mbytes
   Step         PotEng         KinEng          Temp     
         0   65.797361      0              0            
     10000   29.554068      48.689079      333.35055    
     20000   27.715873      43.156778      295.47356    
     30000   30.198823      45.726717      313.0687     
     40000   33.442295      46.354279      317.36531    
     50000   20.614096      51.825676      354.82531    
     60000   10.06129       62.187274      425.76615    
     70000  -4.4664334      50.075611      342.84346    
     80000   5.7683855      51.643803      353.58012    
     90000   3.5040757      43.342772      296.74697    
    100000   1.8813648      43.161826      295.50812    
    110000  -11.286236      47.557428      325.60269    
    120000   2.6438647      42.823126      293.18921    
    130000  -5.4829211      51.074195      349.68028    
    140000  -3.0148427      48.713726      333.5193     
    150000  -2.8818782      48.089826      329.24776    
    160000   6.5786789      42.674938      292.17464    
    170000   0.53742711     45.115133      308.88148    
    180000  -0.6566317      49.413266      338.30871    
    190000  -3.8359472      42.720662      292.48769    
    200000  -3.2148325      36.873207      252.45299    
    210000  -7.4397223      38.480197      263.45528    
    220000  -8.3672159      50.185491      343.59576    
    230000   0.50990414     30.904949      211.59122    
    240000   3.7016682      48.679939      333.28797    
    250000  -6.3322444      41.480909      283.9997     
    260000  -1.9819156      35.371177      242.16932    
    270000  -12.795857      51.491301      352.53601    
    280000  -12.863132      40.594194      277.92879    
    290000  -11.978892      38.443164      263.20173    
    300000   0.74944892     35.393514      242.32225    
    310000   5.465531       39.33785       269.32721    
    320000  -11.336108      55.46104       379.71489    
    330000  -2.4004167      43.631338      298.72265    
    340000  -11.009918      54.1059        370.4369     
    350000   2.3076245      38.237434      261.7932     
    360000  -5.1911794      51.610089      353.34929    
    370000   3.6358336      42.61499       291.7642     
    380000  -1.4455151      42.812729      293.11802    
    390000  -3.2354509      43.774712      299.70426    
    400000  -7.8167835      55.150588      377.58938    
    410000  -3.3459834      46.008025      314.99468    
    420000   3.9824834      37.988776      260.09076    
    430000  -5.1117614      38.430868      263.11755    
    440000  -9.8385783      35.153545      240.67931    
    450000  -20.240678      39.2079        268.43751    
    460000  -19.69485       35.526821      243.23494    
    470000  -19.63025       43.366351      296.90841    
    480000  -13.16571       47.562972      325.64064    
    490000  -5.37847        45.369421      310.62246    
    500000  -14.287189      54.152161      370.75363    
    510000  -5.3344303      41.162215      281.81776    
    520000  -5.2342313      47.609385      325.95841    
    530000  -0.078489272    41.576499      284.65416    
    540000   1.7632064      40.655551      278.34887    
    550000   3.582351       40.067315      274.32151    
    560000   6.7410277      39.99146       273.80217    
    570000  -1.2756592      49.003117      335.50062    
    580000  -7.5981635      46.973809      321.60693    
    590000  -5.8260215      49.741005      340.55258    
    600000  -6.250166       37.875024      259.31196    
    610000  -15.052855      34.362485      235.2633     
    620000  -21.432508      48.795358      334.07819    
    630000  -15.15872       40.212978      275.31879    
    640000  -6.562146       48.185404      329.90213    
    650000  -19.406134      46.820811      320.55943    
    660000  -7.1316029      42.326347      289.788      
    670000  -11.202496      41.303403      282.7844     
    680000  -11.534976      39.258431      268.78347    
    690000  -8.5798386      44.429607      304.18801    
    700000   1.4132092      44.043106      301.54183    
    710000  -1.0509805      42.387428      290.2062     
    720000  -0.27304363     35.380898      242.23588    
    730000  -2.1956091      46.300539      316.99737    
    740000  -3.7469109      47.031297      322.00052    
    750000  -6.1784141      47.231674      323.37241    
    760000  -13.199735      39.573912      270.94341    
    770000  -4.5127637      48.228638      330.19814    
    780000  -2.5089288      41.081743      281.26681    
    790000  -1.7640655      50.79982       347.80177    
    800000  -15.542532      43.208089      295.82486    
    810000   1.3334463      45.428871      311.02948    
    820000  -0.40445745     44.686114      305.94419    
    830000  -2.3836238      36.867247      252.41219    
    840000  -3.1616685      41.207612      282.12857    
    850000   1.8362427      38.756528      265.34718    
    860000  -4.0273864      38.687269      264.873      
    870000  -3.3616795      47.098577      322.46116    
    880000  -7.9292183      44.600395      305.35731    
    890000   2.2016277      42.600949      291.66807    
    900000   3.3863284      39.032838      267.23894    
    910000   17.692777      43.786289      299.78352    
    920000   4.4613914      44.160236      302.34376    
    930000  -15.308091      47.217497      323.27534    
    940000  -9.7390353      43.231958      295.98829    
    950000  -7.8166215      37.865452      259.24642    
    960000  -7.322637       37.64135       257.7121     
    970000  -9.9032515      48.745691      333.73815    
    980000  -2.2909437      49.446646      338.53725    
    990000  -4.5672192      44.357036      303.69115    
   1000000  -9.3325717      35.259211      241.40275    
   1010000  -16.646254      47.653073      326.25752    
   1020000  -8.3093891      49.781759      340.8316     
   1030000  -9.2588501      49.147429      336.48865    
   1040000  -13.878956      52.406669      358.80309    
   1050000  -2.7741715      46.580042      318.911      
   1060000  -17.23819       56.988352      390.17166    
   1070000  -2.2588727      46.625915      319.22507    
   1080000  -4.9689611      46.261091      316.7273     
   1090000  -8.7485696      40.381256      276.47091    
   1100000  -17.026224      52.267945      357.85331    
   1110000  -7.0621154      41.008725      280.76689    
   1120000  -11.754999      43.668007      298.9737     
   1130000  -8.4655026      42.799425      293.02694    
   1140000  -18.348131      46.658083      319.44531    
   1150000  -9.6369104      45.005933      308.13383    
   1160000  -18.378991      48.716351      333.53727    
   1170000  -8.6166253      44.71003       306.10793    
   1180000  -9.7592219      47.034796      322.02448    
   1190000   0.56108843     43.853442      300.24329    
   1200000  -21.002053      46.984632      321.68103    
   1210000  -11.139457      45.172888      309.27689    
   1220000  -5.4803768      43.162555      295.51312    
   1230000  -8.8722464      39.329101      269.26731    
   1240000  -14.679219      42.899164      293.70981    
   1250000  -12.218868      48.692491      333.37391    
   1260000  -13.942089      45.153564      309.14459    
   1270000  -25.179541      62.560723      428.32298    
   1280000  -14.319891      45.34415       310.44944    
   1290000  -4.2496096      40.391313      276.53976    
   1300000  -3.6543249      35.350282      242.02627    
   1310000  -7.8913048      35.133951      240.54515    
   1320000  -5.6441439      45.819553      313.7043     
   1330000   6.4622891      44.648857      305.68911    
   1340000  -0.96280501     42.357467      290.00107    
   1350000  -5.2688042      46.783749      320.30568    
   1360000  -4.680242       39.754457      272.17952    
   1370000  -1.8463935      45.636818      312.4532     
   1380000  -0.92909258     54.827188      375.37521    
   1390000   9.4174648      41.855189      286.56222    
   1400000  -10.985148      48.915683      334.902      
   1410000  -7.7551544      44.901706      307.42024    
   1420000   1.8290346      44.442957      304.27941    
   1430000  -4.0187829      41.367411      283.22263    
   1440000   3.4875574      36.072744      246.97261    
   1450000   6.8393823      40.622105      278.11989    
   1460000   1.9285607      37.817672      258.91929    
   1470000  -10.185678      37.442339      256.34957    
   1480000  -7.113447       44.732335      306.26064    
   1490000  -12.690296      43.154294      295.45656    
   1500000  -11.000408      42.442098      290.5805     
   1510000  -19.965983      34.586849      236.79941    
   1520000  -21.268767      46.340198      317.2689     
   1530000  -13.047603      42.664122      292.10059    
   1540000  -13.697525      35.732028      244.6399     
   1550000  -28.520991      40.68091       278.5225     
   1560000  -24.492359      38.603151      264.29708    
   1570000  -16.594621      47.586473      325.80154    
   1580000   1.7107503      41.336429      283.01052    
   1590000  -7.8481434      44.587561      305.26944    
   1600000  -12.919765      50.647456      346.75861    
   1610000  -5.0783639      46.080953      315.49398    
   1620000  -8.8508798      55.092549      377.19201    
   1630000   5.2935234      38.518432      263.71705    
   1640000  -6.4782332      55.920962      382.86375    
   1650000   2.8335567      45.523848      311.67974    
   1660000   6.6881112      50.466445      345.51932    
   1670000   3.4450942      44.202479      302.63297    
   1680000   6.8189374      54.287234      371.67841    
   1690000  -0.89616382     44.763113      306.47136    
   1700000   2.5056627      33.882368      231.97617    
   1710000  -3.1634561      45.699263      312.88073    
   1720000  -5.7461988      47.732902      326.80407    
   1730000  -13.923576      52.910974      362.25582    
   1740000   3.4071409      40.259861      275.63977    
   1750000  -1.5543383      41.303473      282.78488    
   1760000   11.018632      43.164589      295.52704    
   1770000   5.9196769      48.414562      331.47106    
   1780000   2.0401746      51.48806       352.51382    
   1790000   2.3069678      41.235132      282.31698    
   1800000  -8.8318765      46.753685      320.09984    
   1810000   0.62403993     43.272693      296.26718    
   1820000  -1.5428797      44.30861       303.3596     
   1830000  -3.0486049      45.027902      308.28424    
   1840000  -5.5002346      45.071082      308.57988    
   1850000  -4.9035791      38.677447      264.80576    
   1860000  -9.4281955      44.64393       305.65538    
   1870000   3.1021306      45.59566       312.17141    
   1880000   0.52066706     47.482898      325.09241    
   1890000  -12.389786      51.725329      354.13828    
   1900000   0.49817764     49.743436      340.56922    
   1910000   3.279188       57.07857       390.78934    
   1920000   0.50221553     54.394803      372.41488    
   1930000   8.6624505      42.987326      294.31341    
   1940000   5.6075835      42.9522        294.07292    
   1950000   1.1182882      43.63948       298.77839    
   1960000   2.1067895      44.952624      307.76885    
   1970000   8.7968089      39.274495      268.89345    
   1980000  -2.1546468      42.040204      287.82892    
   1990000  -15.748206      41.161643      281.81384    
   2000000  -25.911473      39.89026       273.1093     
   2010000  -11.557629      36.235096      248.08416    
   2020000  -13.914127      36.826418      252.13266    
   2030000  -16.288528      37.143609      254.30431    
   2040000  -1.1067064      37.336011      255.62159    
   2050000  -2.086898       41.275145      282.59094    
   2060000   4.7809224      41.663952      285.25291    
   2070000  -6.6225263      47.586626      325.80259    
   2080000  -5.2441687      42.420047      290.42952    
   2090000  -5.0503193      41.350998      283.11027    
   2100000   8.2134011      39.858682      272.8931     
   2110000   14.86372       36.991318      253.26164    
   2120000   15.651037      41.60506       284.84971    
   2130000   15.599534      41.742468      285.79047    
   2140000   2.8529025      46.114105      315.72095    
   2150000   16.570737      49.746985      340.59352    
   2160000   8.2723101      55.952918      383.08254    
   2170000  -3.742817       51.322021      351.37703    
   2180000   3.9438055      42.925537      293.89037    
   2190000   3.0222301      45.903663      314.28016    
   2200000   5.401227       48.96526       335.24143    
   2210000   3.7510158      37.990664      260.10369    
   2220000  -5.1097486      39.162512      268.12676    
   2230000   1.8105472      47.103254      322.49318    
   2240000   2.008607       48.562057      332.4809     
   2250000  -16.566429      46.4945        318.32533    
   2260000   3.9411384      38.413573      262.99914    
   2270000  -5.6517201      41.053884      281.07607    
   2280000  -6.749524       36.55097       250.2468     
   2290000   4.6600939      51.263407      350.97573    
   2300000   16.332862      46.012126      315.02275    
   2310000   0.62191032     52.481116      359.31279    
   2320000   5.4837882      38.93668       266.5806     
   2330000  -0.6528165      35.764732      244.8638     
   2340000  -0.76950125     46.167899      316.08925    
   2350000   4.7625964      45.43347       311.06098    
   2360000   11.702651      44.547364      304.99423    
   2370000   17.586424      50.516768      345.86385    
   2380000   6.8491156      51.063709      349.6085     
   2390000   3.5144842      44.042183      301.5355     
   2400000   6.0206263      40.998176      280.69466    
   2410000   6.2890872      43.60544       298.54534    
   2420000   19.817929      38.593543      264.23131    
   2430000   1.0464327      41.817455      286.30387    
   2440000  -0.86509217     41.527738      284.32031    
   2450000   4.6744321      36.06853       246.94376    
   2460000  -2.3081916      44.54133       304.95292    
   2470000  -1.9550236      44.680897      305.90847    
   2480000  -2.7651348      42.884318      293.60816    
   2490000  -4.9933922      41.296577      282.73767    
   2500000  -6.7270806      42.008801      287.61392    
   2510000   4.1610369      47.455525      324.90501    
   2520000   5.9370429      48.781781      333.98524    
   2530000   7.5950432      49.1127        336.25088    
   2540000   11.546157      54.419157      372.58162    
   2550000   14.978741      55.731103      381.56388    
   2560000  -6.731726       52.894272      362.14148    
   2570000  -3.2002281      42.864291      293.47105    
   2580000   5.706174       42.337182      289.86219    
   2590000  -8.5535524      44.802274      306.73948    
   2600000  -7.083224       44.038724      301.51182    
   2610000   0.65786387     33.515833      229.46668    
   2620000  -7.7209114      38.419185      263.03756    
   2630000  -9.5146357      40.030115      274.06682    
   2640000  -4.6561667      40.343171      276.21016    
   2650000  -2.8436936      40.126618      274.72753    
   2660000  -11.677162      45.031613      308.30966    
   2670000  -16.215267      34.414134      235.61691    
   2680000  -7.0677295      41.422806      283.6019     
   2690000  -0.53045918     40.837186      279.59244    
   2700000   1.8195473      44.040425      301.52347    
   2710000   13.463602      44.694149      305.9992     
   2720000   4.931761       47.468981      324.99713    
   2730000   0.31056638     55.799928      382.03509    
   2740000   15.512305      53.180282      364.09964    
   2750000   2.6522655      43.228081      295.96174    
   2760000   5.2364961      45.440613      311.10988    
   2770000   0.46112671     53.453654      365.97129    
   2780000   4.6309176      58.695344      401.85861    
   2790000   6.3806699      42.859046      293.43514    
   2800000   7.2040067      38.559         263.9948     
   2810000  -7.4510242      43.075743      294.91876    
   2820000   5.012465       46.224564      316.47721    
   2830000  -4.3892213      42.744239      292.64911    
   2840000  -5.0332262      34.684472      237.46779    
   2850000  -3.04847        34.275113      234.6651     
   2860000  -11.099172      38.261017      261.95466    
   2870000   0.87223297     31.920779      218.54612    
   2880000  -4.8010259      41.629111      285.01437    
   2890000  -9.1955899      40.578686      277.82261    
   2900000   4.7241422      42.335849      289.85306    
   2910000  -6.3196593      50.1663        343.46437    
   2920000   6.1752811      47.843104      327.55857    
   2930000  -0.29459001     50.641048      346.71474    
   2940000  -2.1379646      48.111627      329.39702    
   2950000   15.996233      40.496218      277.258      
   2960000   0.58215981     38.178435      261.38926    
   2970000   0.31858898     42.403864      290.31873    
   2980000   10.335296      38.666545      264.73111    
   2990000   7.9890335      36.876356      252.47456    
   3000000   3.9151386      46.483279      318.24851    
   3010000  -1.2584678      47.113545      322.56363    
   3020000  -0.28282169     54.172105      370.89018    
   3030000   9.1526473      56.464488      386.58501    
   3040000   5.4180344      50.834221      348.0373     
   3050000   4.5663099      43.8058        299.9171     
   3060000   4.784372       38.599617      264.27289    
   3070000   4.3062004      40.471382      277.08796    
   3080000  -5.481842       46.53943       318.63295    
   3090000   11.997966      40.532481      277.50628    
   3100000   3.7021294      49.216109      336.95887    
   3110000   11.602822      46.081411      315.49711    
   3120000   6.1568809      45.305192      310.18272    
   3130000   19.144739      38.150408      261.19737    
   3140000   1.345062       50.594821      346.39824    
   3150000  -6.0210762      49.801919      340.96963    
   3160000  -2.6396168      47.415473      324.63079    
   3170000  -3.5048447      47.695305      326.54666    
   3180000  -2.9207339      41.465507      283.89425    
   3190000  -16.401781      42.959714      294.12436    
   3200000  -18.836741      39.272524      268.87996    
   3210000  -13.569003      45.289872      310.07783    
   3220000  -2.0332949      42.780124      292.89479    
   3230000  -10.914077      43.691791      299.13654    
   3240000  -6.2069967      38.392027      262.85162    
   3250000  -20.576603      39.331373      269.28287    
   3260000  -7.5808076      46.997445      321.76875    
   3270000  -8.749506       46.465446      318.12641    
   3280000   5.0894949      42.307918      289.66183    
   3290000  -1.2606544      44.116069      302.04136    
   3300000   0.4081235      54.362005      372.19033    
   3310000   3.8581971      41.714285      285.59751    
   3320000   9.430823       36.572277      250.39267    
   3330000   4.6812439      46.436332      317.92708    
   3340000  -3.9971417      40.876376      279.86075    
   3350000   4.1379814      38.400228      262.90777    
   3360000  -9.022035       41.472728      283.94369    
   3370000  -5.7001036      38.797702      265.62908    
   3380000  -5.1017133      40.972706      280.52028    
   3390000  -9.6811804      47.574183      325.7174     
   3400000  -5.0399005      40.728442      278.84792    
   3410000  -8.0309993      44.277451      303.14627    
   3420000  -12.646698      44.146325      302.24851    
   3430000  -5.626536       39.744604      272.11206    
   3440000   1.6450107      45.272221      309.95698    
   3450000   6.3626516      48.224679      330.17103    
   3460000  -2.0899061      52.394893      358.72247    
   3470000  -3.5252671      43.184791      295.66536    
   3480000  -12.134454      47.739006      326.84586    
   3490000   11.515166      39.782774      272.37339    
   3500000  -3.2310927      47.066377      322.24069    
   3510000   6.1802654      39.02857       267.20973    
   3520000  -2.8365938      46.846991      320.73867    
   3530000  -11.408284      40.206547      275.27476    
   3540000  -7.8770901      40.149231      274.88235    
   3550000   3.1424873      42.557628      291.37147    
   3560000  -6.8306348      47.540557      325.48718    
   3570000  -6.3598651      46.606948      319.09521    
   3580000  -9.1572454      37.01176       253.4016     
   3590000  -6.4959696      44.447965      304.3137     
   3600000  -5.1743494      41.374094      283.26839    
   3610000   1.9240951      34.378344      235.37188    
   3620000  -10.222967      38.020301      260.30659    
   3630000  -9.1627303      40.424581      276.76753    
   3640000   11.606336      46.153327      315.98948    
   3650000  -1.9211894      51.348229      351.55646    
   3660000   11.791978      38.050616      260.51414    
   3670000   8.8154889      38.842632      265.93669    
   3680000   14.225049      44.06889       301.71836    
   3690000   1.4091633      43.968051      301.02796    
   3700000   0.29680026     48.492521      332.00482    
   3710000   2.1357561      52.887447      362.09474    
   3720000   1.8489225      44.187909      302.53322    
   3730000  -2.9956555      56.969906      390.04536    
   3740000   0.48347849     35.238838      241.26327    
   3750000   1.8697919      43.965795      301.01251    
   3760000   4.6181745      41.365973      283.21279    
   3770000  -0.18204854     41.988059      287.47191    
   3780000  -8.7689634      41.880725      286.73705    
   3790000  -6.860544       46.71546       319.83814    
   3800000   4.0417211      46.622348      319.20065    
   3810000   19.934061      39.934774      273.41406    
   3820000   26.39895       34.295918      234.80755    
   3830000   8.004873       47.032013      322.00542    
   3840000   5.2564413      40.084413      274.43857    
   3850000   11.928397      41.58734       284.72838    
   3860000   16.114811      48.579037      332.59715    
   3870000   21.203176      49.104335      336.19361    
   3880000   16.778397      50.154016      343.38026    
   3890000   10.347427      58.424636      400.0052     
   3900000  -2.8589961      50.695195      347.08546    
   3910000  -3.1174997      37.130426      254.21405    
   3920000   2.6651013      45.822582      313.72504    
   3930000   5.9915615      45.187286      309.37547    
   3940000  -6.1448165      41.019107      280.83796    
   3950000  -8.0493255      40.536867      277.5363     
   3960000  -5.7493866      47.326484      324.02152    
   3970000   0.79757592     42.233207      289.15032    
   3980000  -5.8573665      48.261514      330.42322    
   3990000   2.603836       35.401564      242.37737    
   4000000  -1.1017743      48.075555      329.15005    
Loop time of 114.97 on 1 procs for 4000000 steps with 50 atoms

Performance: 30060.018 ns/day, 0.001 hours/ns, 34791.688 timesteps/s, 1.740 Matom-step/s
99.3% CPU use with 1 MPI tasks x 1 OpenMP threads

MPI task timing breakdown:
Section |  min time  |  avg time  |  max time  |%varavg| %total
---------------------------------------------------------------
Pair    | 97.167     | 97.167     | 97.167     |   0.0 | 84.52
Bond    | 9.5681     | 9.5681     | 9.5681     |   0.0 |  8.32
Neigh   | 1.1676     | 1.1676     | 1.1676     |   0.0 |  1.02
Comm    | 1.7073     | 1.7073     | 1.7073     |   0.0 |  1.49
Output  | 0.073562   | 0.073562   | 0.073562   |   0.0 |  0.06
Modify  | 4.6757     | 4.6757     | 4.6757     |   0.0 |  4.07
Other   |            | 0.6103     |            |       |  0.53

Nlocal:             50 ave          50 max          50 min
Histogram: 1 0 0 0 0 0 0 0 0 0
Nghost:              0 ave           0 max           0 min
Histogram: 1 0 0 0 0 0 0 0 0 0
Neighs:            293 ave         293 max         293 min
Histogram: 1 0 0 0 0 0 0 0 0 0

Total # of neighbors = 293
Ave neighs/atom = 5.86
Ave special neighs/atom = 5.76
Neighbor list builds = 8268
Dangerous builds = 0

# ===============================
# MAIN SA LOOP — 10 cycles
# ===============================
variable c loop ${ncycle}
variable c loop 10
label cyc

  # Heat 298 → 500
  variable seedH equal 44000+${c}
  variable seedH equal 44000+1
  unfix fxl
  fix fxl all langevin ${T_eq} ${T_high} 100000.0 ${seedH}
  fix fxl all langevin 298 ${T_high} 100000.0 ${seedH}
  fix fxl all langevin 298 500 100000.0 ${seedH}
  fix fxl all langevin 298 500 100000.0 44001
  run ${n_heat}
  run 8000000
Generated 0 of 6 mixed pair_coeff terms from geometric mixing rule
Per MPI rank memory allocation (min/avg/max) = 9.625 | 9.625 | 9.625 Mbytes
   Step         PotEng         KinEng          Temp     
   4000000  -1.1017743      48.075555      329.15005    
   4010000   7.4065872      42.93931       293.98466    
   4020000   8.8883546      40.847937      279.66605    
   4030000   5.5466277      43.618237      298.63295    
   4040000   0.10984925     44.8621        307.14908    
   4050000  -9.4690231      39.0296        267.21677    
   4060000  -10.427989      53.622837      367.12961    
   4070000   10.054759      47.905715      327.98724    
   4080000   6.6974077      47.41401       324.62077    
   4090000   9.25099        53.590701      366.90959    
   4100000  -5.1132048      50.531763      345.96652    
   4110000  -0.036939879    40.4781        277.13395    
   4120000  -3.2927102      39.337656      269.32589    
   4130000  -1.0454856      42.836575      293.28129    
   4140000  -4.1799666      46.395948      317.65059    
   4150000   5.4427984      42.036025      287.80031    
   4160000   3.2166794      43.612969      298.59688    
   4170000  -6.2117941      52.053901      356.38786    
   4180000   1.8133167      42.605358      291.69826    
   4190000   2.8274846      41.348025      283.08991    
   4200000  -2.3381394      50.710905      347.19302    
   4210000  -1.019415       48.276574      330.52633    
   4220000  -11.751984      37.711684      258.19364    
   4230000  -6.5565291      37.192125      254.63647    
   4240000  -0.78647617     41.734813      285.73806    
   4250000   0.82074328     40.985883      280.6105     
   4260000  -3.7699731      42.512899      291.06524    
   4270000  -3.8373344      41.354069      283.13129    
   4280000  -3.0348419      49.323844      337.69648    
   4290000  -14.932484      46.380597      317.5455     
   4300000  -0.2573766      34.849072      238.59472    
   4310000  -4.859078       44.843947      307.0248     
   4320000   3.2990971      39.055272      267.39254    
   4330000   14.303342      36.738797      251.53275    
   4340000   6.2673796      48.657873      333.1369     
   4350000   2.8450292      48.11744       329.43682    
   4360000   11.604624      46.387905      317.59552    
   4370000   2.481291       45.85437       313.94267    
   4380000  -4.9324677      53.965199      369.47359    
   4390000   2.863442       54.99394       376.51688    
   4400000  -2.160282       41.386496      283.3533     
   4410000   13.954432      41.31828       282.88626    
   4420000   14.861152      42.23214       289.14301    
   4430000   6.2669993      53.347585      365.24509    
   4440000   17.706657      39.187308      268.29653    
   4450000   15.689112      47.686079      326.4835     
   4460000   12.133218      48.329564      330.88913    
   4470000   4.9802646      42.107114      288.28702    
   4480000   2.3783892      45.056701      308.48142    
   4490000  -7.7116854      47.778354      327.11526    
   4500000  -4.5143198      44.498246      304.65795    
   4510000   5.885568       44.571054      305.15643    
   4520000   18.587616      46.643231      319.34362    
   4530000   3.7262062      40.538021      277.54421    
   4540000  -9.9111517      52.849744      361.83661    
   4550000   5.8383346      52.332272      358.29373    
   4560000   4.696383       48.281522      330.5602     
   4570000   7.9119894      52.958612      362.58198    
   4580000   0.6432992      48.513981      332.15174    
   4590000   7.8982779      43.682832      299.0752     
   4600000  -1.7114731      55.742823      381.64412    
   4610000   2.6543321      44.005855      301.28678    
   4620000  -10.961765      50.7358        347.36346    
   4630000   1.495288       48.39457       331.33419    
   4640000  -5.3505871      53.69085       367.59525    
   4650000   9.0505954      43.779288      299.73559    
   4660000   11.495476      47.33038       324.0482     
   4670000   15.873083      43.867258      300.33787    
   4680000   18.335177      50.769663      347.5953     
   4690000   5.7091207      46.153526      315.99085    
   4700000   3.8805246      56.563569      387.26337    
   4710000   7.7887412      41.023817      280.87021    
   4720000   9.953646       42.193607      288.8792     
   4730000   4.4459868      47.955901      328.33084    
   4740000   3.0481197      61.269526      419.48278    
   4750000  -1.2376959      50.023808      342.4888     
   4760000   0.85984392     45.387329      310.74507    
   4770000   7.3854694      54.026995      369.89668    
   4780000   11.330428      47.696158      326.5525     
   4790000   12.463891      51.191999      350.48684    
   4800000   13.339936      46.037749      315.19818    
   4810000  -0.51660201     46.37255       317.4904     
   4820000   3.8041956      37.424809      256.22955    
   4830000   5.5129385      46.047443      315.26455    
   4840000  -1.868298       55.073222      377.05969    
   4850000  -1.764692       50.592919      346.38522    
   4860000  -1.9649695      49.186169      336.75389    
   4870000   19.554085      40.406208      276.64174    
   4880000   12.958861      60.801016      416.27512    
   4890000   12.441535      63.407454      434.12014    
   4900000   19.175395      46.841038      320.69791    
   4910000   12.935468      53.160341      363.96312    
   4920000   13.219881      52.297011      358.05232    
   4930000  -7.9889695      51.234976      350.78108    
   4940000   2.8970515      47.962113      328.37337    
   4950000   5.9874386      56.373285      385.96059    
   4960000   6.0993187      55.207864      377.98151    
   4970000   9.6054932      43.847026      300.19936    
   4980000   7.4332361      44.717367      306.15816    
   4990000   12.503293      44.134241      302.16578    
   5000000   14.834165      38.084627      260.747      
   5010000  -0.98955655     53.027231      363.05178    
   5020000  -9.6063581      44.984824      307.98931    
   5030000  -10.42282       43.701653      299.20406    
   5040000  -1.6864143      44.315501      303.40678    
   5050000  -2.8946541      50.2111        343.77109    
   5060000  -0.98995527     50.318567      344.50686    
   5070000  -3.6041918      51.028752      349.36916    
   5080000   7.4055872      48.450515      331.71722    
   5090000   5.1477514      41.034257      280.94169    
   5100000   14.246162      44.047982      301.57521    
   5110000   2.018033       45.987758      314.85591    
   5120000   6.0013865      53.392686      365.55387    
   5130000   12.096391      54.700255      374.50617    
   5140000   8.2203417      57.381373      392.86248    
   5150000   13.625201      48.836514      334.35997    
   5160000   4.1053116      59.494888      407.3327     
   5170000   11.11415       45.153842      309.1465     
   5180000  -0.480388       42.82362       293.19259    
   5190000  -0.66112317     47.688938      326.50307    
   5200000   3.0355791      46.37626       317.5158     
   5210000   4.2241444      50.139792      343.28288    
   5220000   14.500773      32.924814      225.42026    
   5230000   4.0611442      61.80879       423.17486    
   5240000   6.1246083      55.958514      383.12085    
   5250000   11.260885      57.09822       390.92387    
   5260000  -2.6938356      55.880866      382.58923    
   5270000  -5.0903554      50.564791      346.19264    
   5280000   10.668621      41.486013      284.03465    
   5290000  -2.3548753      46.346652      317.31309    
   5300000   1.7906992      38.147769      261.17931    
   5310000   3.7908748      44.312661      303.38734    
   5320000   0.072987108    44.027142      301.43252    
   5330000   14.061322      41.085605      281.29324    
   5340000   22.004756      49.268653      337.31862    
   5350000   11.787374      56.314453      385.5578     
   5360000   12.797781      47.955194      328.32599    
   5370000  -1.0970808      47.197005      323.13504    
   5380000   4.879402       42.003261      287.576      
   5390000   2.8785321      40.829047      279.53672    
   5400000   2.4761755      45.072358      308.58861    
   5410000  -0.4383273      49.072607      335.97638    
   5420000  -4.6889382      53.087329      363.46324    
   5430000  -12.616772      54.180585      370.94824    
   5440000  -7.2951737      48.357326      331.0792     
   5450000  -9.9003618      44.812357      306.80851    
   5460000  -1.8959705      60.680862      415.45249    
   5470000   8.3093499      47.69077       326.51561    
   5480000   3.1671829      54.96643       376.32853    
   5490000  -4.9131527      58.568708      400.99159    
   5500000   15.115407      51.769018      354.4374     
   5510000   8.1219992      54.528658      373.33132    
   5520000   8.7776295      42.555084      291.35405    
   5530000   9.0105369      45.796973      313.5497     
   5540000   15.544359      57.603962      394.38644    
   5550000   15.41388       49.463088      338.64981    
   5560000   18.546971      36.800123      251.95262    
   5570000   27.035825      45.054984      308.46966    
   5580000   10.383911      54.596376      373.79495    
   5590000   3.9377955      56.227401      384.96179    
   5600000   11.537724      49.528841      339.09999    
   5610000   9.2949494      49.904753      341.67369    
   5620000   18.145303      52.980828      362.73408    
   5630000   14.672862      55.27908       378.4691     
   5640000   20.776358      46.134754      315.86233    
   5650000   16.61748       46.121616      315.77238    
   5660000   18.697183      41.506804      284.17699    
   5670000   11.557154      58.509384      400.58542    
   5680000   22.342824      50.219521      343.82875    
   5690000   8.0850599      51.800291      354.65151    
   5700000   28.125397      47.468389      324.99307    
   5710000   36.469311      62.329867      426.74242    
   5720000   18.645919      46.072628      315.43698    
   5730000   18.663634      46.698315      319.72076    
   5740000   2.5371579      50.350364      344.72457    
   5750000   7.6750129      49.799497      340.95305    
   5760000   24.139893      51.34303       351.52087    
   5770000   26.374106      51.097345      349.83879    
   5780000   20.556593      47.391722      324.46817    
   5790000   20.272745      57.875124      396.24296    
   5800000  -0.14090128     53.572676      366.78617    
   5810000   3.917046       50.388565      344.98611    
   5820000   0.8938797      52.048205      356.34886    
   5830000   17.424676      48.987163      335.39139    
   5840000   39.685303      50.686704      347.02732    
   5850000   28.945443      59.536999      407.621      
   5860000   32.683089      53.943555      369.32541    
   5870000   31.534978      44.919316      307.54081    
   5880000   33.755373      48.54796       332.38438    
   5890000   25.782336      53.231526      364.45049    
   5900000   21.218218      41.768878      285.97129    
   5910000   19.821024      53.2632        364.66734    
   5920000   31.081293      48.325282      330.85981    
   5930000   24.976459      60.532808      414.43883    
   5940000   24.209581      48.284589      330.58121    
   5950000   24.535854      48.407832      331.42499    
   5960000   30.278395      44.936274      307.65691    
   5970000   26.291446      44.472627      304.48255    
   5980000   29.317045      54.067041      370.17085    
   5990000   31.459366      48.18407       329.893      
   6000000   36.007682      45.104671      308.80984    
   6010000   33.093235      59.632082      408.27199    
   6020000   29.987522      55.654707      381.04083    
   6030000   23.846967      62.385229      427.12146    
   6040000   26.559432      51.843918      354.95021    
   6050000   25.985552      52.479714      359.30319    
   6060000   23.334475      49.262403      337.27582    
   6070000   19.020468      65.168414      446.17658    
   6080000   25.87133       48.22912       330.20144    
   6090000   19.180814      42.903167      293.73722    
   6100000   41.014722      62.213711      425.94716    
   6110000   35.218253      59.463671      407.11897    
   6120000   37.099491      49.001662      335.49066    
   6130000   48.012288      47.82444       327.43079    
   6140000   23.528789      51.0738        349.67758    
   6150000   13.822385      45.50696       311.56412    
   6160000   21.745115      44.287788      303.21704    
   6170000   9.6439661      55.793782      381.99301    
   6180000  -1.6487033      65.023547      445.18475    
   6190000   11.391306      54.456876      372.83987    
   6200000   22.950939      48.24293       330.29598    
   6210000   28.168974      43.788068      299.7957     
   6220000   28.213597      64.383446      440.80229    
   6230000   33.575281      48.966956      335.25304    
   6240000   32.194124      45.675215      312.71609    
   6250000   30.113537      65.342137      447.36597    
   6260000   30.414149      46.765997      320.18414    
   6270000   32.084632      55.647647      380.9925     
   6280000   44.709488      63.066961      431.78895    
   6290000   39.963275      53.915702      369.13471    
   6300000   36.445621      59.094289      404.58999    
   6310000   31.928263      56.928315      389.76061    
   6320000   20.431785      54.235525      371.32438    
   6330000   22.723763      38.755948      265.34321    
   6340000   6.6276525      55.007163      376.60741    
   6350000   18.601287      55.576762      380.50718    
   6360000   19.873028      48.153572      329.68419    
   6370000   23.630724      53.675687      367.49144    
   6380000   20.673546      50.587588      346.34872    
   6390000   21.676168      48.38233       331.25039    
   6400000   23.054285      48.633617      332.97083    
   6410000   19.913239      52.103574      356.72795    
   6420000   26.311578      42.985359      294.29994    
   6430000   29.860579      51.89953       355.33096    
   6440000   25.734522      43.10068       295.08949    
   6450000   21.506558      47.890109      327.88039    
   6460000   32.282441      50.696896      347.0971     
   6470000   20.21241       65.860255      450.91328    
   6480000   17.568304      51.267212      351.00178    
   6490000   32.114594      54.841838      375.47551    
   6500000   29.825209      54.328625      371.96179    
   6510000   38.509726      59.455333      407.06188    
   6520000   27.670297      54.304771      371.79847    
   6530000   24.663164      57.284101      392.1965     
   6540000   34.748112      49.724614      340.44036    
   6550000   33.071292      53.173972      364.05644    
   6560000   34.439383      47.409869      324.59242    
   6570000   29.057243      45.578362      312.05298    
   6580000   26.684965      46.45129       318.02949    
   6590000   37.243643      55.737963      381.61085    
   6600000   24.715466      60.180948      412.02981    
   6610000   36.720493      54.006843      369.75871    
   6620000   32.668484      54.519188      373.26649    
   6630000   46.279304      55.171145      377.73012    
   6640000   40.54107       52.805133      361.53118    
   6650000   30.451829      57.631535      394.57522    
   6660000   9.7461494      57.056531      390.63844    
   6670000   35.880034      57.747625      395.37003    
   6680000   35.091877      50.482543      345.62953    
   6690000   35.75017       57.652602      394.71945    
   6700000   38.243389      49.501849      338.91519    
   6710000   27.671032      49.382408      338.09744    
   6720000   26.775481      48.084757      329.21305    
   6730000   30.9536        65.585923      449.03506    
   6740000   40.037154      67.865278      464.6407     
   6750000   46.045283      66.809484      457.41219    
   6760000   37.683612      58.919683      403.39455    
   6770000   40.62621       50.823218      347.96197    
   6780000   38.947452      59.601593      408.06325    
   6790000   28.70719       47.671079      326.3808     
   6800000   31.56593       49.213886      336.94365    
   6810000   34.622436      54.006318      369.75511    
   6820000   27.753752      58.342608      399.44359    
   6830000   29.94497       50.65933       346.83991    
   6840000   29.250635      57.118013      391.05938    
   6850000   32.344028      57.503094      393.69584    
   6860000   32.238291      57.763076      395.47582    
   6870000   32.142587      61.400606      420.38023    
   6880000   33.929155      50.3455        344.69126    
   6890000   38.236281      48.766188      333.87848    
   6900000   38.843723      55.718157      381.47524    
   6910000   34.596635      56.960051      389.97789    
   6920000   29.901952      47.078429      322.32321    
   6930000   30.740692      48.427991      331.56301    
   6940000   31.863014      57.286519      392.21306    
   6950000   34.756449      47.30656       323.88511    
   6960000   32.730654      52.671489      360.61618    
   6970000   36.172554      49.476794      338.74365    
   6980000   38.304291      45.874781      314.08242    
   6990000   25.57544       50.954025      348.85754    
   7000000   24.743698      66.430534      454.81771    
   7010000   24.436304      45.579658      312.06185    
   7020000   36.348939      46.984239      321.67834    
   7030000   37.599249      51.690907      353.90261    
   7040000   35.300686      53.436245      365.8521     
   7050000   40.257349      52.259279      357.79398    
   7060000   35.751792      48.337892      330.94615    
   7070000   32.035399      57.610896      394.43391    
   7080000   31.236031      46.86869       320.88723    
   7090000   37.949689      48.933105      335.02128    
   7100000   35.158994      51.329112      351.42558    
   7110000   23.961935      53.853481      368.70871    
   7120000   34.014089      61.817656      423.23556    
   7130000   39.560846      56.683009      388.08112    
   7140000   31.457806      43.807231      299.9269     
   7150000   33.856758      51.939248      355.60289    
   7160000   26.584926      55.513206      380.07204    
   7170000   33.356582      51.390237      351.84407    
   7180000   30.471126      51.978678      355.87284    
   7190000   24.486311      62.303348      426.56086    
   7200000   33.556671      53.13254       363.77278    
   7210000   35.925208      64.977059      444.86646    
   7220000   43.112524      71.253797      487.84025    
   7230000   34.216844      80.469402      550.93503    
   7240000   45.608039      64.194769      439.5105     
   7250000   35.689506      62.294287      426.49883    
   7260000   39.29807       62.256809      426.24223    
   7270000   31.736115      54.555435      373.51465    
   7280000   33.50431       64.695636      442.9397     
   7290000   27.244191      56.382472      386.02349    
   7300000   32.090632      53.048725      363.19894    
   7310000   36.544702      48.936317      335.04327    
   7320000   29.59881       56.781049      388.75235    
   7330000   28.307685      54.85521       375.56706    
   7340000   38.027016      47.660295      326.30697    
   7350000   42.177461      48.480425      331.922      
   7360000   34.180995      70.528522      482.87465    
   7370000   36.965666      55.041151      376.84011    
   7380000   38.132925      41.407559      283.49751    
   7390000   28.008777      54.365355      372.21326    
   7400000   27.145837      56.492787      386.77876    
   7410000   28.951548      63.176165      432.53662    
   7420000   30.078341      66.632158      456.19813    
   7430000   29.064048      65.730015      450.02159    
   7440000   35.789379      60.822893      416.4249     
   7450000   32.470536      58.232452      398.68941    
   7460000   43.219204      54.183119      370.96559    
   7470000   40.904419      55.113144      377.33301    
   7480000   36.063546      57.310323      392.37603    
   7490000   39.354384      47.832573      327.48647    
   7500000   31.695822      58.578312      401.05734    
   7510000   30.079548      51.75421       354.33602    
   7520000   35.028501      66.58817       455.89696    
   7530000   39.326177      64.035055      438.41702    
   7540000   35.017756      56.754048      388.56749    
   7550000   39.426179      47.131363      322.68562    
   7560000   35.829654      58.374441      399.66154    
   7570000   31.338039      59.596211      408.0264     
   7580000   35.889065      55.059202      376.9637     
   7590000   34.642569      52.285849      357.97589    
   7600000   29.781975      57.983131      396.98242    
   7610000   44.657045      61.754356      422.80218    
   7620000   42.004725      64.67073       442.76918    
   7630000   35.665677      66.470136      455.08884    
   7640000   27.671819      62.7607        429.69213    
   7650000   37.567518      56.208183      384.83022    
   7660000   39.475021      60.46717       413.98944    
   7670000   27.972697      63.026682      431.51318    
   7680000   26.973773      60.19067       412.09637    
   7690000   39.619851      52.999895      362.86462    
   7700000   33.831103      46.33357       317.22352    
   7710000   37.523964      58.004839      397.13105    
   7720000   42.529984      52.671572      360.61675    
   7730000   35.908439      61.500111      421.06148    
   7740000   36.539056      54.734255      374.73894    
   7750000   26.642293      57.473019      393.48994    
   7760000   32.080001      59.860619      409.83668    
   7770000   37.37593       57.445972      393.30476    
   7780000   34.149379      55.229217      378.12771    
   7790000   33.56656       52.219588      357.52224    
   7800000   17.354166      69.221368      473.92519    
   7810000   29.71421       56.581549      387.38648    
   7820000   28.064703      57.724336      395.21058    
   7830000   28.846656      54.961444      376.2944     
   7840000   36.743475      47.711013      326.65421    
   7850000   37.657878      55.052065      376.91484    
   7860000   32.469808      56.369791      385.93667    
   7870000   30.159573      66.24465       453.54504    
   7880000   35.308521      67.331888      460.98884    
   7890000   43.224007      72.327413      495.19078    
   7900000   36.1062        80.597721      551.81357    
   7910000   38.099723      68.067978      466.02849    
   7920000   35.582197      75.493452      516.86712    
   7930000   46.681908      55.803077      382.05665    
   7940000   43.69453       44.184969      302.51309    
   7950000   37.755832      59.282388      405.87781    
   7960000   33.070483      65.893012      451.13755    
   7970000   29.670861      71.724365      491.062      
   7980000   38.852433      50.615351      346.5388     
   7990000   48.517697      58.298412      399.141      
   8000000   37.817365      60.963449      417.38722    
   8010000   29.556927      64.364905      440.67535    
   8020000   33.781132      64.029241      438.37722    
   8030000   34.455712      60.934784      417.19097    
   8040000   29.664929      62.744981      429.58451    
   8050000   32.85827       54.779516      375.04883    
   8060000   30.689988      62.306659      426.58353    
   8070000   32.421742      54.165398      370.84426    
   8080000   51.400387      47.838409      327.52642    
   8090000   34.260451      64.110981      438.93685    
   8100000   31.340466      56.287112      385.37061    
   8110000   35.078471      63.255964      433.08296    
   8120000   34.226415      50.587847      346.35049    
   8130000   29.809862      55.075203      377.07325    
   8140000   35.803453      58.548953      400.85634    
   8150000   37.432223      47.269948      323.63445    
   8160000   34.255729      56.161501      384.5106     
   8170000   41.083013      68.876294      471.56264    
   8180000   30.737704      56.574232      387.33638    
   8190000   41.295133      54.023326      369.87156    
   8200000   34.208939      60.103361      411.49861    
   8210000   35.938313      55.986078      383.30957    
   8220000   46.820264      46.574301      318.87169    
   8230000   35.029188      69.121611      473.24221    
   8240000   30.768603      61.99765       424.46789    
   8250000   35.505913      51.07762       349.70373    
   8260000   48.45846       64.409355      440.97967    
   8270000   38.895108      66.719688      456.7974     
   8280000   23.991046      58.231422      398.68235    
   8290000   39.128102      53.785321      368.24205    
   8300000   36.146917      70.400851      482.00054    
   8310000   47.144368      64.441486      441.19965    
   8320000   41.437837      68.278987      467.47317    
   8330000   34.085696      69.93673       478.82293    
   8340000   35.20647       53.821368      368.48885    
   8350000   32.845307      54.079517      370.25627    
   8360000   31.63161       50.867805      348.26723    
   8370000   31.062011      52.867218      361.95625    
   8380000   41.459923      65.603283      449.15391    
   8390000   42.374755      61.934332      424.03438    
   8400000   47.134595      73.945168      506.26676    
   8410000   43.881807      57.794381      395.69015    
   8420000   39.308572      59.134566      404.86574    
   8430000   41.299194      67.664064      463.26309    
   8440000   24.903219      55.767186      381.81092    
   8450000   33.870154      64.155799      439.2437     
   8460000   43.938695      55.255049      378.30457    
   8470000   40.736709      56.818145      389.00633    
   8480000   23.93811       54.473688      372.95497    
   8490000   37.089619      55.562323      380.40832    
   8500000   44.245296      53.011968      362.94728    
   8510000   44.717342      74.818238      512.24425    
   8520000   36.692627      67.967838      465.34288    
   8530000   50.122947      56.571277      387.31614    
   8540000   49.250089      51.017412      349.29152    
   8550000   41.390026      60.205557      412.1983     
   8560000   29.629471      67.681231      463.38062    
   8570000   36.768387      48.194779      329.96632    
   8580000   44.47749       56.955034      389.94354    
   8590000   42.292773      91.591033      627.07946    
   8600000   43.138682      71.557279      489.91804    
   8610000   39.510176      65.467929      448.22721    
   8620000   24.439103      75.684169      518.17286    
   8630000   37.456068      56.534439      387.06393    
   8640000   36.492406      58.778908      402.43073    
   8650000   36.705779      69.510417      475.90417    
   8660000   37.324811      74.5458        510.379      
   8670000   35.139738      63.434344      434.30424    
   8680000   36.248384      52.896403      362.15606    
   8690000   35.467301      62.699156      429.27076    
   8700000   39.779839      48.329223      330.88679    
   8710000   37.937039      60.657295      415.29113    
   8720000   36.137623      59.664877      408.49653    
   8730000   40.471668      56.280408      385.3247     
   8740000   36.085298      65.691922      449.76079    
   8750000   45.08003       64.373216      440.73224    
   8760000   42.288788      63.71919       436.25444    
   8770000   42.503585      62.234172      426.08725    
   8780000   48.752272      62.02696       424.66856    
   8790000   38.9634        72.595986      497.02957    
   8800000   44.616145      59.051737      404.29866    
   8810000   36.988961      62.717426      429.39585    
   8820000   43.421649      60.37643       413.36819    
   8830000   41.892204      67.224614      460.25439    
   8840000   35.391847      71.115969      486.89661    
   8850000   42.870584      67.95988       465.28839    
   8860000   35.442602      55.606983      380.71409    
   8870000   35.610784      51.428271      352.10447    
   8880000   30.262128      55.362776      379.04212    
   8890000   33.675086      56.36611       385.91147    
   8900000   45.088621      54.064787      370.15542    
   8910000   43.041649      60.065784      411.24134    
   8920000   35.930765      62.733109      429.50323    
   8930000   38.125401      57.689926      394.97499    
   8940000   34.503068      67.84306       464.48859    
   8950000   42.800693      78.938465      540.45345    
   8960000   38.137156      58.733675      402.12104    
   8970000   53.866122      66.838723      457.61238    
   8980000   41.790963      72.49697       496.35165    
   8990000   43.931277      65.759174      450.22123    
   9000000   50.663804      70.045013      479.56429    
   9010000   49.482082      49.960938      342.05835    
   9020000   46.138927      52.46474       359.20068    
   9030000   37.592538      59.493773      407.32506    
   9040000   34.4913        73.801073      505.28022    
   9050000   30.687471      69.216817      473.89403    
   9060000   37.749881      64.923634      444.50069    
   9070000   37.927714      64.668711      442.75535    
   9080000   45.595245      61.0766        418.16191    
   9090000   46.379769      56.818819      389.01094    
   9100000   26.892066      71.633157      490.43754    
   9110000   37.447223      64.028387      438.37137    
   9120000   35.643897      61.563859      421.49794    
   9130000   36.254262      49.358074      337.93083    
   9140000   41.238517      58.432928      400.06196    
   9150000   40.269486      59.215929      405.4228     
   9160000   26.343875      54.531699      373.35214    
   9170000   30.533369      65.871206      450.98825    
   9180000   31.415881      70.701547      484.05926    
   9190000   33.149704      70.758284      484.44771    
   9200000   43.102583      52.770862      361.29654    
   9210000   46.554838      58.430576      400.04586    
   9220000   48.725577      61.850781      423.46235    
   9230000   37.465038      66.030062      452.07586    
   9240000   45.91711       67.955526      465.25859    
   9250000   31.334065      76.142153      521.30846    
   9260000   41.229438      65.755263      450.19445    
   9270000   37.525853      57.836324      395.97731    
   9280000   53.015851      49.809803      341.0236     
   9290000   45.21561       65.245099      446.70161    
   9300000   34.248963      71.651805      490.56522    
   9310000   34.668747      75.227811      515.0484     
   9320000   34.198416      70.909957      485.48614    
   9330000   43.202669      74.767792      511.89887    
   9340000   34.115445      58.196128      398.44071    
   9350000   28.012941      62.975967      431.16596    
   9360000   30.695474      66.36648       454.37916    
   9370000   40.526608      55.410145      379.36643    
   9380000   42.653277      63.064903      431.77486    
   9390000   41.303333      65.103206      445.73013    
   9400000   39.8095        58.673479      401.7089     
   9410000   46.364988      70.457766      482.39021    
   9420000   53.267401      67.26273       460.51535    
   9430000   32.816594      58.266107      398.91982    
   9440000   35.527203      55.693358      381.30546    
   9450000   39.845419      54.471829      372.94224    
   9460000   45.46753       68.062867      465.9935     
   9470000   39.088094      79.08666       541.46807    
   9480000   41.531862      68.438742      468.56693    
   9490000   41.499286      80.186787      549.00011    
   9500000   43.313686      63.190241      432.63299    
   9510000   42.587211      63.843255      437.10385    
   9520000   47.346717      68.519463      469.11959    
   9530000   47.523725      70.859012      485.13735    
   9540000   43.478829      66.033874      452.10196    
   9550000   36.424906      69.079609      472.95464    
   9560000   44.280167      84.473736      578.35078    
   9570000   47.116667      73.185455      501.06538    
   9580000   47.557071      71.024035      486.26718    
   9590000   47.996348      71.975484      492.78129    
   9600000   45.920495      62.908849      430.70643    
   9610000   39.874168      80.181526      548.96409    
   9620000   35.50343       62.732962      429.50222    
   9630000   42.677634      58.248792      398.80128    
   9640000   40.116458      65.367926      447.54254    
   9650000   52.576319      51.29993       351.22579    
   9660000   51.054547      63.407437      434.12002    
   9670000   34.609647      69.633096      476.74409    
   9680000   36.287786      65.164473      446.1496     
   9690000   33.941632      65.886953      451.09607    
   9700000   45.750149      66.766842      457.12024    
   9710000   38.595876      73.29939       501.84544    
   9720000   43.672941      74.157454      507.72018    
   9730000   38.713991      79.288339      542.84887    
   9740000   38.084324      70.489466      482.60725    
   9750000   43.487582      59.305493      406.036      
   9760000   45.966088      58.254895      398.84306    
   9770000   41.577678      73.931557      506.17358    
   9780000   40.77263       64.668952      442.757      
   9790000   41.786463      58.242585      398.75878    
   9800000   44.27298       76.341549      522.67362    
   9810000   48.833839      62.787125      429.87305    
   9820000   46.067046      64.498453      441.58968    
   9830000   36.342814      68.85219       471.39761    
   9840000   40.650438      56.192969      384.72605    
   9850000   24.697887      64.317202      440.34875    
   9860000   35.368023      61.802716      423.13328    
   9870000   42.832158      77.511623      530.68456    
   9880000   36.81883       77.437255      530.17539    
   9890000   33.227669      69.066162      472.86257    
   9900000   41.150538      59.039392      404.21413    
   9910000   47.072243      71.479898      489.38826    
   9920000   48.325449      68.367569      468.07964    
   9930000   49.400584      70.810586      484.8058     
   9940000   38.515627      64.428339      441.10964    
   9950000   33.977917      75.126267      514.35318    
   9960000   42.053392      72.38954       495.61614    
   9970000   41.666557      72.196785      494.29643    
   9980000   44.245831      58.963388      403.69377    
   9990000   35.622161      75.620609      517.7377     
  10000000   53.959935      68.96494       472.16956    
  10010000   45.333658      56.98361       390.13919    
  10020000   33.710452      59.695937      408.70918    
  10030000   35.306225      49.676574      340.11145    
  10040000   26.03494       63.639981      435.71214    
  10050000   36.47925       64.952035      444.69513    
  10060000   48.585601      64.735501      443.21263    
  10070000   38.526834      74.007426      506.69301    
  10080000   36.486416      66.509382      455.35754    
  10090000   46.572985      68.250538      467.27839    
  10100000   41.198674      66.577697      455.82526    
  10110000   46.139507      65.292981      447.02943    
  10120000   34.011839      68.935302      471.96664    
  10130000   32.888353      69.939303      478.84055    
  10140000   39.259113      57.467215      393.4502     
  10150000   43.03056       72.535387      496.61467    
  10160000   56.431997      69.921549      478.71899    
  10170000   40.243523      102.43384      701.31489    
  10180000   52.67459       67.326539      460.95222    
  10190000   53.266512      78.369201      536.55598    
  10200000   43.554775      75.05306       513.85197    
  10210000   42.806586      84.860273      580.9972     
  10220000   35.584698      64.523043      441.75804    
  10230000   41.113984      64.163682      439.29767    
  10240000   41.365772      55.288803      378.53567    
  10250000   43.731475      59.879493      409.9659     
  10260000   48.947006      67.228102      460.27827    
  10270000   40.994457      79.45352       543.97979    
  10280000   50.036473      74.724373      511.60161    
  10290000   42.326742      76.860073      526.22371    
  10300000   57.973811      67.140095      459.67573    
  10310000   40.329568      54.613868      373.91471    
  10320000   43.551864      76.528741      523.95524    
  10330000   42.425815      66.44018       454.88375    
  10340000   51.815149      71.031999      486.32171    
  10350000   42.376336      75.044687      513.79464    
  10360000   37.273809      57.180128      391.48465    
  10370000   48.197322      75.143352      514.47015    
  10380000   35.866792      73.548985      503.55429    
  10390000   49.225524      67.595527      462.79384    
  10400000   43.786287      62.798936      429.95391    
  10410000   38.110993      69.773697      477.70672    
  10420000   40.03383       68.829776      471.24415    
  10430000   41.331866      56.14471       384.39565    
  10440000   38.357635      61.567012      421.51953    
  10450000   29.539396      69.54067       476.1113     
  10460000   41.997062      53.456648      365.99179    
  10470000   36.385775      65.996253      451.84439    
  10480000   38.491376      72.23478       494.55657    
  10490000   43.287968      68.456578      468.68905    
  10500000   42.856225      59.18514       405.212      
  10510000   48.388318      66.270757      453.72379    
  10520000   40.707507      71.974921      492.77744    
  10530000   40.440821      72.187173      494.23062    
  10540000   34.594204      77.705903      532.01469    
  10550000   30.489438      71.350864      488.50482    
  10560000   44.806453      68.451932      468.65724    
  10570000   40.023873      69.416076      475.25827    
  10580000   33.010301      71.90545       492.3018     
  10590000   42.22224       76.254778      522.07955    
  10600000   38.306308      67.048039      459.04546    
  10610000   37.840617      56.195436      384.74295    
  10620000   38.514708      63.33798       433.64448    
  10630000   48.530232      70.599496      483.36057    
  10640000   50.619709      53.426147      365.78297    
  10650000   35.948097      53.97274       369.52522    
  10660000   36.179995      68.319707      467.75196    
  10670000   36.915368      64.704265      442.99878    
  10680000   42.609858      60.082327      411.3546     
  10690000   41.430953      60.697627      415.56726    
  10700000   43.876008      54.32228       371.91835    
  10710000   41.926424      62.235478      426.09618    
  10720000   38.889864      58.672277      401.70067    
  10730000   36.923232      71.885098      492.16246    
  10740000   43.717113      61.684257      422.32224    
  10750000   47.781036      66.077715      452.40212    
  10760000   64.045777      66.889916      457.96287    
  10770000   35.920572      80.360086      550.1866     
  10780000   57.414616      71.180728      487.33998    
  10790000   39.651814      77.709126      532.03677    
  10800000   43.095217      63.501159      434.76169    
  10810000   53.672055      70.893755      485.37522    
  10820000   56.199733      65.827203      450.68699    
  10830000   50.442368      70.475915      482.51447    
  10840000   54.294629      75.093537      514.12909    
  10850000   57.656808      65.006713      445.06949    
  10860000   47.223681      86.7679        594.05781    
  10870000   54.695514      80.649856      552.17052    
  10880000   54.235274      83.894389      574.38427    
  10890000   38.196333      86.850861      594.62579    
  10900000   40.230286      75.288304      515.46256    
  10910000   42.059881      74.41947       509.51408    
  10920000   39.80187       77.743217      532.27017    
  10930000   49.082597      72.242929      494.61236    
  10940000   47.312568      73.770515      505.071      
  10950000   37.919024      67.420572      461.59602    
  10960000   38.358088      61.830179      423.3213     
  10970000   42.990725      64.587271      442.19778    
  10980000   44.630848      71.104807      486.82019    
  10990000   35.857075      66.959526      458.43945    
  11000000   33.199296      73.61631       504.01523    
  11010000   44.256037      61.32342       419.85177    
  11020000   36.857268      69.364874      474.90771    
  11030000   46.914323      81.113007      555.34149    
  11040000   48.526798      66.760064      457.07384    
  11050000   35.624313      67.461011      461.87288    
  11060000   40.201162      70.122364      480.09388    
  11070000   40.65581       62.48432       427.79989    
  11080000   34.693191      75.779149      518.82314    
  11090000   41.976729      70.002448      479.27287    
  11100000   37.892419      67.730437      463.71751    
  11110000   38.317444      72.393053      495.64019    
  11120000   49.304495      70.554289      483.05106    
  11130000   41.707997      69.509155      475.89553    
  11140000   38.11128       66.78219       457.22533    
  11150000   44.998485      75.840958      519.24632    
  11160000   38.234583      66.903261      458.05423    
  11170000   40.706829      75.539934      517.18536    
  11180000   51.690664      70.294221      481.2705     
  11190000   44.073097      89.466426      612.5333     
  11200000   49.224928      77.080225      527.73098    
  11210000   33.516282      75.904456      519.68106    
  11220000   37.47387       68.772741      470.85366    
  11230000   50.764925      73.897272      505.93885    
  11240000   56.826156      64.663524      442.71984    
  11250000   46.294658      82.096059      562.07197    
  11260000   46.999541      68.169591      466.72419    
  11270000   45.385833      62.082417      425.04825    
  11280000   41.531696      82.87984       567.43814    
  11290000   32.074797      70.1577        480.3358     
  11300000   55.444184      84.123481      575.95275    
  11310000   54.885142      90.594102      620.25396    
  11320000   39.729349      89.884463      615.3954     
  11330000   51.166289      92.545712      633.61568    
  11340000   57.439713      75.925216      519.82319    
  11350000   41.891284      74.719079      511.56536    
  11360000   48.797461      63.811959      436.88959    
  11370000   41.585716      74.027617      506.83126    
  11380000   54.792475      79.340244      543.20424    
  11390000   40.923468      80.893342      553.83755    
  11400000   41.097776      85.881922      587.99194    
  11410000   46.947352      72.315213      495.10725    
  11420000   50.068293      62.562663      428.33627    
  11430000   44.4667        85.919118      588.2466     
  11440000   59.139351      66.178613      453.09292    
  11450000   41.977618      68.543665      469.28529    
  11460000   56.01533       76.312467      522.47451    
  11470000   42.173061      69.922128      478.72296    
  11480000   50.339121      74.379532      509.24065    
  11490000   48.333221      70.007701      479.30883    
  11500000   44.424956      75.058698      513.89057    
  11510000   40.471361      55.745854      381.66488    
  11520000   39.220562      73.685794      504.49096    
  11530000   47.548902      63.716277      436.2345     
  11540000   42.724461      85.29246       583.95618    
  11550000   52.907414      68.494749      468.95039    
  11560000   48.486376      63.402953      434.08932    
  11570000   47.589215      58.153818      398.15104    
  11580000   46.042083      62.372321      427.03308    
  11590000   51.340456      77.220186      528.68923    
  11600000   34.975117      89.769802      614.61037    
  11610000   49.184072      72.035832      493.19447    
  11620000   56.105583      61.72725       422.6166     
  11630000   43.276521      70.235235      480.86665    
  11640000   42.198183      71.55078       489.87355    
  11650000   49.170896      65.054623      445.3975     
  11660000   42.474109      82.224179      562.94915    
  11670000   40.041535      71.929469      492.46625    
  11680000   42.959993      73.969185      506.4312     
  11690000   51.84733       74.443727      509.68016    
  11700000   48.892743      70.818537      484.86024    
  11710000   57.528146      65.394108      447.72179    
  11720000   48.753873      87.513342      599.16148    
  11730000   46.115503      72.199427      494.31452    
  11740000   47.380152      66.489233      455.21959    
  11750000   41.7566        67.53414       462.37356    
  11760000   44.801985      74.291385      508.63714    
  11770000   42.564592      69.033013      472.63562    
  11780000   65.31441       81.956921      561.11936    
  11790000   41.858158      79.651321      545.33403    
  11800000   50.128802      87.603219      599.77682    
  11810000   46.095438      86.900026      594.96241    
  11820000   63.615102      68.43763       468.55932    
  11830000   49.207691      79.40376       543.6391     
  11840000   50.946378      77.223423      528.71139    
  11850000   43.909042      72.689662      497.67092    
  11860000   36.215876      54.445541      372.76226    
  11870000   41.441307      66.679324      456.52105    
  11880000   35.246267      74.118657      507.45456    
  11890000   46.561447      74.345629      509.00853    
  11900000   52.398806      78.252252      535.75528    
  11910000   44.800167      71.179448      487.33122    
  11920000   45.476336      77.940951      533.62396    
  11930000   41.612515      75.684032      518.17192    
  11940000   41.051534      65.367018      447.53633    
  11950000   38.896099      73.287844      501.76639    
  11960000   47.193312      71.401319      488.85026    
  11970000   43.890971      66.26848       453.7082     
  11980000   41.144592      89.685587      614.03379    
  11990000   39.644345      64.802646      443.67234    
  12000000   30.157603      73.737055      504.84191    
Loop time of 129.171 on 1 procs for 8000000 steps with 50 atoms

Performance: 53510.396 ns/day, 0.000 hours/ns, 61933.328 timesteps/s, 3.097 Matom-step/s
99.2% CPU use with 1 MPI tasks x 1 OpenMP threads

MPI task timing breakdown:
Section |  min time  |  avg time  |  max time  |%varavg| %total
---------------------------------------------------------------
Pair    | 93.595     | 93.595     | 93.595     |   0.0 | 72.46
Bond    | 19.021     | 19.021     | 19.021     |   0.0 | 14.73
Neigh   | 2.852      | 2.852      | 2.852      |   0.0 |  2.21
Comm    | 3.2286     | 3.2286     | 3.2286     |   0.0 |  2.50
Output  | 0.1581     | 0.1581     | 0.1581     |   0.0 |  0.12
Modify  | 9.204      | 9.204      | 9.204      |   0.0 |  7.13
Other   |            | 1.113      |            |       |  0.86

Nlocal:             50 ave          50 max          50 min
Histogram: 1 0 0 0 0 0 0 0 0 0
Nghost:              0 ave           0 max           0 min
Histogram: 1 0 0 0 0 0 0 0 0 0
Neighs:            188 ave         188 max         188 min
Histogram: 1 0 0 0 0 0 0 0 0 0

Total # of neighbors = 188
Ave neighs/atom = 3.76
Ave special neighs/atom = 5.76
Neighbor list builds = 21685
Dangerous builds = 0

  # Hold at 500
  variable seedHH equal 45000+${c}
  variable seedHH equal 45000+1
  unfix fxl
  fix fxl all langevin ${T_high} ${T_high} 100000.0 ${seedHH}
  fix fxl all langevin 500 ${T_high} 100000.0 ${seedHH}
  fix fxl all langevin 500 500 100000.0 ${seedHH}
  fix fxl all langevin 500 500 100000.0 45001
  run ${n_holdH}
  run 8000000
Generated 0 of 6 mixed pair_coeff terms from geometric mixing rule
Per MPI rank memory allocation (min/avg/max) = 9.625 | 9.625 | 9.625 Mbytes
   Step         PotEng         KinEng          Temp     
  12000000   30.157603      73.737055      504.84191    
  12010000   35.959337      80.189265      549.01708    
  12020000   43.993576      65.922871      451.34198    
  12030000   37.491137      64.842413      443.94461    
  12040000   52.433945      77.792634      532.6085     
  12050000   51.517258      60.278205      412.69569    
  12060000   45.244057      80.695254      552.48134    
  12070000   44.62741       72.279224      494.86085    
  12080000   57.723165      79.010858      540.94909    
  12090000   42.838507      72.564216      496.81205    
  12100000   52.742761      73.183779      501.0539     
  12110000   55.927177      81.078745      555.10692    
  12120000   50.19314       87.175044      596.84532    
  12130000   40.469885      67.33581       461.01569    
  12140000   42.251398      67.477998      461.98918    
  12150000   41.491191      80.473794      550.96511    
  12160000   36.510265      71.996176      492.92296    
  12170000   48.454667      76.980656      527.04928    
  12180000   49.774633      72.551867      496.72751    
  12190000   42.822563      66.558096      455.69106    
  12200000   40.797456      63.173815      432.52053    
  12210000   44.827927      71.614225      490.30793    
  12220000   43.081879      70.229474      480.8272     
  12230000   44.24562       74.738012      511.69498    
  12240000   40.857325      61.635248      421.98671    
  12250000   44.17499       62.523317      428.06688    
  12260000   43.058247      83.40398       571.02667    
  12270000   45.121906      87.476958      598.91238    
  12280000   40.575647      76.183006      521.58816    
  12290000   51.151879      77.816143      532.76946    
  12300000   46.6499        79.349692      543.26893    
  12310000   51.391246      61.007715      417.69029    
  12320000   44.274278      72.628294      497.25077    
  12330000   54.530545      89.693095      614.0852     
  12340000   57.938307      73.252486      501.52431    
  12350000   59.860277      79.176335      542.08203    
  12360000   48.960168      85.085558      582.53962    
  12370000   52.383528      73.577052      503.74646    
  12380000   46.323145      73.946026      506.27264    
  12390000   38.756742      60.328842      413.04237    
  12400000   35.322659      73.40746       502.58534    
  12410000   37.313161      81.283197      556.5067     
  12420000   58.002468      68.913847      471.81975    
  12430000   54.35545       71.717887      491.01765    
  12440000   61.496903      73.113614      500.57352    
  12450000   44.938765      82.055023      561.79101    
  12460000   38.034285      80.529579      551.34704    
  12470000   51.859824      71.112231      486.87102    
  12480000   44.511906      77.872822      533.15751    
  12490000   45.363567      63.600788      435.44381    
  12500000   61.330408      82.919664      567.7108     
  12510000   52.565766      76.58711       524.35486    
  12520000   38.357553      74.606998      510.79799    
  12530000   38.826712      60.803448      416.29177    
  12540000   42.279192      62.980266      431.19539    
  12550000   43.029383      73.795139      505.23959    
  12560000   44.943848      83.528456      571.8789     
  12570000   42.607608      74.351202      509.04668    
  12580000   44.301805      71.987774      492.86543    
  12590000   49.794654      76.277286      522.23364    
  12600000   40.325293      76.877036      526.33985    
  12610000   45.04492       72.267451      494.78025    
[...]
 404760000   1.719091       46.269667      316.78601    
 404770000   7.4199608      41.878328      286.72064    
 404780000   2.4485936      45.693359      312.84031    
 404790000   2.2945835      47.15927       322.87669    
 404800000   2.1810712      47.839683      327.53515    
 404810000  -7.8518704      48.903629      334.81947    
 404820000  -12.834809      45.158714      309.17985    
 404830000  -13.88772       46.079489      315.48395    
 404840000  -8.5049146      54.031146      369.9251     
 404850000   1.7508272      40.8703        279.81916    
 404860000  -5.2904669      52.555253      359.82037    
 404870000  -2.3002903      37.542229      257.03347    
 404880000   2.1851411      46.028102      315.13213    
 404890000   11.734418      51.033715      349.40314    
 404900000   5.6272849      43.345565      296.7661     
 404910000   4.5539973      37.75914       258.51855    
 404920000   1.2086061      35.520616      243.19246    
 404930000   0.080224941    39.778647      272.34513    
 404940000  -1.1490608      46.648691      319.381      
 404950000   1.28449        44.253059      302.97927    
 404960000  -13.181917      41.990741      287.49027    
 404970000  -10.00443       47.877213      327.7921     
 404980000   1.4152921      45.55839       311.91624    
 404990000  -0.22739087     51.440042      352.18506    
 405000000  -2.8015038      50.061901      342.7496     
 405010000   8.3327597      37.780884      258.66742    
 405020000   5.5532208      34.248851      234.4853     
 405030000  -7.3486168      44.887414      307.32239    
 405040000   2.6558614      32.808429      224.62343    
 405050000  -2.1978342      36.256839      248.23303    
 405060000   0.090868801    39.218662      268.51119    
 405070000   5.9868688      48.399825      331.37017    
 405080000  -7.7416336      41.828687      286.38077    
 405090000  -0.58997272     37.197947      254.67633    
 405100000  -3.5531546      43.061577      294.82177    
 405110000   5.8796394      40.34016       276.18955    
 405120000  -9.2213471      58.10386       397.809      
 405130000  -6.8205577      42.853977      293.40043    
 405140000  -8.2427018      40.436503      276.84916    
 405150000  -9.2245146      40.03242       274.0826     
 405160000  -1.785307       45.334018      310.38007    
 405170000  -2.7825179      46.084752      315.51999    
 405180000  -5.9260417      43.191486      295.71119    
 405190000  -6.7290305      41.852046      286.5407     
 405200000  -5.7995401      46.13627       315.87271    
 405210000  -3.3585512      35.56297       243.48244    
 405220000  -7.565857       34.693904      237.53236    
 405230000  -17.407415      41.430463      283.65432    
 405240000  -17.184969      34.872168      238.75285    
 405250000  -25.8437        44.393763      303.9426     
 405260000  -15.502045      39.655837      271.50431    
 405270000  -26.07624       36.55792       250.29438    
 405280000  -11.407523      39.67324       271.62346    
 405290000  -12.159319      39.661949      271.54616    
 405300000  -25.398619      39.886598      273.08423    
 405310000  -14.20122       38.741971      265.24752    
 405320000  -13.499856      35.682205      244.29878    
 405330000  -13.19527       43.468293      297.60635    
 405340000   8.2601523      40.893982      279.9813     
 405350000  -0.66652678     43.809874      299.945      
 405360000   14.740119      51.345711      351.53923    
 405370000   12.925643      47.189026      323.08041    
 405380000   11.432659      53.333514      365.14875    
 405390000   5.4999208      51.852156      355.00661    
 405400000   19.044218      42.542085      291.26506    
 405410000   16.367572      46.123722      315.78679    
 405420000  -0.71520065     54.089136      370.32213    
 405430000   6.3157905      44.694601      306.00229    
 405440000   6.8097435      34.626235      237.06907    
 405450000  -4.8484957      39.940448      273.45291    
 405460000  -1.5895059      49.401603      338.22886    
 405470000   0.45751465     46.211784      316.38971    
 405480000  -5.5488297      43.839447      300.14747    
 405490000  -13.325134      41.079214      281.24949    
 405500000  -1.0769364      46.321111      317.13822    
 405510000  -5.8732852      42.400039      290.29254    
 405520000  -9.2017707      53.959067      369.43161    
 405530000   6.949033       43.440062      297.41307    
 405540000   2.9641429      44.624892      305.52503    
 405550000  -12.076542      52.622427      360.28028    
 405560000  -8.3879396      42.950055      294.05823    
 405570000  -3.1779618      49.367564      337.99581    
 405580000   6.5620868      48.05989       329.0428     
 405590000   2.134224       50.209462      343.75988    
 405600000   4.4445536      56.644915      387.82031    
 405610000   13.220329      50.967432      348.94933    
 405620000   2.9091356      47.940552      328.22575    
 405630000  -0.30370287     43.284433      296.34756    
 405640000  -2.9117444      41.148449      281.72351    
 405650000  -1.701599       40.456552      276.98642    
 405660000  -1.23091        35.357433      242.07523    
 405670000  -9.0264908      44.825985      306.90182    
 405680000  -7.464119       47.733401      326.80749    
 405690000  -5.689598       35.905678      245.82879    
 405700000  -3.269337       40.99308       280.65977    
 405710000  -1.7426877      42.972598      294.21258    
 405720000  -3.5798115      44.26684       303.07362    
 405730000  -2.8711902      38.282798      262.10379    
 405740000  -6.8426377      40.926197      280.20186    
 405750000  -16.759789      45.256094      309.84657    
 405760000  -12.513119      43.397794      297.12369    
 405770000  -7.5656544      48.124885      329.48779    
 405780000   3.4745725      43.873692      300.38192    
 405790000   2.7971985      51.838764      354.91492    
 405800000   2.842477       48.576525      332.57995    
 405810000  -4.3116602      41.050929      281.05584    
 405820000  -1.4840235      41.757674      285.89458    
 405830000  -1.1513905      41.667463      285.27695    
 405840000   3.8662194      41.278351      282.61288    
 405850000  -6.2123137      38.447449      263.23107    
 405860000  -10.889217      33.493544      229.31408    
 405870000  -9.7007924      38.244704      261.84297    
 405880000  -13.595174      39.291274      269.00833    
 405890000  -2.1662308      45.667354      312.66227    
 405900000  -5.2303164      45.34177       310.43315    
 405910000   8.7464394      39.315597      269.17486    
 405920000   2.7104593      43.901803      300.57439    
 405930000   1.0516467      41.193356      282.03096    
 405940000   0.67159651     44.723111      306.19749    
 405950000   8.6221916      39.87785       273.02433    
 405960000  -1.7093684      42.882425      293.59521    
 405970000  -1.9425603      44.599205      305.34916    
 405980000   3.8566405      44.457246      304.37724    
 405990000  -2.3971061      38.951581      266.68262    
 406000000  -4.9255143      45.703956      312.91286    
 406010000  -8.9033034      40.96594       280.47396    
 406020000  -8.0449895      41.711052      285.57538    
 406030000  -8.5421333      47.037085      322.04015    
 406040000  -3.491971       38.307219      262.27098    
 406050000  -14.395391      43.870007      300.3567     
 406060000   0.28063535     46.489394      318.29037    
 406070000  -3.6631931      42.601435      291.6714     
 406080000  -5.3687744      47.520383      325.34906    
 406090000   3.4437498      39.009639      267.08011    
 406100000  -0.13718934     41.612121      284.89805    
 406110000   4.6231418      43.578874      298.36345    
 406120000   0.97901536     42.279118      289.46465    
 406130000   6.4791291      42.396209      290.26632    
 406140000  -8.683226       42.526763      291.16016    
 406150000  -9.8925694      45.841704      313.85595    
 406160000   3.7218743      41.334452      282.99698    
 406170000   1.8453415      54.130388      370.60456    
 406180000   15.44639       41.755505      285.87973    
 406190000   1.9091234      40.847593      279.6637     
 406200000  -2.1144106      45.599915      312.20054    
 406210000   1.4492614      39.14327       267.99502    
 406220000  -2.7214029      44.202655      302.63418    
 406230000  -8.363709       41.811278      286.26158    
 406240000  -6.7818032      43.082907      294.96781    
 406250000   0.56793457     44.84739       307.04837    
 406260000  -10.74595       48.951826      335.14946    
 406270000  -6.0215919      45.819329      313.70276    
 406280000  -14.021202      54.987426      376.47229    
 406290000  -20.189546      42.585956      291.56543    
 406300000  -17.728944      40.991768      280.65079    
 406310000  -13.558532      37.269487      255.16613    
 406320000  -22.187182      41.466153      283.89867    
 406330000  -20.435779      36.81164       252.03147    
 406340000  -18.558496      46.846816      320.73747    
 406350000  -4.4713492      53.981035      369.58201    
 406360000   1.1949706      51.793135      354.60252    
 406370000  -2.8348182      53.366021      365.37131    
 406380000  -1.9792438      48.483739      331.94469    
 406390000  -4.2942136      46.989057      321.71133    
 406400000  -12.002078      35.200867      241.00329    
 406410000  -20.021341      43.188973      295.69399    
 406420000  -9.2633815      40.869701      279.81506    
 406430000  -2.9999788      41.794564      286.14714    
 406440000   8.2719432      39.146464      268.01689    
 406450000  -1.79946        45.187877      309.37952    
 406460000  -0.73233387     44.611533      305.43357    
 406470000  -15.619319      47.49938       325.20526    
 406480000  -12.001426      41.439905      283.71896    
 406490000  -7.846688       40.766333      279.10735    
 406500000   0.92138717     49.243429      337.14592    
 406510000  -0.70205201     46.68163       319.60652    
 406520000   7.590526       45.93607       314.50203    
 406530000  -9.5723016      56.824518      389.04996    
 406540000  -12.732635      39.537954      270.69723    
 406550000  -8.0524402      47.355528      324.22038    
 406560000   7.4486837      52.515736      359.54982    
 406570000  -7.892217       51.051578      349.52544    
 406580000  -16.341551      52.080948      356.57303    
 406590000  -8.3115736      42.984781      294.29599    
 406600000   2.7600405      42.02597       287.73147    
 406610000  -2.6026441      44.721332      306.18531    
 406620000   1.3224552      38.631143      264.48873    
 406630000  -9.5647395      49.03046       335.68782    
 406640000  -4.5893336      47.700281      326.58073    
 406650000  -4.5056459      52.717201      360.92915    
 406660000   8.5784915      35.774295      244.92928    
 406670000  -0.88099634     39.53793       270.69706    
 406680000  -11.986104      42.218377      289.04879    
 406690000  -2.8389538      52.855856      361.87846    
 406700000  -4.0019017      36.669131      251.05579    
 406710000  -14.323094      44.081788      301.80666    
 406720000  -23.412419      49.647155      339.91003    
 406730000  -4.5592466      43.647235      298.83149    
 406740000  -3.0088312      40.409386      276.6635     
 406750000  -5.7151357      47.046739      322.10625    
 406760000  -7.4439877      43.98978       301.17673    
 406770000  -1.9112949      48.85691       334.49961    
 406780000   6.8465439      58.968663      403.72988    
 406790000   15.496308      50.423987      345.22863    
 406800000   15.551433      52.466913      359.21555    
 406810000   21.540034      45.472013      311.32486    
 406820000   16.763414      44.376593      303.82505    
 406830000   9.9094309      57.214412      391.71938    
 406840000   7.2674502      40.325425      276.08866    
 406850000   5.1089543      47.924677      328.11706    
 406860000   8.7406011      48.250811      330.34994    
 406870000   10.163012      46.856974      320.80701    
 406880000   6.0569119      38.269221      262.01083    
 406890000  -1.2536703      48.749637      333.76516    
 406900000   8.5462117      60.295941      412.81712    
 406910000   4.7856671      50.429039      345.26322    
 406920000   1.6270919      46.556625      318.75067    
 406930000  -6.9919808      44.112556      302.01731    
 406940000   2.3570754      37.763001      258.54498    
 406950000   2.5482254      44.599848      305.35357    
 406960000  -1.2380356      53.16426       363.98995    
 406970000   0.89468307     48.838258      334.37191    
 406980000  -0.1095227      41.634594      285.05191    
 406990000  -11.577322      38.987719      266.93004    
 407000000  -0.71367789     38.461788      263.32924    
 407010000  -0.28122094     42.808415      293.08849    
 407020000   5.2525447      41.286805      282.67077    
 407030000   1.0564644      43.725068      299.36437    
 407040000  -1.6933835      43.806476      299.92173    
 407050000   4.0289906      44.113688      302.02506    
 407060000  -4.4076233      46.162275      316.05075    
 407070000   13.714071      42.279257      289.4656     
 407080000   6.9974047      39.877757      273.0237     
 407090000   2.7446038      44.143298      302.22779    
 407100000   1.5436419      51.858431      355.04957    
 407110000   9.8402614      40.151295      274.89648    
 407120000   7.3967665      49.355093      337.91042    
 407130000   13.134838      46.151717      315.97846    
 407140000   3.5846144      48.080777      329.18581    
 407150000   9.6434135      43.833785      300.1087     
 407160000  -12.882567      49.116065      336.27392    
 407170000  -8.0058007      46.679453      319.59162    
 407180000  -20.624852      44.603324      305.37736    
 407190000  -7.2749658      44.262513      303.04399    
 407200000  -11.031677      46.754384      320.10463    
 407210000  -7.4298403      41.274975      282.58977    
 407220000  -9.5401133      46.5004        318.36572    
 407230000   1.6136923      34.888744      238.86634    
 407240000  -2.3449101      41.276079      282.59733    
 407250000   6.3015641      41.829592      286.38696    
 407260000   6.0776817      47.41259       324.61105    
 407270000   14.789818      42.835381      293.27312    
 407280000   7.607926       40.871561      279.82779    
 407290000   1.5276327      48.337014      330.94013    
 407300000  -0.90936771     55.705854      381.39101    
 407310000  -3.18356        44.069664      301.72365    
 407320000  -5.7139704      50.118669      343.13826    
 407330000  -6.0488325      41.750407      285.84482    
 407340000  -12.077419      43.864651      300.32003    
 407350000  -13.751741      48.50428       332.08532    
 407360000  -14.107295      39.020168      267.1522     
 407370000   1.2639599      35.660567      244.15064    
 407380000   7.5381552      44.335095      303.54093    
 407390000   2.3057561      41.727173      285.68575    
 407400000  -5.3290132      38.344316      262.52497    
 407410000  -1.362417       37.320142      255.51295    
 407420000   0.13735463     31.232608      213.83455    
 407430000  -12.449688      43.04684       294.72087    
 407440000  -4.0963284      42.750544      292.69228    
 407450000  -4.9219213      40.167208      275.00542    
 407460000   6.5808669      43.126985      295.26959    
 407470000  -5.8228285      52.364088      358.51156    
 407480000   1.1898346      37.985388      260.06756    
 407490000  -2.1653655      33.766005      231.17949    
 407500000  -0.59423796     40.44491       276.90672    
 407510000  -8.7076391      46.670429      319.52983    
 407520000   0.30320471     40.463425      277.03348    
 407530000  -10.290518      49.605642      339.62581    
 407540000  -1.3213756      38.781993      265.52153    
 407550000  -4.0784597      46.341702      317.27919    
 407560000   6.442975       47.517856      325.33175    
 407570000  -8.2175522      50.613484      346.52602    
 407580000  -6.0644456      50.298336      344.36836    
 407590000   2.5691717      47.921205      328.09329    
 407600000  -5.9389496      35.769366      244.89553    
 407610000  -5.6008943      42.735424      292.58875    
 407620000   0.25256789     45.320161      310.2852     
 407630000   0.78857139     45.620258      312.33982    
 407640000  -3.1437506      37.831964      259.01714    
 407650000   1.8988034      50.503636      345.77394    
 407660000   7.3234619      47.811284      327.34072    
 407670000   8.1917453      47.584317      325.78678    
 407680000  -2.0999016      52.803099      361.51725    
 407690000  -0.45467801     48.70565       333.46401    
 407700000  -0.10812335     39.956744      273.56448    
 407710000   2.6891784      45.855146      313.94798    
 407720000  -3.042164       46.545538      318.67476    
 407730000   1.9259154      45.07489       308.60595    
 407740000   5.4500072      38.587498      264.18992    
 407750000  -1.2170011      42.024037      287.71823    
 407760000  -0.32655731     45.840973      313.85095    
 407770000   11.408868      48.28808       330.6051     
 407780000   18.680684      39.038646      267.27871    
 407790000   11.884867      47.309322      323.90402    
 407800000  -0.91947328     49.976999      342.16831    
 407810000   3.3153956      42.393788      290.24974    
 407820000   0.14872625     46.555523      318.74313    
 407830000  -2.3023845      45.592825      312.152      
 407840000   7.1480662      40.111016      274.62071    
 407850000   4.8827724      34.973066      239.44365    
 407860000   1.7408662      47.731598      326.79514    
 407870000   11.912215      49.9435        341.93896    
 407880000   8.9916484      41.026735      280.89019    
 407890000  -3.753244       51.501853      352.60826    
 407900000   3.7378193      47.911977      328.03011    
 407910000   8.3235757      40.354919      276.29059    
 407920000   6.8660415      40.860414      279.75147    
 407930000  -5.0851127      54.100857      370.40237    
 407940000   3.0048205      42.779732      292.89211    
 407950000   2.0441324      59.328033      406.19032    
 407960000  -3.4031301      52.577699      359.97405    
 407970000  -6.5718414      44.358875      303.70374    
 407980000   1.6129262      45.010488      308.16502    
 407990000   3.2691806      40.44998       276.94143    
 408000000   5.2058451      47.713959      326.67437    
Loop time of 116.179 on 1 procs for 4000000 steps with 50 atoms

Performance: 29747.268 ns/day, 0.001 hours/ns, 34429.709 timesteps/s, 1.721 Matom-step/s
99.2% CPU use with 1 MPI tasks x 1 OpenMP threads

MPI task timing breakdown:
Section |  min time  |  avg time  |  max time  |%varavg| %total
---------------------------------------------------------------
Pair    | 98.276     | 98.276     | 98.276     |   0.0 | 84.59
Bond    | 9.5868     | 9.5868     | 9.5868     |   0.0 |  8.25
Neigh   | 1.2199     | 1.2199     | 1.2199     |   0.0 |  1.05
Comm    | 1.7308     | 1.7308     | 1.7308     |   0.0 |  1.49
Output  | 0.083795   | 0.083795   | 0.083795   |   0.0 |  0.07
Modify  | 4.6881     | 4.6881     | 4.6881     |   0.0 |  4.04
Other   |            | 0.5937     |            |       |  0.51

Nlocal:             50 ave          50 max          50 min
Histogram: 1 0 0 0 0 0 0 0 0 0
Nghost:              0 ave           0 max           0 min
Histogram: 1 0 0 0 0 0 0 0 0 0
Neighs:            372 ave         372 max         372 min
Histogram: 1 0 0 0 0 0 0 0 0 0

Total # of neighbors = 372
Ave neighs/atom = 7.44
Ave special neighs/atom = 5.76
Neighbor list builds = 8267
Dangerous builds = 0

write_data outputs_100/${tag}_final.data
write_data outputs_100/config_03_len50_03.dat_final.data
System init for write_data ...
Generated 0 of 6 mixed pair_coeff terms from geometric mixing rule
Total wall time: 1:59:48
