
# ===============================
# FORCE FIELD
# ===============================
bond_style harmonic
bond_coeff 1 7.5 5.9

angle_style harmonic
angle_coeff 1 5.0 150.0

pair_style hybrid/overlay lj/cut 10.0 base/rna 18.0
pair_modify shift yes
pair_coeff * * lj/cut 2.0 8.9089871814

# Base-pair interactions
pair_coeff 1 1 base/rna 0.00000 3.0 13.8 1.5 0.5 1.8326 0.9425 1.8326 1.1345
pair_coeff 1 2 base/rna 0.00000 3.0 13.8 1.5 0.5 1.8326 0.9425 1.8326 1.1345
pair_coeff 1 3 base/rna 0.00000 3.0 13.8 1.5 0.5 1.8326 0.9425 1.8326 1.1345
pair_coeff 1 4 base/rna 3.33333 3.0 13.8 1.5 0.5 1.8326 0.9425 1.8326 1.1345
pair_coeff 2 2 base/rna 0.00000 3.0 13.8 1.5 0.5 1.8326 0.9425 1.8326 1.1345
pair_coeff 2 3 base/rna 5.00000 3.0 13.8 1.5 0.5 1.8326 0.9425 1.8326 1.1345
pair_coeff 2 4 base/rna 0.00000 3.0 13.8 1.5 0.5 1.8326 0.9425 1.8326 1.1345
pair_coeff 3 3 base/rna 0.00000 3.0 13.8 1.5 0.5 1.8326 0.9425 1.8326 1.1345
pair_coeff 3 4 base/rna 3.33333 3.0 13.8 1.5 0.5 1.8326 0.9425 1.8326 1.1345
pair_coeff 4 4 base/rna 0.00000 3.0 13.8 1.5 0.5 1.8326 0.9425 1.8326 1.1345

special_bonds lj 0.0 0.0 1.0
Finding 1-2 1-3 1-4 neighbors ...
  special bond factors lj:    0        0        1       
  special bond factors coul:  0        0        0       
     2 = max # of 1-2 neighbors
     2 = max # of 1-3 neighbors
     4 = max # of 1-4 neighbors
     6 = max # of special neighbors
  special bonds CPU = 0.000 seconds
neighbor 15.0 bin
neigh_modify every 10 delay 0
comm_style tiled
timestep 10

# ===============================
# DUMPS
# ===============================
dump d1 all custom ${dump_stride} outputs_100/${tag}.lammpstrj id mol type q xu yu zu
dump d1 all custom 50000 outputs_100/${tag}.lammpstrj id mol type q xu yu zu
dump d1 all custom 50000 outputs_100/config_09_len50_09.dat.lammpstrj id mol type q xu yu zu
dump_modify d1 sort id

# ===============================
# THERMO
# ===============================
thermo_style custom step pe ke temp
thermo ${thermo_stride}
thermo 10000
thermo_modify flush yes

variable vpe equal pe
variable vke equal ke
variable vT  equal temp

fix fa all ave/time ${thermo_stride} 10 ${stride10} v_vpe v_vke v_vT file outputs_100/thermo_${tag}_averaged.dat
fix fa all ave/time 10000 10 ${stride10} v_vpe v_vke v_vT file outputs_100/thermo_${tag}_averaged.dat
fix fa all ave/time 10000 10 100000 v_vpe v_vke v_vT file outputs_100/thermo_${tag}_averaged.dat
fix fa all ave/time 10000 10 100000 v_vpe v_vke v_vT file outputs_100/thermo_config_09_len50_09.dat_averaged.dat

# ===============================
# EQUILIBRATION (40 ns)
# ===============================
fix fxnve all nve
variable seed0 equal 43001
fix fxl all langevin ${T_eq} ${T_eq} 100000.0 ${seed0}
fix fxl all langevin 298 ${T_eq} 100000.0 ${seed0}
fix fxl all langevin 298 298 100000.0 ${seed0}
fix fxl all langevin 298 298 100000.0 43001

run ${n_eq}
run 4000000

CITE-CITE-CITE-CITE-CITE-CITE-CITE-CITE-CITE-CITE-CITE-CITE-CITE

Your simulation uses code contributions which should be cited:

- Type Label Framework: https://doi.org/10.1021/acs.jpcb.3c08419

@Article{Gissinger24,
 author = {Jacob R. Gissinger, Ilia Nikiforov, Yaser Afshar, Brendon Waters, Moon-ki Choi, Daniel S. Karls, Alexander Stukowski, Wonpil Im, Hendrik Heinz, Axel Kohlmeyer, and Ellad B. Tadmor},
 title = {Type Label Framework for Bonded Force Fields in LAMMPS},
 journal = {J. Phys. Chem. B},
 year =    2024,
 volume =  128,
 number =  13,
 pages =   {3282–-3297}
}

CITE-CITE-CITE-CITE-CITE-CITE-CITE-CITE-CITE-CITE-CITE-CITE-CITE

Generated 0 of 6 mixed pair_coeff terms from geometric mixing rule
Neighbor list info ...
  update: every = 10 steps, delay = 0 steps, check = yes
  max neighbors/atom: 2000, page size: 100000
  master list distance cutoff = 33
  ghost atom cutoff = 33
  binsize = 16.5, bins = 61 61 61
  2 neighbor lists, perpetual/occasional/extra = 2 0 0
  (1) pair lj/cut, perpetual, trim from (2)
      attributes: half, newton on, cut 25
      pair build: trim
      stencil: none
      bin: none
  (2) pair base/rna, perpetual
      attributes: half, newton on
      pair build: half/bin/newton
      stencil: half/bin/3d
      bin: standard
Per MPI rank memory allocation (min/avg/max) = 8.368 | 8.368 | 8.368 Mbytes
   Step         PotEng         KinEng          Temp     
         0   65.797361      0              0            
     10000   28.895612      43.676662      299.03296    
     20000   26.675892      49.557242      339.29444    
     30000   17.496263      46.042217      315.22877    
     40000   3.6782256      44.599442      305.35079    
     50000   2.5194707      47.370193      324.32078    
     60000  -0.88749142     43.330601      296.66365    
     70000   0.47537348     41.43655       283.696      
     80000   3.229299       45.965032      314.70032    
     90000   6.8582565      48.211045      330.07768    
    100000   9.5348138      46.540798      318.64231    
    110000   22.459616      39.945646      273.4885     
    120000   6.5752999      41.082302      281.27064    
    130000   3.0651688      44.610363      305.42556    
    140000  -6.6692351      54.027136      369.89764    
    150000  -3.2703434      43.74707       299.51501    
    160000  -8.9437009      48.723565      333.58666    
    170000   1.1435748      40.487905      277.20108    
    180000  -5.9998766      45.208124      309.51813    
    190000  -6.604521       46.875654      320.93491    
    200000  -2.4361989      40.948068      280.3516     
    210000  -5.5044246      35.628602      243.93179    
    220000  -5.7378314      49.783683      340.84478    
    230000   2.0978302      39.315624      269.17504    
    240000   7.9435444      38.221352      261.68309    
    250000   3.5500612      45.960701      314.67067    
    260000   10.341086      49.024354      335.64601    
    270000  -1.7316469      51.839294      354.91855    
    280000  -3.7254068      53.605457      367.01061    
    290000   1.7226128      36.078687      247.0133     
    300000   8.5869545      44.886702      307.31752    
    310000   8.1828324      37.29248       255.32355    
    320000   0.98528369     46.97394       321.60783    
    330000   5.1282277      40.081853      274.42104    
    340000   2.0830762      43.810234      299.94746    
    350000  -1.1987068      42.003069      287.57467    
    360000  -1.2998476      38.029832      260.37185    
    370000  -6.7303878      50.206663      343.74071    
    380000  -5.0341273      37.469853      256.53794    
    390000  -7.5720893      43.215878      295.87819    
    400000  -5.7922973      50.743278      347.41466    
    410000  -2.0063256      44.441321      304.26821    
    420000   15.533377      50.929471      348.68943    
    430000   21.848147      43.036351      294.64906    
    440000   11.361194      35.722088      244.57184    
    450000   1.7130817      48.477495      331.90194    
    460000   19.097667      46.629679      319.25084    
    470000   8.0963222      40.765973      279.10488    
    480000  -0.34500002     46.451841      318.03326    
    490000  -0.42969377     49.065218      335.92579    
    500000  -2.6353156      41.857401      286.57736    
    510000  -0.044614308    44.104285      301.96069    
    520000  -1.8175823      44.259688      303.02465    
    530000   10.044777      43.047354      294.72439    
    540000   8.7434566      49.613352      339.6786     
    550000  -1.5330436      42.55327       291.34164    
    560000  -0.46496547     43.959871      300.97195    
    570000  -5.9616667      38.476257      263.4283     
    580000  -6.1407574      49.0741        335.9866     
    590000   0.14528136     44.851921      307.07939    
    600000   8.2460454      56.875164      389.39671    
    610000   12.963589      52.092683      356.65338    
    620000   14.403233      46.323826      317.15681    
    630000   11.471191      43.603989      298.5354     
    640000  -2.0742132      39.056809      267.40306    
    650000  -2.9803831      30.844773      211.17923    
    660000  -6.4704053      37.738965      258.38042    
    670000  -5.1711873      40.111304      274.62268    
    680000  -13.545994      50.118164      343.13481    
    690000  -19.185815      49.009571      335.5448     
    700000  -16.426939      50.915198      348.59171    
    710000  -14.836465      43.285691      296.35617    
    720000  -9.3609695      41.603742      284.84068    
    730000  -1.7686384      44.335788      303.54567    
    740000  -5.9483031      39.591842      271.06618    
    750000  -10.112489      44.413747      304.07942    
    760000  -3.0884064      42.177751      288.77064    
    770000   5.0630231      40.470944      277.08496    
    780000   7.5842455      42.545041      291.2853     
    790000   9.3459326      54.723214      374.66335    
    800000   16.150266      47.253011      323.51849    
    810000   7.7694485      49.022324      335.63212    
    820000   7.7226738      46.528268      318.55652    
    830000   7.145483       42.119651      288.37286    
    840000   1.622329       41.311395      282.83912    
    850000   11.371879      36.529969      250.10301    
    860000  -0.79734659     48.327259      330.87334    
    870000   4.7739603      40.546309      277.60095    
    880000   13.611134      32.026216      219.268      
    890000  -2.5364069      44.973455      307.91147    
    900000   0.1506908      47.907149      327.99706    
    910000  -6.4937093      47.485419      325.10967    
    920000  -4.9138955      49.38245       338.09773    
    930000  -10.254513      37.626798      257.61247    
    940000  -18.21628       37.312222      255.45872    
    950000  -8.4458101      39.105643      267.7374     
    960000  -18.950202      51.744395      354.26882    
    970000  -8.5464965      46.36791       317.45863    
    980000  -14.009818      55.437198      379.55166    
    990000  -6.1191113      43.835168      300.11817    
   1000000   4.2764624      38.723059      265.11804    
   1010000  -1.8730755      46.087453      315.53848    
   1020000  -8.5315311      53.108393      363.60745    
   1030000   3.8231668      45.389898      310.76266    
   1040000   4.8776315      48.398049      331.35801    
   1050000  -4.7474105      50.846322      348.12015    
   1060000   3.5602876      35.354001      242.05173    
   1070000  -15.406093      44.295007      303.26647    
   1080000  -4.9506501      42.920318      293.85463    
   1090000  -11.010017      43.273549      296.27304    
   1100000  -12.505335      43.619035      298.63842    
   1110000   1.5312185      37.727211      258.29995    
   1120000  -1.3566982      40.002091      273.87495    
   1130000  -7.4735893      47.741515      326.86304    
   1140000  -4.816594       43.93512       300.8025     
   1150000  -13.459588      43.510397      297.89462    
   1160000  -1.1405718      39.894338      273.13722    
   1170000   0.21812538     44.220249      302.75464    
   1180000   3.041145       40.546024      277.599      
   1190000  -3.6009073      40.558192      277.6823     
   1200000  -8.7863182      45.533076      311.74293    
   1210000   7.1328023      41.336846      283.01337    
   1220000   5.9695521      43.749641      299.53261    
   1230000   1.8676532      43.534988      298.06299    
   1240000   4.2809364      39.563465      270.87189    
   1250000   14.706527      33.769978      231.20669    
   1260000   13.810218      43.591339      298.44879    
   1270000   6.111998       41.986776      287.46313    
   1280000   2.7491855      46.220935      316.45236    
   1290000   7.8674317      48.466711      331.8281     
   1300000   4.5818818      47.743097      326.87387    
   1310000   11.308058      40.018266      273.9857     
   1320000  -9.3547342      43.972572      301.05891    
   1330000  -10.182877      42.332566      289.83059    
   1340000   0.995731       40.254581      275.60362    
   1350000  -5.7585029      43.087435      294.99881    
   1360000  -16.456679      43.624303      298.67448    
   1370000  -12.601894      46.183383      316.19526    
   1380000  -1.5644493      54.391075      372.38936    
   1390000   2.4615725      47.37101       324.32637    
   1400000   4.3069854      45.214067      309.55883    
   1410000  -0.033314709    54.435331      372.69235    
   1420000  -4.8369015      51.237721      350.79987    
   1430000  -13.956235      42.780773      292.89924    
   1440000  -26.045418      35.518979      243.18125    
   1450000  -19.376498      43.261527      296.19073    
   1460000  -15.893271      40.268653      275.69997    
   1470000  -26.451728      36.515587      250.00454    
   1480000  -19.527684      38.966115      266.78213    
   1490000  -0.60769859     34.150241      233.81017    
   1500000  -10.333679      32.363984      221.58053    
   1510000  -16.754662      41.764803      285.94338    
   1520000  -5.541197       40.96097       280.43993    
   1530000  -14.805916      38.447791      263.23341    
   1540000  -13.750489      40.372407      276.41033    
   1550000  -17.660443      38.735734      265.20482    
   1560000  -14.268632      41.937916      287.12861    
   1570000  -16.185562      41.17915       281.9337     
   1580000  -7.0388391      38.740023      265.23418    
   1590000  -6.0784114      44.308432      303.35838    
   1600000  -5.2682427      44.425685      304.16116    
   1610000  -11.279338      40.129594      274.7479     
   1620000  -23.751297      41.391571      283.38805    
   1630000  -11.849193      38.460569      263.32089    
   1640000  -4.7523152      40.046976      274.18225    
   1650000  -15.008412      38.874797      266.15692    
   1660000  -20.261327      45.541892      311.80329    
   1670000  -8.8675436      38.977272      266.85851    
   1680000  -17.463273      41.539509      284.4009     
   1690000  -14.101927      43.479039      297.67993    
   1700000  -17.076332      36.430576      249.42252    
   1710000  -15.712017      39.300196      269.06941    
   1720000  -24.008251      40.295123      275.8812     
   1730000  -16.432151      47.853067      327.62678    
   1740000  -10.168204      48.79778       334.09478    
   1750000  -10.01165       52.711782      360.89205    
   1760000  -7.1818884      41.608184      284.87109    
   1770000  -8.8081349      43.928331      300.75602    
   1780000  -10.545245      44.725526      306.21402    
   1790000  -7.5804477      46.541593      318.64775    
   1800000  -7.7808087      43.998254      301.23474    
   1810000  -7.3910525      42.344882      289.9149     
   1820000  -6.2322015      42.278276      289.45889    
   1830000  -10.153847      47.934937      328.18731    
   1840000  -10.750535      43.468097      297.60502    
   1850000  -8.867622       40.295418      275.88322    
   1860000  -1.0184507      42.170274      288.71945    
   1870000  -10.091439      43.512907      297.91181    
   1880000  -19.492049      34.442293      235.8097     
   1890000  -17.014832      41.727697      285.68934    
   1900000  -12.666866      45.035818      308.33844    
   1910000  -10.109064      43.263932      296.20719    
   1920000  -2.5102206      46.406254      317.72115    
   1930000   2.6945308      48.691702      333.36851    
   1940000   1.6284556      48.970757      335.27906    
   1950000  -1.397953       48.368218      331.15377    
   1960000  -6.1648555      53.511269      366.36575    
   1970000   0.30834388     46.666242      319.50117    
   1980000  -4.9972982      43.57848       298.36076    
   1990000  -10.941859      54.36137       372.18598    
   2000000  -8.7948126      44.635591      305.59828    
   2010000  -14.890759      40.704222      278.6821     
   2020000  -24.016682      39.778975      272.34738    
   2030000  -20.385917      38.003081      260.1887     
   2040000  -12.24804       38.837867      265.90408    
   2050000  -19.463106      34.256619      234.53848    
   2060000  -17.901265      38.44533       263.21656    
   2070000  -12.437498      44.177911      302.46477    
   2080000  -5.7579171      43.169962      295.56383    
   2090000   1.4235668      38.929964      266.53462    
   2100000  -10.339271      46.967102      321.56101    
   2110000  -7.209476       37.019098      253.45184    
   2120000  -0.39960717     37.172565      254.50255    
   2130000  -5.2751724      46.91072       321.17499    
   2140000  -4.6839686      40.576844      277.81       
   2150000  -10.929898      43.770138      299.67295    
   2160000  -9.5681634      43.105627      295.12336    
   2170000  -6.5883785      36.200846      247.84967    
   2180000  -9.7435556      46.317812      317.11563    
   2190000   1.106779       46.186777      316.2185     
   2200000  -12.348594      44.550047      305.0126     
   2210000  -7.1181881      46.155737      316.00598    
   2220000  -17.299446      38.814082      265.74123    
   2230000  -19.425716      40.104232      274.57426    
   2240000  -11.4001        35.010717      239.70143    
   2250000  -9.5916714      37.864993      259.24327    
   2260000  -23.948933      53.599859      366.97228    
   2270000  -11.374246      48.459739      331.78037    
   2280000  -9.1072215      45.559308      311.92253    
   2290000  -13.2892        59.896941      410.08536    
   2300000  -2.0518625      51.887058      355.24556    
   2310000   3.726719       51.3202        351.36456    
   2320000   1.1765019      42.043714      287.85295    
   2330000  -4.740266       47.756202      326.9636     
   2340000  -11.76737       45.691017      312.82427    
   2350000  -0.25242221     42.62146       291.8085     
   2360000  -12.252463      39.583392      271.00832    
   2370000  -21.902742      48.399821      331.37014    
   2380000  -21.150695      43.168372      295.55294    
   2390000  -20.488281      46.801651      320.42825    
   2400000  -13.661397      56.630685      387.72289    
   2410000  -5.7643522      47.879366      327.80684    
   2420000  -7.803308       48.584581      332.6351     
   2430000  -9.2607268      37.593905      257.38727    
   2440000  -7.7735427      39.671202      271.60951    
   2450000  -8.4352833      35.130262      240.51989    
   2460000   7.4740357      48.076939      329.15953    
   2470000  -2.3387824      48.050543      328.97881    
   2480000  -3.6771031      40.454529      276.97257    
   2490000  -3.4418539      41.969242      287.34308    
   2500000  -20.208262      43.31404       296.55026    
   2510000  -17.854043      42.945679      294.02828    
   2520000  -11.14436       47.162929      322.90174    
   2530000  -9.1916439      51.550497      352.9413     
   2540000  -1.4919651      43.533037      298.04962    
   2550000  -2.0524656      44.743274      306.33554    
   2560000  -18.421805      49.098848      336.15604    
   2570000  -6.9090689      43.510549      297.89566    
   2580000  -6.0004565      46.173149      316.1252     
   2590000  -7.7036429      46.036994      315.19301    
   2600000  -12.268474      48.946043      335.10986    
   2610000   1.963508       42.6999        292.34554    
   2620000  -6.2468093      48.46124       331.79065    
   2630000  -6.637301       44.242883      302.9096     
   2640000  -7.2931472      39.462565      270.18107    
   2650000  -2.0430247      43.454789      297.5139     
   2660000  -7.0368601      52.009101      356.08114    
   2670000  -14.661452      41.930838      287.08015    
   2680000  -8.3401921      38.243808      261.83684    
   2690000  -9.0840121      44.367182      303.76061    
   2700000  -5.5955395      43.037135      294.65443    
   2710000  -8.729872       40.810644      279.41072    
   2720000  -4.3343974      43.75164       299.5463     
   2730000  -7.1937006      50.136923      343.26324    
   2740000  -14.048252      55.210332      377.99842    
   2750000  -11.221356      52.192219      357.33485    
   2760000  -1.7655932      47.793218      327.21703    
   2770000  -2.4560456      41.293845      282.71896    
   2780000  -7.6173667      43.764582      299.6349     
   2790000  -9.8899522      35.682777      244.3027     
   2800000  -16.832061      38.504735      263.62328    
   2810000  -20.284983      45.906852      314.30199    
   2820000  -4.8438444      43.485141      297.72171    
   2830000  -11.793125      47.711386      326.65676    
   2840000  -10.794927      41.611733      284.89539    
   2850000  -16.935608      42.86097       293.44831    
   2860000  -14.98256       38.195716      261.50757    
   2870000   0.097461232    38.575155      264.10541    
   2880000  -9.8448896      49.389458      338.14571    
   2890000  -6.7621641      45.386635      310.74031    
   2900000  -7.2636074      50.339273      344.64863    
   2910000   5.4886563      51.7912        354.58927    
   2920000  -6.5561859      47.838706      327.52846    
   2930000  -16.865095      52.82025       361.63468    
   2940000  -1.9976311      41.8663        286.63829    
   2950000  -9.2138349      47.21967       323.29022    
   2960000  -9.905839       40.372359      276.41       
   2970000  -4.4231417      42.932675      293.93924    
   2980000  -5.7571197      43.877657      300.40908    
   2990000  -7.1311455      37.467506      256.52187    
   3000000  -12.979623      45.533029      311.7426     
   3010000  -4.4397986      47.488202      325.12873    
   3020000  -4.070332       48.332126      330.90667    
   3030000  -6.9812369      40.223359      275.38986    
   3040000  -17.348611      41.042346      280.99707    
   3050000  -15.956497      38.938293      266.59164    
   3060000  -8.2756974      33.4649        229.11797    
   3070000  -17.376834      44.108391      301.9888     
   3080000  -11.781721      40.250877      275.57827    
   3090000  -14.782944      49.765026      340.71704    
   3100000  -10.694022      41.426817      283.62936    
   3110000  -17.398027      39.272501      268.8798     
   3120000  -11.717433      46.233613      316.53916    
   3130000  -16.043231      43.012879      294.48836    
   3140000  -14.81821       38.797268      265.62611    
   3150000  -16.017116      42.433693      290.52295    
   3160000   1.1202234      40.736214      278.90114    
   3170000  -21.602602      43.768545      299.66204    
   3180000  -10.120145      44.634362      305.58987    
   3190000  -23.67477       46.538778      318.62848    
   3200000  -7.3994419      46.696258      319.70667    
   3210000  -9.121223       49.564832      339.34641    
   3220000   0.90008434     47.700667      326.58337    
   3230000  -3.2445098      41.456483      283.83247    
   3240000  -3.5822122      39.645473      271.43336    
   3250000  -1.8676096      49.130563      336.37318    
   3260000   2.1004677      47.529958      325.41461    
   3270000   10.539416      35.730573      244.62994    
   3280000   3.2977113      49.90013       341.64203    
   3290000   6.8458072      44.881566      307.28236    
   3300000   0.19746658     43.147203      295.40801    
   3310000   9.178779       49.831877      341.17473    
   3320000  -1.8547881      49.730791      340.48265    
   3330000  -1.3152846      49.749272      340.60918    
   3340000  -3.439956       46.969866      321.57994    
   3350000  -9.2045499      43.277922      296.30298    
   3360000  -10.012038      43.989156      301.17246    
   3370000  -3.4439144      35.209166      241.06011    
   3380000  -15.987783      41.041406      280.99064    
   3390000  -17.759973      41.065381      281.15478    
   3400000  -1.1019694      42.267907      289.38789    
   3410000   1.3715841      37.232204      254.91087    
   3420000  -11.383828      55.158611      377.64431    
   3430000  -6.1822711      43.329902      296.65886    
   3440000  -17.206488      53.728526      367.85321    
   3450000  -14.494859      38.317052      262.3383     
   3460000  -22.110206      51.473975      352.41738    
   3470000  -8.3507326      48.437559      331.62852    
   3480000  -6.3334445      39.290638      269.00398    
   3490000  -11.532432      43.01107       294.47597    
   3500000  -16.358424      44.154589      302.30509    
   3510000  -16.611839      39.940691      273.45457    
   3520000  -26.355603      49.819006      341.08661    
   3530000  -8.3535928      41.568055      284.59635    
   3540000  -16.729399      39.878148      273.02637    
   3550000  -10.597988      40.498048      277.27053    
   3560000  -8.915722       43.864355      300.318      
   3570000   1.0747985      48.110873      329.39185    
   3580000  -4.7209905      46.296983      316.97303    
   3590000   2.3266971      35.70131       244.42958    
   3600000   5.778257       40.213949      275.32544    
   3610000  -1.0666326      48.764001      333.86351    
   3620000  -8.9380112      46.326768      317.17695    
   3630000   2.3746125      44.77551       306.55624    
   3640000  -1.9102019      45.081854      308.65363    
   3650000  -5.327687       47.543521      325.50747    
   3660000  -14.632179      46.012243      315.02355    
   3670000  -7.8653781      33.95383       232.46543    
   3680000  -20.232694      49.149685      336.5041     
   3690000  -12.17385       41.755         285.87627    
   3700000  -17.245513      42.597123      291.64188    
   3710000  -26.329231      38.477485      263.43671    
   3720000  -23.270418      37.287855      255.29189    
   3730000  -24.379412      45.445552      311.14369    
   3740000  -14.7121        40.619932      278.10501    
   3750000  -24.277335      49.456182      338.60253    
   3760000  -3.9609049      43.105257      295.12083    
   3770000   4.326957       43.951416      300.91407    
   3780000  -17.560558      39.212214      268.46705    
   3790000  -20.724214      38.306792      262.26806    
   3800000  -22.01748       53.925422      369.20126    
   3810000  -16.438319      42.005635      287.59225    
   3820000  -6.0378061      53.44138       365.88726    
   3830000  -1.2182353      43.579414      298.36715    
   3840000  -2.0255551      39.247046      268.70552    
   3850000  -6.9284481      36.672761      251.08064    
   3860000  -4.408822       43.024606      294.56865    
   3870000  -5.5317067      39.891108      273.1151     
   3880000  -10.048351      49.706014      340.31301    
   3890000  -8.9701843      37.541043      257.02535    
   3900000  -5.4831166      53.423574      365.76534    
   3910000   2.1538253      43.830212      300.08424    
   3920000  -3.419324       43.812898      299.9657     
   3930000  -11.996526      40.802581      279.35552    
   3940000  -4.4169244      34.695365      237.54237    
   3950000  -19.602478      43.197412      295.75177    
   3960000  -22.397101      42.246789      289.24331    
   3970000  -23.767682      48.258582      330.40314    
   3980000  -13.795147      40.255316      275.60866    
   3990000  -21.910407      43.781489      299.75066    
   4000000  -17.724664      46.882403      320.98112    
Loop time of 125.128 on 1 procs for 4000000 steps with 50 atoms

Performance: 27619.638 ns/day, 0.001 hours/ns, 31967.174 timesteps/s, 1.598 Matom-step/s
99.2% CPU use with 1 MPI tasks x 1 OpenMP threads

MPI task timing breakdown:
Section |  min time  |  avg time  |  max time  |%varavg| %total
---------------------------------------------------------------
Pair    | 107.71     | 107.71     | 107.71     |   0.0 | 86.08
Bond    | 9.5371     | 9.5371     | 9.5371     |   0.0 |  7.62
Neigh   | 1.1455     | 1.1455     | 1.1455     |   0.0 |  0.92
Comm    | 1.5775     | 1.5775     | 1.5775     |   0.0 |  1.26
Output  | 0.059939   | 0.059939   | 0.059939   |   0.0 |  0.05
Modify  | 4.5389     | 4.5389     | 4.5389     |   0.0 |  3.63
Other   |            | 0.5565     |            |       |  0.44

Nlocal:             50 ave          50 max          50 min
Histogram: 1 0 0 0 0 0 0 0 0 0
Nghost:              0 ave           0 max           0 min
Histogram: 1 0 0 0 0 0 0 0 0 0
Neighs:            392 ave         392 max         392 min
Histogram: 1 0 0 0 0 0 0 0 0 0

Total # of neighbors = 392
Ave neighs/atom = 7.84
Ave special neighs/atom = 5.76
Neighbor list builds = 8244
Dangerous builds = 0

# ===============================
# MAIN SA LOOP — 10 cycles
# ===============================
variable c loop ${ncycle}
variable c loop 10
label cyc

  # Heat 298 → 500
  variable seedH equal 44000+${c}
  variable seedH equal 44000+1
  unfix fxl
  fix fxl all langevin ${T_eq} ${T_high} 100000.0 ${seedH}
  fix fxl all langevin 298 ${T_high} 100000.0 ${seedH}
  fix fxl all langevin 298 500 100000.0 ${seedH}
  fix fxl all langevin 298 500 100000.0 44001
  run ${n_heat}
  run 8000000
Generated 0 of 6 mixed pair_coeff terms from geometric mixing rule
Per MPI rank memory allocation (min/avg/max) = 9.625 | 9.625 | 9.625 Mbytes
   Step         PotEng         KinEng          Temp     
   4000000  -17.724664      46.882403      320.98112    
   4010000  -10.921719      40.823624      279.49959    
   4020000  -24.805333      53.01712       362.98255    
   4030000  -7.8729889      39.270131      268.86357    
   4040000  -6.2248035      42.487357      290.89037    
   4050000  -17.451353      46.552819      318.72461    
   4060000  -9.9681455      41.834528      286.42076    
   4070000  -2.7422888      43.581176      298.37921    
   4080000  -0.6794156      38.007403      260.21828    
   4090000  -12.339932      45.49712       311.49676    
   4100000   0.20060169     41.401746      283.45771    
   4110000   3.1182511      42.006928      287.6011     
   4120000   5.9931299      52.705596      360.8497     
   4130000   5.8602139      51.753548      354.33149    
   4140000   12.158491      43.897189      300.5428     
   4150000  -6.8756917      47.574179      325.71737    
   4160000  -2.2699277      42.431975      290.51119    
   4170000  -16.814995      42.505583      291.01515    
   4180000  -20.112972      55.147111      377.56557    
   4190000  -15.890479      42.114577      288.33812    
   4200000  -8.4465056      51.160784      350.27312    
   4210000   0.34061056     58.821423      402.72181    
   4220000   6.0764264      50.233721      343.92597    
   4230000   11.914042      49.646903      339.90831    
   4240000  -9.6569604      42.48423       290.86895    
   4250000  -9.3303285      47.522373      325.36268    
   4260000  -10.708896      39.776403      272.32977    
   4270000   2.4212278      44.163725      302.36765    
   4280000   2.7830197      41.95467       287.24331    
   4290000  -5.7264424      37.101785      254.01796    
   4300000  -9.3945794      41.839766      286.45662    
   4310000  -17.328933      47.107864      322.52474    
   4320000  -1.2251423      46.195879      316.28082    
   4330000  -16.900784      53.348009      365.24799    
   4340000  -12.310269      42.879073      293.57225    
   4350000  -15.924626      39.641959      271.4093     
   4360000  -10.202236      44.950882      307.75692    
   4370000  -20.534863      43.571785      298.31491    
   4380000  -20.881606      53.23072       364.44497    
   4390000   10.175734      36.061372      246.89475    
   4400000  -6.6924877      45.001585      308.10406    
   4410000   0.31338985     45.459018      311.23589    
   4420000   4.3771095      44.309502      303.36571    
   4430000  -1.9387214      45.229102      309.66176    
   4440000  -1.4750388      46.003255      314.96202    
   4450000  -1.5211837      42.929307      293.91618    
   4460000  -8.7948006      50.953667      348.85509    
   4470000  -2.9303692      52.814947      361.59837    
   4480000  -18.443342      46.312075      317.07636    
   4490000  -16.656325      45.144921      309.08541    
   4500000  -6.209256       55.108385      377.30043    
   4510000  -13.934801      56.331406      385.67386    
   4520000   10.144677      39.453301      270.11765    
   4530000   12.687963      52.142532      356.99467    
   4540000  -1.0287626      57.232735      391.84483    
   4550000   7.7206067      44.641829      305.64099    
   4560000   0.38467647     44.320418      303.44045    
   4570000   7.7643419      53.476246      366.12597    
   4580000   14.007945      41.480905      283.99967    
   4590000   6.7114438      46.422667      317.83353    
   4600000   6.5682894      51.581992      353.15693    
   4610000   14.554157      43.270949      296.25524    
   4620000   6.1748305      54.33399       371.99853    
   4630000   18.820249      44.070008      301.72601    
   4640000   9.9718367      54.139024      370.66369    
   4650000   12.576974      43.859602      300.28546    
   4660000   5.7360221      44.87619       307.24554    
   4670000   12.457969      49.00955       335.54466    
   4680000   14.891912      35.397437      242.34911    
   4690000   4.4022344      57.067552      390.7139     
   4700000   14.270216      47.605435      325.93137    
   4710000   16.43385       58.457666      400.23134    
   4720000   12.188522      60.233476      412.38945    
   4730000  -6.0855941      47.170257      322.95191    
   4740000   19.957265      45.664673      312.64391    
   4750000  -1.3479209      60.51999       414.35107    
   4760000  -2.0631114      47.719319      326.71107    
   4770000  -3.7823065      42.338853      289.87363    
   4780000  -0.60567954     44.587293      305.26761    
   4790000  -8.9658394      56.417383      386.26251    
   4800000  -7.15326        50.966706      348.94436    
   4810000   4.1071648      44.265912      303.06727    
   4820000   0.30392757     47.877262      327.79244    
   4830000  -1.1870048      48.618453      332.86701    
   4840000   16.190577      44.386493      303.89283    
   4850000   11.309434      52.964141      362.61983    
   4860000   18.011798      50.322859      344.53625    
   4870000   11.223966      43.515332      297.92841    
   4880000   13.27123       49.807701      341.00922    
   4890000   8.3198424      55.991172      383.34444    
   4900000   25.180766      46.798161      320.40435    
   4910000   19.8942        61.398234      420.36398    
   4920000   17.961327      41.942128      287.15744    
   4930000   22.487375      52.938857      362.44672    
   4940000   25.285802      49.120326      336.30309    
   4950000   22.754949      51.033404      349.40101    
   4960000   18.548733      40.861844      279.76126    
   4970000   25.808801      50.4901        345.68127    
   4980000   15.505428      48.720451      333.56534    
   4990000   17.174212      48.754883      333.80108    
   5000000   16.837012      42.664246      292.10143    
   5010000   15.76968       44.263976      303.05401    
   5020000   19.180182      44.745114      306.34813    
   5030000   10.853599      51.656236      353.66524    
   5040000   15.543172      47.634071      326.12742    
   5050000   10.839787      47.963016      328.37955    
   5060000   18.993681      58.412552      399.92247    
   5070000   10.844536      56.343822      385.75887    
   5080000   16.509439      34.807053      238.30704    
   5090000   11.463197      51.37514       351.74071    
   5100000   18.743191      46.19614       316.2826     
   5110000   16.7708        65.665774      449.58177    
   5120000   30.790185      48.982125      335.35689    
   5130000   19.546877      46.975387      321.61773    
   5140000   23.899585      45.24146       309.74637    
   5150000   19.631701      40.234404      275.46549    
   5160000   16.586571      42.745485      292.65764    
   5170000   13.905135      47.981569      328.50657    
   5180000   25.074252      47.992022      328.57814    
   5190000   24.018585      44.80204       306.73787    
   5200000   14.266848      52.174615      357.21433    
   5210000   9.4170506      54.925582      376.04887    
   5220000   8.9812829      47.423973      324.68898    
   5230000   12.7793        45.599016      312.19439    
   5240000   3.0239806      50.582315      346.31262    
   5250000   8.4453065      53.475857      366.1233     
   5260000   4.210595       51.430135      352.11723    
   5270000   2.8270917      51.576326      353.11813    
   5280000   12.938552      53.357061      365.30996    
   5290000   1.1016168      54.521663      373.28343    
   5300000   0.69242355     51.076537      349.69632    
   5310000   1.8761397      50.263305      344.12852    
   5320000  -0.52542527     42.559323      291.38308    
   5330000  -9.0290933      49.328603      337.72906    
   5340000  -8.1570731      44.998963      308.08611    
   5350000  -14.929267      44.855234      307.10207    
   5360000  -6.9489587      50.093978      342.96921    
   5370000  -5.9609831      48.753922      333.7945     
   5380000   2.720449       47.033416      322.01503    
   5390000   1.3464955      48.688561      333.347      
   5400000   9.890258       43.243723      296.06883    
   5410000   10.240475      53.228927      364.4327     
   5420000   17.414551      46.122266      315.77682    
   5430000   3.4237204      61.798188      423.10227    
   5440000   2.8213529      58.774705      402.40195    
   5450000   8.8842837      47.88997       327.87944    
   5460000   10.160416      47.223376      323.31559    
   5470000   8.3706784      39.658549      271.52288    
   5480000   13.77353       41.108133      281.44749    
   5490000  -0.72992823     48.390787      331.30829    
   5500000   6.4474395      45.994971      314.9053     
   5510000   9.7373319      62.042513      424.77505    
   5520000  -0.97983642     49.111502      336.24268    
   5530000   1.0455047      44.708417      306.09689    
   5540000  -2.3211841      43.95828       300.96106    
   5550000   10.043288      37.667153      257.88876    
   5560000  -2.9557978      47.758716      326.98081    
   5570000  -5.1595856      45.465247      311.27853    
   5580000   9.8149165      42.83284       293.25572    
   5590000   10.327626      48.313948      330.78221    
   5600000  -1.8732192      53.681293      367.52982    
   5610000  -4.5420907      50.991028      349.11088    
   5620000  -1.5945121      52.205028      357.42255    
   5630000   19.365849      49.023761      335.64195    
   5640000   30.244431      52.507946      359.49648    
   5650000   10.344578      47.624029      326.05867    
   5660000   6.5225132      43.702042      299.20672    
   5670000   2.9419229      50.861051      348.22099    
   5680000  -4.3980182      48.814102      334.20652    
   5690000   3.7684888      53.441933      365.89104    
   5700000   2.0926522      49.394925      338.18314    
   5710000   1.1772827      45.987739      314.85578    
   5720000  -9.1261945      45.475705      311.35013    
   5730000  -9.4293966      44.630207      305.56142    
   5740000   6.3102571      45.872775      314.06868    
   5750000   8.3691439      51.516755      352.71028    
   5760000  -8.2181927      48.847967      334.43838    
   5770000  -1.1633207      54.428403      372.64492    
   5780000   1.9550217      48.077655      329.16443    
   5790000   5.6349653      47.991166      328.57228    
   5800000  -10.575076      47.166875      322.92876    
   5810000  -3.5619887      53.118452      363.67633    
   5820000  -7.6136779      60.412946      413.61819    
   5830000   10.821361      44.260819      303.0324     
   5840000   8.5736935      54.707186      374.55361    
   5850000   6.3716732      52.58382       360.01596    
   5860000   3.6662973      57.865636      396.178      
   5870000   5.5918568      55.553733      380.34951    
   5880000   4.6923132      47.707839      326.63248    
   5890000   1.4076004      56.034284      383.63961    
   5900000   5.9158227      45.770535      313.36869    
   5910000   4.1129407      58.475781      400.35536    
   5920000   19.418012      59.02212       404.09588    
   5930000   21.833943      53.172791      364.04835    
   5940000   22.033019      54.249184      371.4179     
   5950000   19.921463      61.015917      417.74644    
   5960000   15.591093      52.612873      360.21487    
   5970000   28.256574      51.498051      352.58222    
   5980000   36.062385      38.896488      266.30542    
   5990000   28.223742      57.412563      393.07603    
   6000000   27.348346      61.81352       423.20724    
   6010000   32.463008      50.089701      342.93993    
   6020000   32.094986      40.751205      279.00377    
   6030000   30.375238      65.746538      450.13471    
   6040000   28.588296      54.695989      374.47695    
   6050000   17.975147      50.009446      342.39046    
   6060000   28.449026      51.469108      352.38406    
   6070000   13.583241      57.813459      395.82076    
   6080000   10.840645      54.413142      372.54044    
   6090000   15.872511      51.625152      353.45242    
   6100000   30.915777      54.130582      370.60589    
   6110000   17.991754      60.037611      411.04846    
   6120000   17.876329      45.640801      312.48047    
   6130000   23.033284      41.463627      283.88138    
   6140000   15.180533      42.8792        293.57313    
   6150000   8.417295       50.557635      346.14365    
   6160000   8.7958729      56.794835      388.84674    
   6170000   9.3880033      57.840239      396.00411    
   6180000   21.669232      43.399715      297.13684    
   6190000   18.467271      48.743389      333.72238    
   6200000   26.921181      56.154853      384.46509    
   6210000   22.38267       49.113652      336.2574     
   6220000   18.47702       46.576281      318.88525    
   6230000   21.522729      46.138448      315.88762    
   6240000   11.742002      65.373952      447.5838     
   6250000   20.573632      53.744898      367.96529    
   6260000   19.68849       53.320896      365.06236    
   6270000   24.796256      48.897499      334.7775     
   6280000   32.971389      51.271164      351.02884    
   6290000   27.420495      55.822758      382.1914     
   6300000   19.512734      52.908833      362.24116    
   6310000   25.732042      52.074309      356.52758    
   6320000   34.55226       44.296646      303.27769    
   6330000   29.118073      55.699222      381.34561    
   6340000   31.183199      52.259532      357.79572    
   6350000   33.024845      55.92833       382.9142     
   6360000   49.099453      54.54542       373.44608    
   6370000   50.13834       64.72756       443.15827    
   6380000   35.752798      58.237896      398.72668    
   6390000   30.326465      50.028425      342.5204     
   6400000   34.40239       47.822525      327.41767    
   6410000   34.086883      44.97836       307.94506    
   6420000   32.039207      56.109207      384.15257    
   6430000   36.207471      46.045196      315.24916    
   6440000   34.199383      44.538727      304.9351     
   6450000   25.034399      50.667036      346.89267    
   6460000   29.778669      47.757569      326.97296    
   6470000   33.277145      49.553708      339.27025    
   6480000   38.251673      51.066253      349.62591    
   6490000   34.857514      57.9753        396.92881    
   6500000   31.998201      47.709141      326.64139    
   6510000   34.917696      57.197754      391.60533    
   6520000   33.892779      60.870253      416.74915    
   6530000   38.565837      64.671202      442.77241    
   6540000   48.850257      50.06916       342.7993     
   6550000   34.046623      59.325495      406.17294    
   6560000   33.885304      54.331441      371.98107    
   6570000   25.746532      57.046628      390.57064    
   6580000   29.99264       55.415931      379.40605    
   6590000   31.271553      43.936086      300.80911    
   6600000   12.741268      52.100312      356.70561    
   6610000   18.953322      50.222333      343.848      
   6620000   19.750168      56.121389      384.23598    
   6630000   9.5418936      48.720088      333.56285    
   6640000   12.316515      53.221546      364.38216    
   6650000   27.148149      57.267681      392.08409    
   6660000   29.675069      52.045282      356.32885    
   6670000   30.016854      49.355542      337.9135     
   6680000   27.171994      55.466402      379.7516     
   6690000   25.705621      60.528705      414.41074    
   6700000   27.64749       58.996978      403.92375    
   6710000   22.077877      68.711338      470.43327    
   6720000   30.685414      58.128459      397.97742    
   6730000   26.602352      43.576908      298.34999    
   6740000   24.802848      51.779497      354.50915    
   6750000   22.713736      43.053713      294.76793    
   6760000   18.149569      53.738102      367.91877    
   6770000   26.704616      55.420335      379.4362     
   6780000   21.103503      48.950925      335.14328    
   6790000   14.25621       53.577888      366.82186    
   6800000   30.064825      55.602424      380.68288    
   6810000   27.63193       59.678527      408.58998    
   6820000   37.598306      54.12046       370.53659    
   6830000   31.97294       55.532451      380.20381    
   6840000   36.076076      57.201869      391.6335     
   6850000   27.254263      58.131908      398.00103    
   6860000   31.247422      50.404013      345.09187    
   6870000   39.772417      44.196152      302.58965    
   6880000   30.952036      43.892791      300.51269    
   6890000   31.851942      48.089067      329.24256    
   6900000   26.430824      54.15012       370.73966    
   6910000   31.541362      51.350989      351.57536    
   6920000   26.757369      47.806888      327.31062    
   6930000   27.811732      47.933266      328.17586    
   6940000   26.701702      53.012994      362.9543     
   6950000   37.702376      47.163089      322.90283    
   6960000   31.563055      54.4736        372.95437    
   6970000   42.961825      58.325184      399.3243     
   6980000   20.880846      63.112739      432.10237    
   6990000   25.077884      54.013391      369.80353    
   7000000   21.514405      54.502926      373.15515    
   7010000   18.194246      60.84659       416.58714    
   7020000   32.830624      50.521384      345.89546    
   7030000   41.382446      47.363078      324.27207    
   7040000   32.56192       58.278909      399.00747    
   7050000   34.090128      62.235002      426.09293    
   7060000   22.858559      60.589301      414.82561    
   7070000   25.87521       52.860442      361.90985    
   7080000   25.075249      45.080406      308.64371    
   7090000   32.510062      48.186011      329.90629    
   7100000   27.355508      61.383614      420.26389    
   7110000   20.186207      48.406001      331.41245    
   7120000   21.78364       48.277387      330.5319     
   7130000   16.545116      68.109162      466.31045    
   7140000   36.416448      49.701248      340.28038    
   7150000   34.323258      55.828481      382.23058    
   7160000   34.596286      65.071139      445.51059    
   7170000   33.929584      57.909257      396.47664    
   7180000   38.054295      64.649639      442.62478    
   7190000   37.130178      58.161616      398.20443    
   7200000   42.07065       44.026563      301.42856    
   7210000   33.093612      50.583762      346.32253    
   7220000   31.797928      54.543152      373.43055    
   7230000   41.072108      72.169997      494.11303    
   7240000   41.267447      58.393604      399.79273    
   7250000   29.833303      61.207882      419.06074    
   7260000   33.280296      54.404902      372.48402    
   7270000   33.690575      56.657914      387.90931    
   7280000   37.464097      58.490649      400.45716    
   7290000   36.260568      58.632028      401.42511    
   7300000   46.579641      58.338596      399.41612    
   7310000   37.544086      62.801572      429.97196    
   7320000   29.367352      58.81188       402.65647    
   7330000   30.897216      51.309234      351.28948    
   7340000   22.058352      46.725101      319.90414    
   7350000   20.466201      54.390104      372.38271    
   7360000   23.983557      51.476164      352.43237    
   7370000   26.989918      51.071207      349.65983    
   7380000   32.770364      59.971318      410.59458    
   7390000   34.301515      58.247964      398.79561    
   7400000   33.740162      49.97686       342.16736    
   7410000   22.515153      50.849003      348.1385     
   7420000   30.463059      53.557042      366.67914    
   7430000   37.408963      62.031231      424.69781    
   7440000   44.178697      57.524578      393.84293    
   7450000   45.661053      69.560138      476.24459    
   7460000   33.311984      54.878142      375.72407    
   7470000   38.969109      65.743575      450.11443    
   7480000   29.792702      49.662423      340.01457    
   7490000   27.50816       55.205529      377.96553    
   7500000   26.924134      52.289719      358.00239    
   7510000   28.043722      48.23381       330.23354    
   7520000   34.863802      47.393112      324.47769    
   7530000   41.057872      49.904792      341.67395    
   7540000   39.673868      58.32723       399.33831    
   7550000   40.550782      57.886801      396.3229     
   7560000   35.157468      56.289082      385.3841     
   7570000   39.133184      48.498239      332.04396    
   7580000   34.430562      49.377025      338.06059    
   7590000   45.823707      48.636765      332.99238    
   7600000   43.660557      56.512531      386.91394    
   7610000   29.628973      55.498771      379.97322    
   7620000   33.04141       57.780237      395.59331    
   7630000   23.125065      60.693931      415.54196    
   7640000   31.734336      61.956545      424.18647    
   7650000   35.297175      50.411413      345.14254    
   7660000   33.066917      59.605546      408.09032    
   7670000   37.079112      53.578213      366.82408    
   7680000   36.668362      54.983788      376.44737    
   7690000   33.684944      46.977323      321.63098    
   7700000   15.666706      57.272391      392.11633    
   7710000   30.805191      47.283382      323.72642    
   7720000   38.496412      58.857121      402.96621    
   7730000   36.302331      58.32724       399.33837    
   7740000   43.622177      57.989098      397.02328    
   7750000   43.724183      67.439089      461.72279    
   7760000   33.978225      59.550264      407.71183    
   7770000   39.346704      51.053461      349.53833    
   7780000   28.92793       62.466222      427.67598    
   7790000   39.892685      56.54691       387.14932    
   7800000   40.895461      60.818196      416.39274    
   7810000   26.474583      67.425547      461.63007    
   7820000   42.081487      67.792522      464.14257    
   7830000   36.658867      65.426032      447.94037    
   7840000   42.129194      56.071261      383.89278    
   7850000   40.383981      59.06772       404.40808    
   7860000   47.48006       68.6226        469.82572    
   7870000   32.298653      52.593973      360.08547    
   7880000   30.479734      58.26792       398.93224    
   7890000   34.146038      64.187849      439.46312    
   7900000   36.521426      64.121184      439.0067     
   7910000   35.468613      58.6569        401.59539    
   7920000   42.034779      71.803806      491.60589    
   7930000   37.666951      57.940101      396.68782    
   7940000   38.766205      52.319777      358.20818    
   7950000   40.895626      64.051626      438.53048    
   7960000   38.172147      59.234099      405.5472     
   7970000   31.187943      58.026047      397.27625    
   7980000   33.486421      62.641881      428.87863    
   7990000   30.80209       56.550516      387.174      
   8000000   38.271351      57.582889      394.24217    
   8010000   30.425557      67.075612      459.23424    
   8020000   43.315595      57.346856      392.62616    
   8030000   35.24968       66.396318      454.58344    
   8040000   44.358296      56.814534      388.98161    
   8050000   29.586961      73.272034      501.65814    
   8060000   32.90528       59.312873      406.08652    
   8070000   48.703658      53.864372      368.78328    
   8080000   28.99509       63.072551      431.82722    
   8090000   29.492641      52.935348      362.4227     
   8100000   41.397149      53.383448      365.49062    
   8110000   36.941882      49.373952      338.03954    
   8120000   21.930673      69.63175       476.73488    
   8130000   32.945019      64.670098      442.76485    
   8140000   33.541388      54.683351      374.39043    
   8150000   27.27576       61.787002      423.02569    
   8160000   33.519085      50.277846      344.22807    
   8170000   27.683811      68.810721      471.11369    
   8180000   37.706884      71.861878      492.00349    
   8190000   42.870489      54.089885      370.32726    
   8200000   46.051726      53.411626      365.68354    
   8210000   41.309142      48.894335      334.75584    
   8220000   46.853073      50.762328      347.54508    
   8230000   16.998229      70.243429      480.92275    
   8240000   41.053704      59.856762      409.81027    
   8250000   39.229385      66.716751      456.77729    
   8260000   32.956627      53.591425      366.91454    
   8270000   41.133729      67.976444      465.4018     
   8280000   42.109618      54.216358      371.19316    
   8290000   28.126943      57.305279      392.3415     
   8300000   28.242443      64.210864      439.6207     
   8310000   43.474172      62.162792      425.59854    
   8320000   28.919975      62.603299      428.61448    
   8330000   38.823463      46.120032      315.76153    
   8340000   31.294606      74.002774      506.66116    
   8350000   44.577729      65.90829       451.24215    
   8360000   29.304095      84.31654       577.27453    
   8370000   39.878242      50.414379      345.16284    
   8380000   33.305604      61.989148      424.40968    
   8390000   30.438429      63.906947      437.53993    
   8400000   31.920766      62.180324      425.71858    
   8410000   38.669919      71.897818      492.24955    
   8420000   38.645786      55.358181      379.01066    
   8430000   42.060895      56.498212      386.8159     
   8440000   36.091402      63.469732      434.54653    
   8450000   45.389229      63.073002      431.83031    
   8460000   39.482746      54.879176      375.73115    
   8470000   33.869197      54.892914      375.82521    
   8480000   30.824131      43.880423      300.42801    
   8490000   26.345955      55.259619      378.33586    
   8500000   33.972121      55.464631      379.73947    
   8510000   42.405612      65.421854      447.91176    
   8520000   45.744393      62.113532      425.26128    
   8530000   41.364388      56.859315      389.2882     
   8540000   29.384024      74.715811      511.54298    
   8550000   35.901253      58.423048      399.99432    
   8560000   34.560213      61.79024       423.04786    
   8570000   35.741198      63.052467      431.68971    
   8580000   45.443656      63.53537       434.99592    
   8590000   42.301705      69.749889      477.54372    
   8600000   39.06617       55.352487      378.97168    
   8610000   38.85672       53.853893      368.71153    
   8620000   40.464122      53.932796      369.25174    
   8630000   41.729118      63.833038      437.03391    
   8640000   38.556627      67.810894      464.26836    
   8650000   42.166384      68.300101      467.61773    
   8660000   45.418787      68.524727      469.15563    
   8670000   38.048598      69.553336      476.19802    
   8680000   40.948922      61.28338       419.57763    
   8690000   34.411714      58.12732       397.96962    
   8700000   43.64271       49.039996      335.75311    
   8710000   52.61254       63.614205      435.53566    
   8720000   35.812583      72.51485       496.47407    
   8730000   29.123451      66.064214      452.30969    
   8740000   31.951293      69.369544      474.93968    
   8750000   41.456639      55.925701      382.8962     
   8760000   37.66049       59.391708      406.62627    
   8770000   36.886772      54.886668      375.78244    
   8780000   34.10538       61.5012        421.06894    
   8790000   29.263837      63.998417      438.16618    
   8800000   36.204033      72.138061      493.89438    
   8810000   42.307774      73.186036      501.06936    
   8820000   36.742665      61.320784      419.83372    
   8830000   37.799699      73.627199      504.08978    
   8840000   23.629839      81.568481      558.4599     
   8850000   42.836775      69.64565       476.83004    
   8860000   44.268554      61.942126      424.08775    
   8870000   31.190525      69.806395      477.93059    
   8880000   40.179566      58.242057      398.75517    
   8890000   45.351555      59.051043      404.2939     
   8900000   40.676321      63.011409      431.40861    
   8910000   37.157799      55.061753      376.98116    
   8920000   40.043554      66.970044      458.51147    
   8930000   44.918952      66.987566      458.63143    
   8940000   24.622748      62.928964      430.84415    
   8950000   34.414699      53.989566      369.64042    
   8960000   38.424025      57.623878      394.52279    
   8970000   38.946087      70.579993      483.22704    
   8980000   50.417445      61.961197      424.21832    
   8990000   38.548482      73.388829      502.45778    
   9000000   45.536388      70.902697      485.43644    
   9010000   45.478151      79.536456      544.54761    
   9020000   49.857627      58.560082      400.93253    
   9030000   41.904037      74.041253      506.92461    
   9040000   48.058952      63.639324      435.70764    
   9050000   52.711964      65.575858      448.96615    
   9060000   36.298957      62.704708      429.30878    
   9070000   32.216004      70.992991      486.05464    
   9080000   35.860135      73.066683      500.25221    
   9090000   30.698215      63.637912      435.69797    
   9100000   27.70539       72.651846      497.41202    
   9110000   32.072782      74.629887      510.9547     
   9120000   43.409829      69.928843      478.76893    
   9130000   37.381781      65.772351      450.31144    
   9140000   45.234465      70.489625      482.60834    
   9150000   32.716288      66.519436      455.42637    
   9160000   41.336807      56.820841      389.02479    
   9170000   33.291959      47.297719      323.82458    
   9180000   45.345563      65.642913      449.42525    
   9190000   40.628223      69.352181      474.82081    
   9200000   55.974655      60.42112       413.67415    
   9210000   41.05029       68.536109      469.23355    
   9220000   37.556209      63.566359      435.20809    
   9230000   35.81309       71.84216       491.86849    
   9240000   50.369453      61.535264      421.30216    
   9250000   37.623783      65.610962      449.20649    
   9260000   36.421741      67.060647      459.13178    
   9270000   32.331879      69.945302      478.88162    
   9280000   31.002438      72.42892       495.88575    
   9290000   39.440519      50.99305       349.12472    
   9300000   39.200722      62.475651      427.74053    
   9310000   38.567563      55.952443      383.07929    
   9320000   35.230671      56.348859      385.79336    
   9330000   35.580336      64.060237      438.58943    
   9340000   42.345259      62.459259      427.62831    
   9350000   39.826303      72.87209       498.91992    
   9360000   38.355317      59.422381      406.83628    
   9370000   45.070272      72.59457       497.01987    
   9380000   41.060372      59.240782      405.59295    
   9390000   43.266308      61.575188      421.5755     
   9400000   41.913197      66.033286      452.09794    
   9410000   47.565116      75.234683      515.09545    
   9420000   48.979724      75.122119      514.32478    
   9430000   44.444177      70.033814      479.48762    
   9440000   39.964423      63.500122      434.7546     
   9450000   35.97374       70.60667       483.40969    
   9460000   39.847979      60.205105      412.19521    
   9470000   45.573852      60.434193      413.76366    
   9480000   44.783658      62.145361      425.4792     
   9490000   37.098101      65.756699      450.20428    
   9500000   44.286209      59.765135      409.18295    
   9510000   41.094327      60.171719      411.96663    
   9520000   43.430433      68.510764      469.06003    
   9530000   29.253169      62.121839      425.31816    
   9540000   41.284904      52.283504      357.95984    
   9550000   29.960742      64.151882      439.21688    
   9560000   41.797139      60.015759      410.89885    
   9570000   40.690941      66.597613      455.96161    
   9580000   46.059744      64.643131      442.58022    
   9590000   38.646367      60.251848      412.51523    
   9600000   36.288507      65.029832      445.22778    
   9610000   33.763878      73.191153      501.10439    
   9620000   47.182395      55.101218      377.25136    
   9630000   50.443839      65.902154      451.20015    
   9640000   47.081876      65.599505      449.12805    
   9650000   57.49949       61.738275      422.69208    
   9660000   34.687039      60.609561      414.96432    
   9670000   38.068017      56.906551      389.6116     
   9680000   33.79182       62.504628      427.93893    
   9690000   39.526362      55.165441      377.69106    
   9700000   36.13211       68.974082      472.23215    
   9710000   30.910648      70.222905      480.78223    
   9720000   48.479744      47.602683      325.91253    
   9730000   47.978861      59.907644      410.15864    
   9740000   42.457217      65.89485       451.15014    
   9750000   44.160862      57.048726      390.585      
   9760000   38.407853      63.317307      433.50295    
   9770000   45.632932      78.024165      534.19368    
   9780000   45.377191      65.46715       448.22188    
   9790000   41.869489      62.429196      427.42248    
   9800000   36.222452      73.014433      499.89447    
   9810000   51.767471      65.241446      446.67659    
   9820000   54.095331      77.436319      530.16899    
   9830000   41.538522      74.376839      509.22221    
   9840000   39.543829      81.199387      555.93289    
   9850000   47.748569      64.882985      444.22239    
   9860000   46.1678        66.023996      452.03434    
   9870000   35.93868       68.895893      471.69682    
   9880000   34.663967      74.752409      511.79355    
   9890000   40.190691      65.182354      446.27202    
   9900000   44.087648      76.110542      521.09203    
   9910000   49.034652      68.577322      469.51572    
   9920000   46.256087      66.965456      458.48006    
   9930000   43.132114      69.43826       475.41015    
   9940000   49.304375      87.971031      602.29506    
   9950000   53.97323       65.174751      446.21997    
   9960000   37.707602      59.645036      408.36069    
   9970000   25.034395      57.986882      397.00811    
   9980000   30.89637       64.118672      438.98951    
   9990000   34.540405      61.757744      422.82537    
  10000000   37.13898       72.410065      495.75666    
  10010000   46.123406      69.935715      478.81598    
  10020000   52.193974      62.869934      430.44       
  10030000   33.733796      72.03383       493.18076    
  10040000   39.437812      62.283406      426.42433    
  10050000   39.604197      59.722129      408.8885     
  10060000   34.848983      63.25381       433.06822    
  10070000   42.187068      68.655291      470.04954    
  10080000   40.956815      90.475204      619.43992    
  10090000   53.10623       76.422319      523.22662    
  10100000   27.025203      62.833693      430.19187    
  10110000   34.325945      54.290538      371.70103    
  10120000   39.952255      59.088933      404.55332    
  10130000   43.025518      66.086975      452.46552    
  10140000   38.994745      77.480961      530.47463    
  10150000   35.919958      69.738413      477.46515    
  10160000   51.76011       61.84634       423.43195    
  10170000   38.49758       66.72517       456.83493    
  10180000   34.465627      76.909692      526.56342    
  10190000   38.041818      63.279582      433.24466    
  10200000   42.105166      75.109129      514.23584    
  10210000   40.861212      60.544396      414.51816    
  10220000   35.624411      77.36794       529.70083    
  10230000   42.524734      60.271877      412.65236    
  10240000   29.909856      71.807628      491.63206    
  10250000   42.213754      67.259074      460.49032    
  10260000   43.12723       66.8408        457.62659    
  10270000   34.628376      63.787708      436.72355    
  10280000   43.488392      61.063277      418.0707     
  10290000   30.076301      60.097427      411.45799    
  10300000   33.262951      63.395982      434.0416     
  10310000   40.24183       52.512225      359.52578    
  10320000   39.598414      60.944068      417.25453    
  10330000   34.753958      51.647519      353.60555    
  10340000   42.541285      62.174232      425.67687    
  10350000   46.534047      59.187383      405.22735    
  10360000   38.707606      69.178937      473.63469    
  10370000   33.17297       69.938794      478.83706    
  10380000   34.38809       73.308847      501.91019    
  10390000   42.783301      70.34183       481.59645    
  10400000   43.82057       64.886342      444.24537    
  10410000   46.615232      73.966347      506.41176    
  10420000   43.616405      61.864263      423.55466    
  10430000   54.909246      70.684141      483.94009    
  10440000   45.590131      77.356813      529.62464    
  10450000   50.897658      77.111932      527.94806    
  10460000   56.183368      60.696199      415.55749    
  10470000   33.233905      62.452449      427.58168    
  10480000   42.648746      67.6811        463.37972    
  10490000   45.39254       73.291954      501.79453    
  10500000   35.431752      69.513043      475.92215    
  10510000   33.749623      61.830898      423.32622    
  10520000   44.529936      60.291291      412.78528    
  10530000   47.745907      75.805799      519.0056     
  10540000   33.941593      86.513717      592.31753    
  10550000   45.540137      56.504329      386.85778    
  10560000   39.75531       61.281338      419.56365    
  10570000   42.977281      58.689148      401.81618    
  10580000   47.322862      69.0272        472.59582    
  10590000   55.560969      56.611942      387.59456    
  10600000   40.768503      79.82902       546.55065    
  10610000   43.401445      61.852633      423.47503    
  10620000   42.181198      69.355028      474.8403     
  10630000   40.282036      60.670112      415.37889    
  10640000   41.091287      68.70215       470.37036    
  10650000   50.616137      68.937555      471.98206    
  10660000   60.127308      80.23968       549.36224    
  10670000   46.944582      76.797331      525.79414    
  10680000   57.444443      74.287984      508.61386    
  10690000   38.560124      78.149678      535.05301    
  10700000   41.211076      66.124625      452.72329    
  10710000   50.77674       60.371003      413.33103    
  10720000   53.732648      56.635019      387.75255    
  10730000   36.048259      79.310543      543.00089    
  10740000   41.999205      52.266479      357.84328    
  10750000   34.484153      69.21072       473.85229    
  10760000   41.951026      64.026778      438.36035    
  10770000   38.157346      71.642441      490.50111    
  10780000   37.50109       63.176386      432.53813    
  10790000   41.999778      52.068668      356.48896    
  10800000   40.283419      71.099478      486.78371    
  10810000   48.851667      75.999821      520.33398    
  10820000   49.915954      70.132801      480.16533    
  10830000   49.232601      69.50327       475.85524    
  10840000   34.13202       65.821569      450.64841    
  10850000   35.73258       64.864919      444.0987     
  10860000   38.705964      79.98032       547.58653    
  10870000   56.675131      72.793345      498.38079    
  10880000   42.539609      81.871208      560.53252    
  10890000   36.576235      71.202537      487.4893     
  10900000   36.051306      75.505725      516.95114    
  10910000   36.202109      67.700286      463.51108    
  10920000   46.68467       77.745083      532.28294    
  10930000   39.926477      83.492465      571.63248    
  10940000   35.383803      85.115852      582.74703    
  10950000   42.069855      65.637592      449.38881    
  10960000   37.509015      67.060844      459.13313    
  10970000   42.288496      64.21738       439.66531    
  10980000   49.198342      81.338358      556.88436    
  10990000   37.986208      69.411142      475.22448    
  11000000   48.428656      80.697279      552.4952     
  11010000   44.317428      68.821514      471.18759    
  11020000   54.330854      80.063176      548.15381    
  11030000   38.926337      74.234409      508.24706    
  11040000   52.433863      69.63498       476.75699    
  11050000   65.97361       68.612565      469.75701    
  11060000   37.160645      70.466632      482.45091    
  11070000   41.688966      64.179869      439.40849    
  11080000   58.869         72.876553      498.95048    
  11090000   44.39222       83.775437      573.56986    
  11100000   49.583392      67.689202      463.4352     
  11110000   40.211614      87.567289      599.53083    
  11120000   44.486668      60.462665      413.95859    
  11130000   36.46232       76.613733      524.53714    
  11140000   44.119584      70.104097      479.96881    
  11150000   39.914781      67.043563      459.01482    
  11160000   52.222255      68.166727      466.70458    
  11170000   57.321918      70.355092      481.68726    
  11180000   46.19747       80.143606      548.70447    
  11190000   36.506183      77.172913      528.36557    
  11200000   54.102083      64.863166      444.08669    
  11210000   44.880648      62.372939      427.03732    
  11220000   40.199507      75.41188       516.30863    
  11230000   47.976329      73.279648      501.71027    
  11240000   49.821377      68.356516      468.00397    
  11250000   50.506001      65.331168      447.29088    
  11260000   39.333819      68.026224      465.74262    
  11270000   44.01779       77.455435      530.29986    
  11280000   34.52377       62.413898      427.31774    
  11290000   39.141163      59.113585      404.7221     
  11300000   25.609928      59.432851      406.90796    
  11310000   38.661967      72.392351      495.63538    
  11320000   42.793131      73.048805      500.1298     
  11330000   40.527389      66.89195       457.9768     
  11340000   46.082019      73.494626      503.18212    
  11350000   47.403366      75.655283      517.97509    
  11360000   33.116552      59.579812      407.91413    
  11370000   42.517051      73.365483      502.29794    
  11380000   53.644719      62.209359      425.91736    
  11390000   44.068832      71.994523      492.91164    
  11400000   46.001708      72.586799      496.96667    
  11410000   33.865137      79.732313      545.88855    
  11420000   37.977021      66.878662      457.88582    
  11430000   38.217423      63.318114      433.50847    
  11440000   44.734722      63.610804      435.51238    
  11450000   47.125117      70.598495      483.35372    
  11460000   47.36124       76.989769      527.11168    
  11470000   46.538427      62.582995      428.47547    
  11480000   44.003429      71.654396      490.58296    
  11490000   34.528683      85.71043       586.81782    
  11500000   37.187393      90.51077       619.68342    
  11510000   40.916472      67.168899      459.87293    
  11520000   50.833779      72.955894      499.49368    
  11530000   45.152608      77.530897      530.81651    
  11540000   40.539044      64.044731      438.48327    
  11550000   25.434584      65.399257      447.75705    
  11560000   56.170744      84.52585       578.70758    
  11570000   56.438557      75.798725      518.95717    
  11580000   33.500682      83.437737      571.25779    
  11590000   42.134093      63.420547      434.20978    
  11600000   44.814597      68.136875      466.5002     
  11610000   48.470703      68.978745      472.26407    
  11620000   44.918617      85.976833      588.64175    
  11630000   47.88443       71.70935       490.9592     
  11640000   36.116353      73.59726       503.88481    
  11650000   45.677993      67.845634      464.50621    
  11660000   49.377158      66.8254        457.52116    
  11670000   54.534692      65.400595      447.76621    
  11680000   55.702364      76.752383      525.48641    
  11690000   47.395148      78.510015      537.52006    
  11700000   41.18237       65.475105      448.27634    
  11710000   46.537955      72.485722      496.27464    
  11720000   44.063793      83.488763      571.60714    
  11730000   49.125316      54.515704      373.24263    
  11740000   31.176702      65.746403      450.13379    
  11750000   51.201161      75.188867      514.78177    
  11760000   45.778644      73.144622      500.78581    
  11770000   34.195579      69.666311      476.97151    
  11780000   38.094345      93.345259      639.08979    
  11790000   48.778516      73.150345      500.825      
  11800000   54.739779      89.967718      615.96541    
  11810000   42.669708      68.79082       470.97744    
  11820000   46.645926      54.61692       373.93561    
  11830000   46.167351      75.747066      518.60349    
  11840000   46.769173      87.783353      601.01012    
  11850000   40.701659      68.488427      468.9071     
  11860000   55.617777      76.929041      526.6959     
  11870000   61.127003      51.44627       352.22771    
  11880000   39.061545      70.528128      482.87195    
  11890000   40.777276      74.10679       507.37331    
  11900000   45.616344      66.120772      452.69691    
  11910000   49.956995      72.024965      493.12006    
  11920000   50.130254      71.518687      489.65383    
  11930000   34.041081      79.595182      544.94968    
  11940000   35.123346      67.227153      460.27177    
  11950000   33.708738      76.67814       524.9781     
  11960000   30.495747      71.068298      486.57023    
  11970000   36.239107      66.810833      457.42143    
  11980000   60.637052      57.194679      391.58427    
  11990000   46.772439      71.319748      488.29179    
  12000000   48.713513      92.823419      635.51701    
Loop time of 135.878 on 1 procs for 8000000 steps with 50 atoms

Performance: 50869.083 ns/day, 0.000 hours/ns, 58876.254 timesteps/s, 2.944 Matom-step/s
99.2% CPU use with 1 MPI tasks x 1 OpenMP threads

MPI task timing breakdown:
Section |  min time  |  avg time  |  max time  |%varavg| %total
---------------------------------------------------------------
Pair    | 100.7      | 100.7      | 100.7      |   0.0 | 74.11
Bond    | 19.102     | 19.102     | 19.102     |   0.0 | 14.06
Neigh   | 2.8245     | 2.8245     | 2.8245     |   0.0 |  2.08
Comm    | 3.0292     | 3.0292     | 3.0292     |   0.0 |  2.23
Output  | 0.13616    | 0.13616    | 0.13616    |   0.0 |  0.10
Modify  | 9.0014     | 9.0014     | 9.0014     |   0.0 |  6.62
Other   |            | 1.082      |            |       |  0.80

Nlocal:             50 ave          50 max          50 min
Histogram: 1 0 0 0 0 0 0 0 0 0
Nghost:              0 ave           0 max           0 min
Histogram: 1 0 0 0 0 0 0 0 0 0
Neighs:            132 ave         132 max         132 min
Histogram: 1 0 0 0 0 0 0 0 0 0

Total # of neighbors = 132
Ave neighs/atom = 2.64
Ave special neighs/atom = 5.76
Neighbor list builds = 21727
Dangerous builds = 0

  # Hold at 500
  variable seedHH equal 45000+${c}
  variable seedHH equal 45000+1
  unfix fxl
  fix fxl all langevin ${T_high} ${T_high} 100000.0 ${seedHH}
  fix fxl all langevin 500 ${T_high} 100000.0 ${seedHH}
  fix fxl all langevin 500 500 100000.0 ${seedHH}
  fix fxl all langevin 500 500 100000.0 45001
  run ${n_holdH}
  run 8000000
Generated 0 of 6 mixed pair_coeff terms from geometric mixing rule
Per MPI rank memory allocation (min/avg/max) = 9.625 | 9.625 | 9.625 Mbytes
   Step         PotEng         KinEng          Temp     
  12000000   48.713513      92.823419      635.51701    
  12010000   44.871399      67.848384      464.52503    
  12020000   39.013191      92.645903      634.30164    
  12030000   46.467207      71.502554      489.54337    
  12040000   39.183113      61.926947      423.98383    
  12050000   43.460307      59.515058      407.47079    
  12060000   46.391216      78.957408      540.58314    
  12070000   30.701022      68.857686      471.43524    
  12080000   42.714476      64.447952      441.24392    
  12090000   38.10194       73.431491      502.74987    
  12100000   51.763836      77.9225        533.49763    
  12110000   56.317353      63.935522      437.73557    
  12120000   42.368208      79.714764      545.7684     
  12130000   50.784523      77.207151      528.59998    
  12140000   48.21089       82.057491      561.80791    
  12150000   44.228695      72.495564      496.34203    
  12160000   49.540076      67.463091      461.88712    
  12170000   42.758832      73.433982      502.76692    
  12180000   51.427042      66.944374      458.33572    
  12190000   35.02929       67.976093      465.3994     
  12200000   49.461782      68.239517      467.20294    
  12210000   48.592594      69.298283      474.45179    
  12220000   41.482876      69.997413      479.2384     
  12230000   48.474175      89.84344       615.11453    
  12240000   46.970361      84.692453      579.84822    
  12250000   53.672978      67.800323      464.19599    
  12260000   54.882846      61.669237      422.21941    
  12270000   39.932713      74.121106      507.47132    
  12280000   37.425013      81.871296      560.53313    
  12290000   49.119483      80.419312      550.5921     
  12300000   36.94985       61.363992      420.12954    
  12310000   34.621907      69.647149      476.84031    
  12320000   34.038257      68.402695      468.32014    
  12330000   43.128472      67.400634      461.45951    
  12340000   43.948275      76.072583      520.83215    
  12350000   61.303438      85.446298      585.00944    
  12360000   35.802501      82.30054       563.47195    
  12370000   34.084752      60.088599      411.39754    
  12380000   34.745431      71.731447      491.11049    
  12390000   37.72646       65.8735        451.00396    
  12400000   43.360099      64.863743      444.09064    
  12410000   45.933956      74.269686      508.48858    
  12420000   44.942514      73.551828      503.57376    
  12430000   41.855704      77.230355      528.75885    
  12440000   45.034207      66.545184      455.60266    
  12450000   57.2012        71.317398      488.2757     
  12460000   44.661058      65.45952       448.16964    
  12470000   51.147967      68.002911      465.583      
  12480000   43.337198      79.044691      541.18073    
  12490000   36.803829      64.483405      441.48666    
  12500000   35.44337       83.609781      572.43569    
  12510000   44.79479       60.925703      417.12879    
  12520000   51.266716      74.099893      507.3261     
  12530000   42.509442      74.713925      511.53007    
  12540000   46.504481      65.271053      446.8793     
  12550000   46.554574      67.131526      459.61706    
  12560000   40.879726      86.353572      591.2211     
  12570000   50.701871      73.900956      505.96407    
  12580000   46.134294      67.12484       459.57128    
  12590000   38.55142       72.550546      496.71846    
  12600000   49.361588      68.294314      467.57811    
  12610000   34.421357      92.256925      631.6385     
[...]
 404750000   4.0212167      45.843955      313.87136    
 404760000   9.1946228      46.908293      321.15837    
 404770000   8.7564693      46.277632      316.84054    
 404780000  -2.7534558      52.210059      357.45699    
 404790000  -3.8937737      51.80941       354.71395    
 404800000  -11.747771      41.871818      286.67607    
 404810000  -11.054688      52.539211      359.71054    
 404820000  -6.5634957      36.805812      251.99157    
 404830000  -1.8420697      43.731384      299.40761    
 404840000   1.6473865      55.091156      377.18248    
 404850000  -10.393233      52.08231       356.58236    
 404860000   2.5438904      58.585748      401.10825    
 404870000  -1.1404312      56.2696        385.25071    
 404880000  -10.923753      50.789446      347.73075    
 404890000  -3.7764647      46.873444      320.91977    
 404900000  -13.210834      38.819539      265.77859    
 404910000  -24.569101      40.623919      278.13231    
 404920000  -23.056481      50.509146      345.81167    
 404930000  -18.067013      44.50709       304.71849    
 404940000  -17.182886      45.952551      314.61487    
 404950000  -13.215489      46.838942      320.68356    
 404960000  -9.5294398      51.405043      351.94544    
 404970000  -9.3932837      41.40636       283.4893     
 404980000  -4.2106778      40.277424      275.76002    
 404990000  -18.374718      43.480758      297.6917     
 405000000  -19.931154      47.135303      322.7126     
 405010000  -10.791645      33.874557      231.92269    
 405020000  -14.755825      41.212866      282.16454    
 405030000  -11.937848      48.217175      330.11966    
 405040000  -2.5202588      44.663853      305.79178    
 405050000  -12.340011      46.410502      317.75024    
 405060000  -12.630747      48.257169      330.39347    
 405070000  -18.861736      40.20308       275.25102    
 405080000  -21.668702      42.519976      291.11369    
 405090000  -23.167362      44.047015      301.56858    
 405100000  -4.4832077      41.411745      283.52617    
 405110000  -6.1132991      36.292908      248.47997    
 405120000  -12.708184      42.426983      290.47701    
 405130000  -0.28615158     42.728033      292.53815    
 405140000   1.1316583      40.939206      280.29092    
 405150000  -9.0298094      40.888877      279.94634    
 405160000  -3.5602586      42.87238       293.52643    
 405170000  -13.951705      51.998719      356.01005    
 405180000  -17.724891      38.83891       265.91121    
 405190000  -0.084311902    41.220043      282.21368    
 405200000  -8.4539479      45.878622      314.10871    
 405210000  -13.137534      43.58326       298.39348    
 405220000  -2.3741985      40.116173      274.65601    
 405230000  -22.370991      51.090412      349.79131    
 405240000  -7.250284       44.341359      303.58382    
 405250000  -5.9213162      46.79189       320.36142    
 405260000  -12.344904      42.38181       290.16774    
 405270000  -14.657657      49.371229      338.0209     
 405280000  -16.012355      46.135739      315.86907    
 405290000  -4.6006048      45.283167      310.03192    
 405300000  -3.5607841      38.108826      260.91268    
 405310000  -18.265687      41.46904       283.91844    
 405320000  -13.267582      44.1744        302.44073    
 405330000  -13.153061      33.828152      231.60498    
 405340000  -18.550454      37.668907      257.90077    
 405350000  -14.599289      39.292327      269.01554    
 405360000  -6.3438881      39.588611      271.04405    
 405370000  -7.3249514      47.171702      322.9618     
 405380000  -12.735018      46.535272      318.60448    
 405390000  -10.719666      41.682161      285.37758    
 405400000  -14.83622       43.651415      298.8601     
 405410000  -6.6418721      44.943469      307.70617    
 405420000  -1.347031       41.075502      281.22407    
 405430000  -2.2598189      34.760479      237.98817    
 405440000  -12.628571      37.027785      253.51132    
 405450000  -17.649918      44.395655      303.95556    
 405460000  -2.5890492      41.24705       282.39858    
 405470000  -0.72426849     46.570064      318.84268    
 405480000   4.0479611      46.843279      320.71325    
 405490000   6.0802661      44.590355      305.28857    
 405500000   12.323196      44.803291      306.74644    
 405510000   8.3635551      53.317653      365.04016    
 405520000  -0.3961087      47.800648      327.26789    
 405530000  -12.280762      48.044114      328.93479    
 405540000   1.2071028      43.376969      296.9811     
 405550000  -9.4679056      39.310306      269.13863    
 405560000   1.5910371      40.705726      278.6924     
 405570000  -1.7011135      48.125734      329.4936     
 405580000   2.0550769      44.363501      303.73541    
 405590000  -2.672299       41.150409      281.73693    
 405600000  -14.467446      47.662288      326.32061    
 405610000  -7.4096831      42.159688      288.64697    
 405620000  -7.9319887      42.308721      289.66733    
 405630000  -9.7455884      36.410036      249.28189    
 405640000  -12.176635      46.999287      321.78136    
 405650000  -1.7831255      39.964544      273.61788    
 405660000  -6.0140398      41.671395      285.30387    
 405670000  -3.894211       38.028724      260.36426    
 405680000  -9.0398189      44.101345      301.94056    
 405690000  -18.613776      45.795971      313.54284    
 405700000  -7.1072299      41.182483      281.95652    
 405710000  -13.493776      43.729682      299.39596    
 405720000  -9.6733967      41.875573      286.70177    
 405730000  -2.8746614      47.530309      325.41701    
 405740000  -0.84760188     50.045611      342.63807    
 405750000  -4.025588       47.371045      324.32661    
 405760000  -7.307891       40.360797      276.33084    
 405770000  -2.0198701      42.818361      293.15659    
 405780000   1.2954561      39.752551      272.16647    
 405790000  -17.559628      47.679769      326.44029    
 405800000  -3.0755453      39.756239      272.19172    
 405810000  -14.471855      47.11682       322.58605    
 405820000  -10.660263      39.646241      271.43862    
 405830000  -12.01799       46.31729       317.11206    
 405840000  -18.692994      49.380342      338.08329    
 405850000  -11.41724       42.962361      294.14249    
 405860000  -11.908981      35.975042      246.30369    
 405870000  -5.5480315      46.596949      319.02675    
 405880000  -1.4485788      42.045277      287.86366    
 405890000  -15.156787      47.255297      323.53414    
 405900000  -2.4982651      42.729416      292.54762    
 405910000  -5.3053117      41.744659      285.80547    
 405920000  -10.510535      46.253499      316.67532    
 405930000  -10.783115      48.211917      330.08366    
 405940000  -8.1982832      47.575903      325.72917    
 405950000  -14.651627      47.031852      322.00432    
 405960000  -12.026744      35.127084      240.49814    
 405970000  -33.020439      45.55168       311.8703     
 405980000  -12.187599      40.343864      276.2149     
 405990000  -16.277845      44.91244       307.49374    
 406000000  -19.056486      45.37483       310.6595     
 406010000  -22.216187      41.543692      284.42954    
 406020000  -8.1248205      38.75085       265.30831    
 406030000  -26.030796      52.620636      360.26802    
 406040000   1.9215723      47.390768      324.46165    
 406050000  -0.73997        47.912624      328.03454    
 406060000  -6.5291306      39.962333      273.60275    
 406070000  -17.322292      41.092109      281.33778    
 406080000  -15.694596      41.980548      287.42049    
 406090000  -10.241257      46.89566       321.07188    
 406100000  -6.5707235      43.529077      298.02251    
 406110000  -12.688791      42.540557      291.2546     
 406120000  -13.330323      47.820744      327.40548    
 406130000  -10.932805      39.525908      270.61476    
 406140000  -16.369133      48.633906      332.97281    
 406150000  -7.0467724      49.974893      342.1539     
 406160000  -0.9801033      53.81128       368.41978    
 406170000   10.634997      39.226897      268.56757    
 406180000  -0.67257293     48.219506      330.13561    
 406190000   3.0017106      47.544885      325.51681    
 406200000   7.8589386      46.117666      315.74533    
 406210000  -3.3539375      49.755119      340.64921    
 406220000  -6.0138912      56.266596      385.23014    
 406230000   1.9019345      54.306564      371.81075    
 406240000  -4.8046329      45.891861      314.19935    
 406250000   6.6200596      48.678613      333.2789     
 406260000  -14.826478      49.032731      335.70337    
 406270000  -4.8884517      41.767253      285.96016    
 406280000  -10.35398       48.06236       329.05971    
 406290000  -13.967261      44.356509      303.68754    
 406300000  -7.2121974      37.895925      259.45505    
 406310000  -8.7993739      45.419884      310.96796    
 406320000  -6.9556194      43.583118      298.39251    
 406330000  -5.164781       52.705237      360.84724    
 406340000  -31.8388        48.48642       331.96304    
 406350000  -16.094973      47.661869      326.31774    
 406360000  -15.279232      43.30958       296.51972    
 406370000  -15.251092      42.44142       290.57585    
 406380000  -18.383523      41.265719      282.5264     
 406390000  -19.063597      47.904987      327.98225    
 406400000  -9.1792879      47.915603      328.05493    
 406410000  -3.6504408      46.298917      316.98627    
 406420000  -11.239574      52.69435       360.77271    
 406430000  -11.432294      40.913575      280.11544    
 406440000  -18.552588      42.979331      294.25867    
 406450000  -13.253783      37.936016      259.72954    
 406460000  -16.504087      47.471055      325.01133    
 406470000  -13.024457      36.520814      250.04033    
 406480000  -26.214178      49.064652      335.92192    
 406490000  -15.657624      36.205644      247.88252    
 406500000  -17.320524      38.770249      265.44113    
 406510000  -16.876566      41.461113      283.86417    
 406520000  -16.643101      34.608453      236.94732    
 406530000  -27.891478      55.820287      382.17448    
 406540000  -22.219159      42.183329      288.80883    
 406550000  -14.895357      38.376409      262.74469    
 406560000  -14.606716      44.151839      302.28627    
 406570000  -18.221696      33.010684      226.00817    
 406580000  -19.734647      40.029778      274.06451    
 406590000  -10.183274      37.00583       253.361      
 406600000  -7.0469844      44.860187      307.13598    
 406610000  -17.841437      55.186445      377.83487    
 406620000  -19.1224        36.633913      250.81467    
 406630000  -7.1091076      36.932982      252.86224    
 406640000  -18.295916      36.880946      252.50598    
 406650000  -21.862489      43.982423      301.12636    
 406660000  -10.128505      33.716796      230.84258    
 406670000  -9.5481072      37.294077      255.33449    
 406680000  -8.5384093      50.527524      345.93749    
 406690000   7.2031143      45.62272       312.35667    
 406700000  -5.1775298      50.210202      343.76494    
 406710000  -0.85829603     46.949561      321.44091    
 406720000   3.1562486      51.62048       353.42044    
 406730000   1.9754218      39.996788      273.83864    
 406740000  -3.5730379      45.851747      313.92472    
 406750000   3.6652172      50.748302      347.44905    
 406760000   7.6172734      65.289354      447.0046     
 406770000   10.469077      42.459362      290.6987     
 406780000   0.75357733     51.1943        350.50259    
 406790000  -9.5549601      50.345925      344.69417    
 406800000  -3.7284539      45.864994      314.01541    
 406810000  -2.4577214      47.333992      324.07293    
 406820000  -8.0945712      52.238149      357.64931    
 406830000  -8.3358788      45.004454      308.12371    
 406840000  -4.4620225      47.078468      322.32348    
 406850000  -0.8790338      51.169072      350.32986    
 406860000  -5.8375111      47.118812      322.5997     
 406870000  -9.9161703      40.853394      279.70341    
 406880000  -23.18116       46.862116      320.84222    
 406890000  -11.049271      44.441963      304.2726     
 406900000  -8.5995418      38.45318       263.27031    
 406910000  -11.401778      39.544562      270.74247    
 406920000  -18.44161       40.705298      278.68947    
 406930000  -9.9969129      35.446697      242.68638    
 406940000  -17.183351      52.173187      357.20455    
 406950000  -11.323005      50.872925      348.30229    
 406960000  -9.8506029      41.667248      285.27548    
 406970000  -21.507505      47.601811      325.90655    
 406980000  -16.592519      47.844247      327.5664     
 406990000  -20.476978      49.546444      339.22051    
 407000000  -12.849037      44.404181      304.01393    
 407010000  -14.033492      48.565477      332.50431    
 407020000  -17.444067      39.632709      271.34597    
 407030000  -1.5374452      49.470854      338.70299    
 407040000  -10.360624      38.245911      261.85123    
 407050000  -16.764597      49.48944       338.83024    
 407060000  -8.8894121      43.303761      296.47989    
 407070000  -2.8973032      43.645475      298.81944    
 407080000  -9.3955951      43.258815      296.17217    
 407090000  -7.7808661      46.146256      315.94108    
 407100000  -8.4288104      46.91011       321.17081    
 407110000  -10.455574      47.977474      328.47854    
 407120000  -7.1955206      41.219259      282.20831    
 407130000  -4.7928679      45.375746      310.66576    
 407140000  -1.7096202      45.156112      309.16204    
 407150000   1.1122877      52.920176      362.31882    
 407160000  -3.8539113      51.672429      353.7761     
 407170000  -3.7543612      43.290408      296.38846    
 407180000  -5.6196098      47.58456       325.78845    
 407190000   6.5733717      45.44906       311.16771    
 407200000  -10.554599      46.003168      314.96142    
 407210000  -14.885342      36.434623      249.45022    
 407220000  -13.498171      39.184487      268.27721    
 407230000  -20.207482      36.852262      252.3096     
 407240000  -15.491024      41.545472      284.44173    
 407250000  -16.177113      46.042837      315.23301    
 407260000  -5.4025746      42.483329      290.86279    
 407270000  -11.168304      52.643445      360.42418    
 407280000  -7.5413685      34.667513      237.35168    
 407290000  -4.90395        35.971197      246.27737    
 407300000  -14.04726       43.953779      300.93025    
 407310000  -7.8469492      46.479842      318.22497    
 407320000  -6.6789901      42.753683      292.71377    
 407330000  -8.1031351      52.929909      362.38546    
 407340000  -8.3338389      39.519167      270.5686     
 407350000  -3.754314       44.694677      306.00281    
 407360000  -7.1462035      35.995968      246.44697    
 407370000  -9.2233082      36.980084      253.18473    
 407380000  -7.5090196      42.217284      289.04131    
 407390000  -11.813279      42.534924      291.21603    
 407400000  -12.688459      48.65704       333.1312     
 407410000  -22.645156      49.744296      340.57511    
 407420000  -15.417406      37.821292      258.94408    
 407430000  -12.437573      44.529903      304.87469    
 407440000  -6.5618658      48.107428      329.36827    
 407450000   2.4735272      46.159444      316.03136    
 407460000   0.81013587     52.041942      356.30598    
 407470000   6.5475438      41.610174      284.88471    
 407480000  -7.3823006      51.491097      352.53461    
 407490000  -2.4848453      48.457576      331.76556    
 407500000  -3.0700092      41.698122      285.48685    
 407510000  -1.6090632      40.470925      277.08483    
 407520000  -3.7008887      44.002302      301.26246    
 407530000   6.4960919      31.671341      216.83834    
 407540000   6.2337352      36.13971       247.43109    
 407550000  -9.2916471      43.826668      300.05998    
 407560000  -4.4292116      49.296209      337.50728    
 407570000  -7.9825858      41.94211       287.15732    
 407580000  -6.0855846      47.018097      321.91014    
 407590000  -10.809325      51.534969      352.83498    
 407600000  -7.6711897      45.191934      309.40729    
 407610000  -21.546442      48.853513      334.47635    
 407620000  -9.0228954      44.718729      306.16749    
 407630000  -4.9441553      40.671826      278.4603     
 407640000  -0.84661066     45.278116      309.99734    
 407650000  -0.32679744     44.035724      301.49128    
 407660000   7.2474967      52.64968       360.46687    
 407670000   22.138053      42.7642        292.78577    
 407680000   14.965086      55.162651      377.67196    
 407690000  -1.9806058      42.857767      293.42638    
 407700000  -13.577745      47.509707      325.27596    
 407710000  -9.8408295      41.171576      281.88185    
 407720000  -16.329681      45.629822      312.4053     
 407730000   7.2849191      45.331945      310.36588    
 407740000  -1.1794278      54.246512      371.3996     
 407750000   0.070014945    44.507937      304.7243     
 407760000  -9.5333747      41.839623      286.45565    
 407770000  -15.26308       44.327393      303.4882     
 407780000  -4.1720316      39.518114      270.56139    
 407790000  -7.1715125      52.417881      358.87985    
 407800000  -10.817342      47.532425      325.4315     
 407810000  -9.0236138      42.634879      291.90037    
 407820000  -8.9562971      44.77448       306.54918    
 407830000  -11.977131      44.173013      302.43123    
 407840000  -3.136653       48.045957      328.94741    
 407850000  -7.4528964      46.384922      317.5751     
 407860000   1.6991879      42.151041      288.58777    
 407870000  -4.7029847      45.298983      310.14021    
 407880000  -6.1740839      45.193216      309.41607    
 407890000  -3.6350417      42.267547      289.38543    
 407900000  -12.89301       44.233321      302.84413    
 407910000  -5.9649865      44.375912      303.82038    
 407920000  -5.4269131      42.644825      291.96847    
 407930000  -9.9941088      44.320199      303.43895    
 407940000   4.1909727      37.71621       258.22463    
 407950000  -6.818856       57.119216      391.06762    
 407960000  -6.3405694      46.333598      317.22371    
 407970000  -4.9263525      40.43782       276.85818    
 407980000  -17.442665      55.404105      379.32509    
 407990000  -1.3511895      52.169638      357.18025    
 408000000  -13.261228      44.532566      304.89292    
Loop time of 137.873 on 1 procs for 4000000 steps with 50 atoms

Performance: 25066.484 ns/day, 0.001 hours/ns, 29012.135 timesteps/s, 1.451 Matom-step/s
99.2% CPU use with 1 MPI tasks x 1 OpenMP threads

MPI task timing breakdown:
Section |  min time  |  avg time  |  max time  |%varavg| %total
---------------------------------------------------------------
Pair    | 119.09     | 119.09     | 119.09     |   0.0 | 86.38
Bond    | 10.071     | 10.071     | 10.071     |   0.0 |  7.30
Neigh   | 1.2382     | 1.2382     | 1.2382     |   0.0 |  0.90
Comm    | 1.8345     | 1.8345     | 1.8345     |   0.0 |  1.33
Output  | 0.095962   | 0.095962   | 0.095962   |   0.0 |  0.07
Modify  | 4.8535     | 4.8535     | 4.8535     |   0.0 |  3.52
Other   |            | 0.6901     |            |       |  0.50

Nlocal:             50 ave          50 max          50 min
Histogram: 1 0 0 0 0 0 0 0 0 0
Nghost:              0 ave           0 max           0 min
Histogram: 1 0 0 0 0 0 0 0 0 0
Neighs:            380 ave         380 max         380 min
Histogram: 1 0 0 0 0 0 0 0 0 0

Total # of neighbors = 380
Ave neighs/atom = 7.6
Ave special neighs/atom = 5.76
Neighbor list builds = 8132
Dangerous builds = 0

write_data outputs/${tag}_final.data
write_data outputs/config_09_len50_09.dat_final.data
System init for write_data ...
Generated 0 of 6 mixed pair_coeff terms from geometric mixing rule
Total wall time: 2:14:00
