
# ===============================
# FORCE FIELD
# ===============================
bond_style harmonic
bond_coeff 1 7.5 5.9

angle_style harmonic
angle_coeff 1 5.0 150.0

pair_style hybrid/overlay lj/cut 10.0 base/rna 18.0
pair_modify shift yes
pair_coeff * * lj/cut 2.0 8.9089871814

# Base-pair interactions
pair_coeff 1 1 base/rna 0.00000 3.0 13.8 1.5 0.5 1.8326 0.9425 1.8326 1.1345
pair_coeff 1 2 base/rna 0.00000 3.0 13.8 1.5 0.5 1.8326 0.9425 1.8326 1.1345
pair_coeff 1 3 base/rna 0.00000 3.0 13.8 1.5 0.5 1.8326 0.9425 1.8326 1.1345
pair_coeff 1 4 base/rna 3.33333 3.0 13.8 1.5 0.5 1.8326 0.9425 1.8326 1.1345
pair_coeff 2 2 base/rna 0.00000 3.0 13.8 1.5 0.5 1.8326 0.9425 1.8326 1.1345
pair_coeff 2 3 base/rna 5.00000 3.0 13.8 1.5 0.5 1.8326 0.9425 1.8326 1.1345
pair_coeff 2 4 base/rna 0.00000 3.0 13.8 1.5 0.5 1.8326 0.9425 1.8326 1.1345
pair_coeff 3 3 base/rna 0.00000 3.0 13.8 1.5 0.5 1.8326 0.9425 1.8326 1.1345
pair_coeff 3 4 base/rna 3.33333 3.0 13.8 1.5 0.5 1.8326 0.9425 1.8326 1.1345
pair_coeff 4 4 base/rna 0.00000 3.0 13.8 1.5 0.5 1.8326 0.9425 1.8326 1.1345

special_bonds lj 0.0 0.0 1.0
Finding 1-2 1-3 1-4 neighbors ...
  special bond factors lj:    0        0        1       
  special bond factors coul:  0        0        0       
     2 = max # of 1-2 neighbors
     2 = max # of 1-3 neighbors
     4 = max # of 1-4 neighbors
     6 = max # of special neighbors
  special bonds CPU = 0.000 seconds
neighbor 15.0 bin
neigh_modify every 10 delay 0
comm_style tiled
timestep 10

# ===============================
# DUMPS
# ===============================
dump d1 all custom ${dump_stride} outputs_100/${tag}.lammpstrj id mol type q xu yu zu
dump d1 all custom 50000 outputs_100/${tag}.lammpstrj id mol type q xu yu zu
dump d1 all custom 50000 outputs_100/config_07_len50_07.dat.lammpstrj id mol type q xu yu zu
dump_modify d1 sort id

# ===============================
# THERMO
# ===============================
thermo_style custom step pe ke temp
thermo ${thermo_stride}
thermo 10000
thermo_modify flush yes

variable vpe equal pe
variable vke equal ke
variable vT  equal temp

fix fa all ave/time ${thermo_stride} 10 ${stride10} v_vpe v_vke v_vT file outputs_100/thermo_${tag}_averaged.dat
fix fa all ave/time 10000 10 ${stride10} v_vpe v_vke v_vT file outputs_100/thermo_${tag}_averaged.dat
fix fa all ave/time 10000 10 100000 v_vpe v_vke v_vT file outputs_100/thermo_${tag}_averaged.dat
fix fa all ave/time 10000 10 100000 v_vpe v_vke v_vT file outputs_100/thermo_config_07_len50_07.dat_averaged.dat

# ===============================
# EQUILIBRATION (40 ns)
# ===============================
fix fxnve all nve
variable seed0 equal 43001
fix fxl all langevin ${T_eq} ${T_eq} 100000.0 ${seed0}
fix fxl all langevin 298 ${T_eq} 100000.0 ${seed0}
fix fxl all langevin 298 298 100000.0 ${seed0}
fix fxl all langevin 298 298 100000.0 43001

run ${n_eq}
run 4000000

CITE-CITE-CITE-CITE-CITE-CITE-CITE-CITE-CITE-CITE-CITE-CITE-CITE

Your simulation uses code contributions which should be cited:

- Type Label Framework: https://doi.org/10.1021/acs.jpcb.3c08419

@Article{Gissinger24,
 author = {Jacob R. Gissinger, Ilia Nikiforov, Yaser Afshar, Brendon Waters, Moon-ki Choi, Daniel S. Karls, Alexander Stukowski, Wonpil Im, Hendrik Heinz, Axel Kohlmeyer, and Ellad B. Tadmor},
 title = {Type Label Framework for Bonded Force Fields in LAMMPS},
 journal = {J. Phys. Chem. B},
 year =    2024,
 volume =  128,
 number =  13,
 pages =   {3282–-3297}
}

CITE-CITE-CITE-CITE-CITE-CITE-CITE-CITE-CITE-CITE-CITE-CITE-CITE

Generated 0 of 6 mixed pair_coeff terms from geometric mixing rule
Neighbor list info ...
  update: every = 10 steps, delay = 0 steps, check = yes
  max neighbors/atom: 2000, page size: 100000
  master list distance cutoff = 33
  ghost atom cutoff = 33
  binsize = 16.5, bins = 61 61 61
  2 neighbor lists, perpetual/occasional/extra = 2 0 0
  (1) pair lj/cut, perpetual, trim from (2)
      attributes: half, newton on, cut 25
      pair build: trim
      stencil: none
      bin: none
  (2) pair base/rna, perpetual
      attributes: half, newton on
      pair build: half/bin/newton
      stencil: half/bin/3d
      bin: standard
Per MPI rank memory allocation (min/avg/max) = 8.368 | 8.368 | 8.368 Mbytes
   Step         PotEng         KinEng          Temp     
         0   65.797361      0              0            
     10000   32.806962      39.835544      272.73468    
     20000   31.979313      44.862995      307.1552     
     30000   31.391233      43.075446      294.91672    
     40000   32.597283      36.051548      246.8275     
     50000   33.997658      45.109936      308.84589    
     60000   27.422914      45.159886      309.18788    
     70000   36.420479      44.78343       306.61046    
     80000   25.893873      45.495671      311.48684    
     90000   19.398034      51.489714      352.52514    
    100000   10.286491      48.533402      332.2847     
    110000   18.638553      44.911582      307.48786    
    120000   15.292045      45.243591      309.76096    
    130000   9.6478729      46.069631      315.41646    
    140000   13.645785      53.772886      368.15692    
    150000   23.020778      40.254054      275.60002    
    160000   23.037261      45.393539      310.78759    
    170000   19.747099      49.764209      340.71145    
    180000   10.392076      41.75817       285.89798    
    190000   15.080093      39.676786      271.64775    
    200000   14.388427      36.123979      247.32339    
    210000   5.1968228      39.253123      268.74713    
    220000   16.168603      45.959047      314.65934    
    230000   17.213202      45.392584      310.78105    
    240000   12.272276      43.517178      297.94105    
    250000   23.012955      40.070512      274.34339    
    260000   21.900292      38.059638      260.57591    
    270000   30.655719      49.947935      341.96933    
    280000   27.84957       57.386826      392.89982    
    290000   29.114172      43.844748      300.18376    
    300000   25.534693      53.817079      368.45948    
    310000   26.617351      46.625893      319.22492    
    320000   32.310457      44.780905      306.59318    
    330000   30.16977       33.852914      231.77452    
    340000   27.944277      40.767694      279.11666    
    350000   29.442148      48.397792      331.35625    
    360000   31.193108      44.708896      306.10017    
    370000   27.648238      50.497777      345.73383    
    380000   29.484908      37.33099       255.58722    
    390000   22.831518      44.867848      307.18843    
    400000   29.104771      48.517152      332.17345    
    410000   30.573026      34.582928      236.77256    
    420000   33.826873      56.871865      389.37413    
    430000   29.185449      44.475456      304.50192    
    440000   24.783371      48.83592       334.3559     
    450000   25.363249      49.795414      340.92509    
    460000   14.460007      56.004393      383.43496    
    470000   20.040642      49.412332      338.30232    
    480000   23.292682      49.266267      337.30228    
    490000   8.0485901      48.369701      331.16392    
    500000   7.2651299      51.181856      350.41739    
    510000   5.2952871      44.94616       307.7246     
    520000   7.9772589      44.006549      301.29153    
    530000   10.82736       43.634035      298.74111    
    540000   9.8635375      54.180578      370.94818    
    550000  -1.7794545      43.598112      298.49517    
    560000  -13.651618      43.259668      296.178      
    570000  -3.5263243      37.715863      258.22225    
    580000  -7.6661197      48.171337      329.80582    
    590000  -4.819266       46.096944      315.60346    
    600000   5.6037139      43.259642      296.17783    
    610000  -0.065913505    42.859395      293.43753    
    620000  -8.6749414      52.387824      358.67407    
    630000  -4.9967601      44.328317      303.49452    
    640000   6.6361357      41.354645      283.13523    
    650000   1.339548       40.207404      275.28063    
    660000   11.329842      36.636689      250.83367    
    670000   3.8983892      46.666199      319.50087    
    680000   11.498408      32.467306      222.28793    
    690000   17.439272      41.481439      284.00333    
    700000   2.1727984      45.938524      314.51883    
    710000   1.0640661      42.290097      289.53982    
    720000   3.8537995      45.210144      309.53197    
    730000   11.696445      45.138354      309.04046    
    740000   11.044033      52.066692      356.47543    
    750000   18.702843      56.72988       388.40202    
    760000   23.904292      43.264926      296.214      
    770000   15.008936      57.371513      392.79498    
    780000   21.442774      53.441271      365.88651    
    790000   19.252845      58.623616      401.36751    
    800000   7.44649        44.421699      304.13387    
    810000   7.7636113      37.663874      257.86631    
    820000   6.6555722      59.597227      408.03336    
    830000   3.4559565      55.808246      382.09204    
    840000  -7.4853977      57.386415      392.897      
    850000  -8.6146923      39.454609      270.1266     
    860000  -9.5841685      48.291757      330.63028    
    870000   4.4148681      44.276573      303.14026    
    880000  -2.1161592      47.104718      322.5032     
    890000   1.0358327      42.975779      294.23436    
    900000   3.6276877      38.963402      266.76355    
    910000  -5.0408783      41.064272      281.14719    
    920000   7.9781284      43.79407       299.83679    
    930000   5.0514778      47.853827      327.63199    
    940000  -3.5419772      44.314159      303.39759    
    950000   15.154947      39.030189      267.22081    
    960000   4.7326961      51.585402      353.18027    
    970000   10.866651      37.782236      258.67668    
    980000   4.2934516      45.240567      309.74026    
    990000   7.8591127      44.620858      305.49741    
   1000000   6.2506694      40.884179      279.91418    
   1010000   12.532507      40.221708      275.37856    
   1020000   3.665458       41.657877      285.21132    
   1030000   8.8929593      44.506913      304.71729    
   1040000   5.2549581      41.313276      282.852      
   1050000   14.804079      40.62935       278.16949    
   1060000  -1.4799056      49.567339      339.36357    
   1070000   3.8169671      47.262321      323.58223    
   1080000   11.61646       49.030745      335.68978    
   1090000   6.931657       43.244605      296.07488    
   1100000   0.15982858     45.786583      313.47857    
   1110000  -2.1508896      45.647663      312.52745    
   1120000   8.0579396      43.053444      294.76609    
   1130000   8.5420165      40.553623      277.65102    
   1140000   19.418753      43.17683       295.61085    
   1150000   15.434133      42.058119      287.95158    
   1160000   15.675897      48.829653      334.313      
   1170000   18.859787      42.947569      294.04121    
   1180000   15.299164      37.763459      258.54812    
   1190000   13.295244      40.93478       280.26062    
   1200000   14.175273      43.168651      295.55485    
   1210000   6.1223237      42.032444      287.77579    
   1220000   5.9411426      42.095028      288.20427    
   1230000   4.4683333      48.103821      329.34357    
   1240000   4.8462152      48.043199      328.92852    
   1250000   14.329         41.195275      282.0441     
   1260000   14.645181      43.183281      295.65502    
   1270000   13.446282      43.25018       296.11304    
   1280000   2.869684       40.755552      279.03353    
   1290000   9.2395304      40.536952      277.53689    
   1300000   2.4039513      40.777499      279.18379    
   1310000  -1.7445987      51.018641      349.29994    
   1320000   4.2713302      35.842138      245.39377    
   1330000   0.7308338      52.125892      356.88075    
   1340000   9.2008125      41.317595      282.88157    
   1350000   9.0131044      39.485161      270.33578    
   1360000  -8.5596115      50.693527      347.07404    
   1370000  -7.1599643      45.026756      308.2764     
   1380000  -1.7891745      38.561412      264.01132    
   1390000  -9.7795143      42.145125      288.54727    
   1400000  -0.95672152     36.837727      252.21008    
   1410000  -9.7619892      47.262172      323.58121    
   1420000  -6.6629065      42.37308       290.10796    
   1430000  -4.264604       42.606354      291.70508    
   1440000   12.585363      46.080925      315.49378    
   1450000   2.1827282      48.867484      334.572      
   1460000  -20.820058      48.346974      331.00833    
   1470000  -14.007729      46.79937       320.41263    
   1480000  -5.3450112      49.223175      337.00725    
   1490000   2.8245115      52.723721      360.97379    
   1500000   4.9165993      46.357809      317.38947    
   1510000   6.7909496      42.82541       293.20485    
   1520000   5.8594225      48.469229      331.84535    
   1530000   5.4922371      36.694521      251.22962    
   1540000  -1.1583297      37.783589      258.68594    
   1550000  -12.198638      52.848076      361.82519    
   1560000   4.5110044      45.995313      314.90764    
   1570000   0.21804413     42.078399      288.09043    
   1580000  -3.4367325      40.178609      275.08348    
   1590000  -10.869627      44.035996      301.49314    
   1600000  -24.967645      42.692052      292.29181    
   1610000  -18.345469      37.063171      253.75359    
   1620000   5.3293187      31.766288      217.48839    
   1630000   5.2169438      52.739608      361.08257    
   1640000  -5.9674459      50.644247      346.73664    
   1650000  -4.1531308      44.918368      307.53432    
   1660000  -11.522075      43.606461      298.55233    
   1670000  -16.514613      45.012012      308.17545    
   1680000  -18.10388       40.410505      276.67116    
   1690000  -7.1889359      43.967367      301.02327    
   1700000  -16.575115      42.042106      287.84195    
   1710000  -17.06526       45.541042      311.79747    
   1720000   3.2837712      35.545106      243.36013    
   1730000  -11.487907      40.240552      275.50758    
   1740000  -4.1643762      35.24713       241.32003    
   1750000  -10.896657      48.937106      335.04867    
   1760000  -4.1939444      42.486432      290.88403    
   1770000  -4.5216094      48.758039      333.82269    
   1780000  -8.1071731      35.541909      243.33825    
   1790000  -5.6308115      37.113548      254.0985     
   1800000  -21.046872      42.501167      290.98491    
   1810000  -12.814537      47.208467      323.21352    
   1820000  -7.8767439      42.494221      290.93736    
   1830000  -15.793264      55.647065      380.98851    
   1840000   6.7352128      39.374904      269.58091    
   1850000   5.6521478      46.78313       320.30144    
   1860000   2.7794483      38.111757      260.93275    
   1870000  -7.1383608      38.01737       260.28653    
   1880000   3.7572226      49.209261      336.91198    
   1890000  -3.0040051      48.383818      331.26058    
   1900000   2.5854441      44.443098      304.28038    
   1910000   12.612161      45.918552      314.38209    
   1920000   8.7514412      52.987015      362.77644    
   1930000   9.7389355      46.495821      318.33438    
   1940000   12.232152      40.338542      276.17847    
   1950000  -3.7025511      56.938698      389.8317     
   1960000   7.5456425      45.422178      310.98366    
   1970000   13.407899      47.145014      322.77908    
   1980000   11.868044      44.955419      307.78799    
   1990000   6.9703519      45.734176      313.11976    
   2000000   1.0715471      46.299476      316.9901     
   2010000   1.273109       47.394587      324.48779    
   2020000  -10.402283      51.058042      349.56969    
   2030000   3.6956815      46.352185      317.35097    
   2040000  -3.1882932      43.775259      299.70801    
   2050000  -4.0174546      43.430678      297.34883    
   2060000   2.0857131      38.746263      265.2769     
   2070000   5.5985915      46.809774      320.48386    
   2080000   5.8828044      42.96997       294.19458    
   2090000   17.083517      41.028492      280.90222    
   2100000   17.71249       47.291944      323.78504    
   2110000   10.325867      51.17484       350.36935    
   2120000   12.076139      44.598471      305.34414    
   2130000   11.127091      43.399075      297.13245    
   2140000  -0.96955141     51.471305      352.39911    
   2150000   7.775425       44.124724      302.10062    
   2160000  -0.28422449     49.796138      340.93005    
   2170000   6.5359929      36.204784      247.87662    
   2180000  -8.4883068      45.224464      309.63001    
   2190000  -2.9803443      52.643907      360.42734    
   2200000   1.2085227      52.274056      357.89515    
   2210000   15.484485      47.382826      324.40727    
   2220000   9.4830804      38.446309      263.22327    
   2230000   7.0603672      51.11095       349.93193    
   2240000   12.449291      46.705352      319.76893    
   2250000   16.412737      45.387595      310.74689    
   2260000   12.547447      44.820873      306.86682    
   2270000   10.07915       47.14607       322.78632    
   2280000   19.89236       49.546089      339.21808    
   2290000   10.934334      41.246489      282.39474    
   2300000  -0.78479198     54.245661      371.39378    
   2310000  -3.7784786      51.519326      352.72788    
   2320000   0.15612882     55.315332      378.7173     
   2330000   1.8426753      53.562629      366.71739    
   2340000   2.3642876      43.655289      298.88663    
   2350000  -6.9839331      43.464118      297.57777    
   2360000  -3.9626463      40.768134      279.11967    
   2370000  -1.6103417      46.379923      317.54088    
   2380000  -3.9785953      50.80618       347.84532    
   2390000   5.3432846      44.447568      304.31098    
   2400000   2.5714762      42.602571      291.67918    
   2410000   6.5564737      36.157538      247.55316    
   2420000  -1.708874       35.878873      245.64527    
   2430000  -0.99265975     44.635724      305.59919    
   2440000   2.5493277      45.29028       310.08062    
   2450000  -5.9625541      54.32321       371.92472    
   2460000   3.7385185      50.852004      348.15905    
   2470000   2.6693764      37.578338      257.28069    
   2480000  -5.2087406      46.751889      320.08755    
   2490000   3.8796121      46.434571      317.91503    
   2500000   3.0123213      46.48936       318.29014    
   2510000   6.0356772      46.101015      315.63133    
   2520000   12.010213      45.923108      314.41329    
   2530000   14.620835      40.972693      280.52019    
   2540000   7.4560563      49.531402      339.11753    
   2550000   11.770265      39.744582      272.11191    
   2560000   0.67341419     54.739171      374.77261    
   2570000   10.162714      43.254273      296.14107    
   2580000   14.430288      40.803073      279.35889    
   2590000   1.4605779      58.065709      397.5478     
   2600000  -3.4693631      50.872241      348.29761    
   2610000   6.0323232      37.32024       255.51362    
   2620000  -5.1934041      50.124267      343.17659    
   2630000   9.1122894      40.248145      275.55956    
   2640000  -9.1576388      45.369407      310.62237    
   2650000  -11.163278      39.451555      270.10569    
   2660000  -13.133024      43.097151      295.06533    
   2670000  -9.4756635      44.326512      303.48216    
   2680000  -19.118895      33.364852      228.43299    
   2690000  -19.059141      42.127094      288.42382    
   2700000  -7.91671        43.063695      294.83627    
   2710000  -8.3739002      48.399737      331.36957    
   2720000  -12.827474      48.334352      330.92191    
   2730000  -14.252516      45.640678      312.47962    
   2740000  -13.338497      41.691639      285.44247    
   2750000  -8.8468185      41.115075      281.49501    
   2760000  -18.841872      51.73928       354.2338     
   2770000  -12.517179      32.767156      224.34085    
   2780000  -7.6895303      39.903053      273.19688    
   2790000  -15.086336      48.44915       331.70788    
   2800000  -7.0663265      46.782844      320.29948    
   2810000  -14.654974      55.876157      382.557      
   2820000  -17.871629      39.813209      272.58177    
   2830000  -14.945261      36.314072      248.62487    
   2840000  -17.728456      42.887382      293.62914    
   2850000  -17.058381      43.285261      296.35322    
   2860000  -21.881397      40.511637      277.36356    
   2870000  -25.004677      46.605594      319.08594    
   2880000  -31.602145      45.828025      313.7623     
   2890000  -20.783943      46.962261      321.52786    
   2900000  -24.914026      40.46567       277.04885    
   2910000  -8.3322277      40.497729      277.26834    
   2920000  -9.504169       37.702279      258.12925    
   2930000  -8.6374757      41.617053      284.93181    
   2940000  -14.110506      47.114726      322.57172    
   2950000  -12.032524      36.870307      252.43314    
   2960000  -16.666582      40.531515      277.49966    
   2970000  -15.268165      33.868833      231.8835     
   2980000  -17.834521      35.196977      240.97666    
   2990000  -15.001151      45.987602      314.85484    
   3000000  -19.646634      48.858232      334.50866    
   3010000  -19.572313      39.77771       272.33872    
   3020000  -26.663817      41.249143      282.41291    
   3030000  -20.116589      42.96152       294.13673    
   3040000  -15.435777      48.733935      333.65766    
   3050000  -3.6175004      40.760153      279.06503    
   3060000  -6.1675527      49.234874      337.08735    
   3070000   0.04995669     50.702572      347.13596    
   3080000  -14.227323      43.69807       299.17953    
   3090000  -16.873311      45.701998      312.89946    
   3100000  -11.506916      55.270536      378.4106     
   3110000  -13.474796      43.553613      298.1905     
   3120000  -14.822242      47.079082      322.32768    
   3130000  -9.1198642      38.502733      263.60957    
   3140000   8.9381922      39.220028      268.52054    
   3150000   3.6078162      48.735042      333.66524    
   3160000   6.2365854      57.63342       394.58812    
   3170000   3.3483731      42.99605       294.37314    
   3180000  -9.6901241      47.769744      327.05631    
   3190000  -5.308565       38.635662      264.51967    
   3200000  -15.02944       39.762766      272.23641    
   3210000  -8.0943357      36.637874      250.84178    
   3220000  -20.918187      45.609751      312.26788    
   3230000  -16.069744      44.035777      301.49164    
   3240000  -17.435093      40.501974      277.2974     
   3250000  -28.427637      40.228887      275.42771    
   3260000  -22.928643      38.965363      266.77697    
   3270000  -11.132418      42.91506       293.81864    
   3280000  -4.6588676      41.455695      283.82707    
   3290000  -0.58480512     38.174603      261.36302    
   3300000  -9.4226122      38.085337      260.75186    
   3310000  -3.6780608      40.777523      279.18396    
   3320000  -7.910516       45.577337      312.04596    
   3330000  -1.6941919      42.711432      292.4245     
   3340000  -0.71035723     50.526607      345.93121    
   3350000  -3.3655457      51.236481      350.79138    
   3360000  -0.28775116     43.804738      299.90983    
   3370000  -8.9766054      48.722014      333.57604    
   3380000  -0.3743227      41.804136      286.21268    
   3390000  -9.62174        43.609154      298.57077    
   3400000  -11.751832      40.056652      274.24851    
   3410000  -23.325179      47.850622      327.61004    
   3420000  -11.020894      41.880442      286.73511    
   3430000  -12.589287      45.639678      312.47278    
   3440000  -1.8080511      50.439428      345.33434    
   3450000  -11.053679      49.813577      341.04945    
   3460000  -14.86688       44.41548       304.09128    
   3470000  -19.056987      42.580298      291.52668    
   3480000  -19.478659      38.655576      264.65601    
   3490000  -13.28736       44.205131      302.65113    
   3500000  -13.874417      40.724323      278.81972    
   3510000  -16.415464      43.379495      296.9984     
   3520000  -6.229877       38.448386      263.23748    
   3530000  -12.848475      44.505857      304.71006    
   3540000  -14.024774      45.232466      309.68479    
   3550000  -8.2403588      37.010728      253.39454    
   3560000  -10.085399      45.513798      311.61094    
   3570000  -10.379059      48.146908      329.63857    
   3580000  -16.344046      43.496162      297.79716    
   3590000  -23.934403      53.344009      365.2206     
   3600000  -12.703959      36.283451      248.41522    
   3610000  -12.307328      45.607009      312.24911    
   3620000  -16.066654      45.494013      311.47548    
   3630000  -13.767596      41.61842       284.94117    
   3640000  -8.8697786      45.748499      313.21783    
   3650000  -5.6080215      45.397715      310.81618    
   3660000  -7.3411854      43.78222       299.75566    
   3670000  -6.3495824      40.698836      278.64523    
   3680000  -10.257075      47.503974      325.23671    
   3690000  -11.010592      43.395321      297.10675    
   3700000  -1.9343592      49.222817      337.00479    
   3710000  -18.009403      44.321656      303.44892    
   3720000  -9.7952071      37.309924      255.44299    
   3730000  -8.3798489      39.387258      269.66549    
   3740000  -13.970519      42.725592      292.52144    
   3750000  -3.569662       46.115736      315.73212    
   3760000  -6.5545224      47.533083      325.43601    
   3770000  -17.216869      56.24084       385.05381    
   3780000  -6.3677443      49.382359      338.0971     
   3790000  -7.6046292      39.113143      267.78875    
   3800000  -18.355207      46.320824      317.13625    
   3810000  -23.77405       36.985661      253.22292    
   3820000  -8.7784109      47.213845      323.25034    
   3830000  -12.684131      48.468241      331.83858    
   3840000  -15.119129      40.021293      274.00642    
   3850000  -9.0137638      40.525904      277.46125    
   3860000  -2.9076861      43.073944      294.90644    
   3870000  -7.9246611      49.884608      341.53576    
   3880000  -3.5057858      49.431686      338.43482    
   3890000  -4.6653992      44.05486       301.6223     
   3900000  -9.5226837      34.650917      237.23805    
   3910000  -14.891499      39.964549      273.61792    
   3920000  -17.537543      43.314141      296.55095    
   3930000  -5.0380956      37.145451      254.31692    
   3940000  -11.805909      44.89432       307.36967    
   3950000  -6.5362054      40.310016      275.98316    
   3960000  -3.8783626      47.75749       326.97242    
   3970000  -15.003142      51.36379       351.663      
   3980000  -11.446647      47.722502      326.73287    
   3990000  -11.755739      36.893057      252.5889     
   4000000  -13.371716      51.223173      350.70026    
Loop time of 103.256 on 1 procs for 4000000 steps with 50 atoms

Performance: 33470.251 ns/day, 0.001 hours/ns, 38738.717 timesteps/s, 1.937 Matom-step/s
99.2% CPU use with 1 MPI tasks x 1 OpenMP threads

MPI task timing breakdown:
Section |  min time  |  avg time  |  max time  |%varavg| %total
---------------------------------------------------------------
Pair    | 86.226     | 86.226     | 86.226     |   0.0 | 83.51
Bond    | 9.1654     | 9.1654     | 9.1654     |   0.0 |  8.88
Neigh   | 1.1496     | 1.1496     | 1.1496     |   0.0 |  1.11
Comm    | 1.6282     | 1.6282     | 1.6282     |   0.0 |  1.58
Output  | 0.075019   | 0.075019   | 0.075019   |   0.0 |  0.07
Modify  | 4.4578     | 4.4578     | 4.4578     |   0.0 |  4.32
Other   |            | 0.5536     |            |       |  0.54

Nlocal:             50 ave          50 max          50 min
Histogram: 1 0 0 0 0 0 0 0 0 0
Nghost:              0 ave           0 max           0 min
Histogram: 1 0 0 0 0 0 0 0 0 0
Neighs:            484 ave         484 max         484 min
Histogram: 1 0 0 0 0 0 0 0 0 0

Total # of neighbors = 484
Ave neighs/atom = 9.68
Ave special neighs/atom = 5.76
Neighbor list builds = 8306
Dangerous builds = 0

# ===============================
# MAIN SA LOOP — 10 cycles
# ===============================
variable c loop ${ncycle}
variable c loop 10
label cyc

  # Heat 298 → 500
  variable seedH equal 44000+${c}
  variable seedH equal 44000+1
  unfix fxl
  fix fxl all langevin ${T_eq} ${T_high} 100000.0 ${seedH}
  fix fxl all langevin 298 ${T_high} 100000.0 ${seedH}
  fix fxl all langevin 298 500 100000.0 ${seedH}
  fix fxl all langevin 298 500 100000.0 44001
  run ${n_heat}
  run 8000000
Generated 0 of 6 mixed pair_coeff terms from geometric mixing rule
Per MPI rank memory allocation (min/avg/max) = 9.625 | 9.625 | 9.625 Mbytes
   Step         PotEng         KinEng          Temp     
   4000000  -13.371716      51.223173      350.70026    
   4010000  -14.23281       46.330586      317.20309    
   4020000  -4.9859575      36.498836      249.88986    
   4030000  -5.354043       41.375069      283.27507    
   4040000  -7.0453935      41.241752      282.36231    
   4050000  -10.64744       45.096134      308.7514     
   4060000  -8.1285785      38.929955      266.53456    
   4070000  -10.493637      47.176629      322.99554    
   4080000  -8.3934985      42.90164       293.72676    
   4090000  -7.0620652      43.084305      294.97738    
   4100000  -9.3702559      45.587636      312.11647    
   4110000  -25.789124      56.410499      386.21537    
   4120000  -17.530555      48.838916      334.37642    
   4130000  -17.600368      40.795321      279.30581    
   4140000  -23.09486       45.530276      311.72375    
   4150000  -13.978032      49.276671      337.37351    
   4160000  -17.943275      44.311038      303.37622    
   4170000  -5.1460476      43.762448      299.6203     
   4180000  -11.891044      45.522113      311.66787    
   4190000   3.1500202      50.748755      347.45216    
   4200000  -4.1787578      46.95653       321.48863    
   4210000  -4.8558235      45.18179       309.33784    
   4220000  -11.172479      44.404786      304.01807    
   4230000  -9.6377451      40.845573      279.64987    
   4240000  -6.8177857      47.707197      326.62808    
   4250000  -12.641733      42.766399      292.80083    
   4260000  -5.2384177      46.344125      317.29579    
   4270000  -13.228492      47.783221      327.14858    
   4280000  -5.6733813      44.601265      305.36327    
   4290000  -10.921988      51.615749      353.38805    
   4300000  -6.5316079      44.40427       304.01454    
   4310000  -12.111642      43.360172      296.8661     
   4320000  -10.112999      46.10856       315.68298    
   4330000  -9.4410827      41.034329      280.94219    
   4340000  -8.5518217      49.644299      339.89048    
   4350000  -5.6118371      41.792659      286.1341     
   4360000   1.7381284      36.406822      249.25988    
   4370000   12.013207      37.162681      254.43488    
   4380000  -4.0297009      45.643494      312.49891    
   4390000   0.56489467     51.422847      352.06734    
   4400000   7.1206798      45.371946      310.63975    
   4410000   4.199911       49.272981      337.34824    
   4420000  -6.7988049      52.199563      357.38514    
   4430000  -14.650718      51.433213      352.13831    
   4440000  -6.553188       45.849117      313.9067     
   4450000   1.7262489      44.137796      302.19012    
   4460000  -3.9869658      54.333539      371.99544    
   4470000   10.677166      47.069597      322.26274    
   4480000  -1.7473107      46.441934      317.96544    
   4490000  -2.4606129      44.327388      303.48817    
   4500000  -0.15699027     53.765926      368.10926    
   4510000   1.9420343      55.980708      383.2728     
   4520000   3.0881932      37.382019      255.93659    
   4530000   2.2776607      42.565837      291.42768    
   4540000  -7.4605666      48.375966      331.20682    
   4550000  -6.882026       60.749045      415.9193     
   4560000   4.3850991      40.614472      278.06763    
   4570000   2.3793609      39.831081      272.70413    
   4580000   1.1952091      43.275208      296.2844     
   4590000   3.7832398      43.891978      300.50712    
   4600000  -5.474229       46.249679      316.64916    
   4610000  -5.1530182      46.313958      317.08925    
   4620000  -3.7390497      47.215902      323.26442    
   4630000  -6.3551662      46.798537      320.40693    
   4640000  -4.1622982      48.994163      335.43931    
   4650000  -12.034539      49.066139      335.9321     
   4660000  -3.960444       51.65029       353.62453    
   4670000   7.4784845      47.633963      326.12668    
   4680000  -2.4838664      55.664783      381.10982    
   4690000  -5.04796        52.802822      361.51536    
   4700000  -7.8226724      41.914356      286.9673     
   4710000  -21.354647      58.784391      402.46826    
   4720000  -10.968828      52.508538      359.50054    
   4730000  -15.786769      45.325411      310.32114    
   4740000  -1.314587       49.544621      339.20803    
   4750000  -5.3214656      43.552495      298.18285    
   4760000  -14.130085      42.587811      291.57812    
   4770000  -10.311989      47.017619      321.90687    
   4780000  -10.38791       37.406469      256.10398    
   4790000  -14.992768      43.627752      298.6981     
   4800000   0.81639832     43.053318      294.76522    
   4810000  -4.1867616      42.09783       288.22346    
   4820000  -9.0166364      45.995636      314.90985    
   4830000  -17.43373       47.105626      322.50941    
   4840000  -17.981529      51.797886      354.63504    
   4850000  -11.211778      54.91577       375.98169    
   4860000  -10.219106      45.598793      312.19286    
   4870000  -9.4459381      54.418316      372.57586    
   4880000  -15.149732      47.113683      322.56458    
   4890000  -13.446194      51.974895      355.84694    
   4900000  -3.8598253      35.077129      240.15612    
   4910000  -3.8475138      47.572885      325.70851    
   4920000  -6.483627       49.387077      338.12941    
   4930000  -1.3219523      41.652872      285.17705    
   4940000   9.1608798      41.745749      285.81294    
   4950000  -8.7449728      49.708599      340.33071    
   4960000   0.91696654     47.9204        328.08778    
   4970000  -11.849316      47.584802      325.7901     
   4980000  -2.4006472      50.729733      347.32192    
   4990000   5.5318587      46.7967        320.39435    
   5000000  -8.6224347      45.227909      309.65359    
   5010000   1.8681947      40.301149      275.92246    
   5020000  -5.3662148      42.419799      290.42782    
   5030000  -6.3508483      55.840915      382.31571    
   5040000   5.9349654      48.943847      335.09483    
   5050000   8.4929467      52.23436       357.62337    
   5060000  -2.5936885      58.273983      398.97375    
   5070000   11.044054      49.460495      338.63206    
   5080000   1.6829014      51.572332      353.09079    
   5090000  -0.078206722    57.191902      391.56526    
   5100000  -11.088232      49.203804      336.87463    
   5110000  -15.377458      50.481418      345.62183    
   5120000  -3.1610937      44.980694      307.96103    
   5130000  -0.77719173     44.263844      303.05311    
   5140000  -0.30629811     42.626896      291.84572    
   5150000  -15.85741       51.527778      352.78575    
   5160000   2.7243841      47.029579      321.98876    
   5170000   14.400768      42.088707      288.161      
   5180000   5.5452005      49.993592      342.28192    
   5190000   5.1465003      56.955793      389.94874    
   5200000   15.128379      46.716223      319.84336    
   5210000   8.1354384      54.696932      374.48341    
   5220000   8.2886308      49.010457      335.55087    
   5230000   4.3818759      46.260918      316.72611    
   5240000  -4.9804192      50.661608      346.8555     
   5250000   2.14945        44.755156      306.41688    
   5260000  -3.3879215      53.318708      365.04738    
   5270000  -5.7629624      49.964241      342.08097    
   5280000  -15.679184      55.483497      379.86864    
   5290000   5.656539       49.11804       336.28744    
   5300000   1.926684       40.480814      277.15254    
   5310000  -0.1665323      42.456868      290.68162    
   5320000  -1.8075475      55.041606      376.84323    
   5330000  -8.0123912      44.279258      303.15864    
   5340000  -8.9065951      51.126098      350.03564    
   5350000  -6.7259056      52.193823      357.34584    
   5360000   0.13890936     46.021624      315.08778    
   5370000  -4.8382397      51.402436      351.92759    
   5380000   3.8188096      45.015642      308.20031    
   5390000   16.483909      39.373978      269.57456    
   5400000   4.0528694      50.730413      347.32658    
   5410000  -1.2248673      53.417672      365.72494    
   5420000   2.7371253      45.008817      308.15358    
   5430000  -6.3067644      53.108411      363.60758    
   5440000   16.116281      43.923737      300.72456    
   5450000   3.6761045      51.209504      350.60668    
   5460000   6.3347063      58.65578       401.58772    
   5470000  -0.46967274     45.92244       314.40872    
   5480000   1.7041899      52.103086      356.72461    
   5490000  -10.378827      56.861961      389.30632    
   5500000  -4.6498446      42.639182      291.92984    
   5510000   3.9352303      57.603094      394.3805     
   5520000   30.572862      38.738587      265.22435    
   5530000   8.0757403      47.316276      323.95163    
   5540000  -7.6553395      48.760788      333.84151    
   5550000   0.027850294    40.364137      276.3537     
   5560000  -0.075651181    49.376272      338.05543    
   5570000  -2.4172718      52.549264      359.77937    
   5580000   4.9781599      55.405579      379.33518    
   5590000   11.031349      49.981697      342.20048    
   5600000   13.520771      50.449142      345.40085    
   5610000   12.240694      48.137376      329.57331    
   5620000   6.6604268      46.38436       317.57126    
   5630000  -1.0371553      51.323885      351.38979    
   5640000  -10.945345      64.719143      443.10064    
   5650000  -7.9576128      50.771634      347.60879    
   5660000  -4.5025139      42.041964      287.84097    
   5670000   2.5870535      42.701559      292.3569     
   5680000  -6.1756132      47.977061      328.47571    
   5690000   1.3549046      48.707134      333.47416    
   5700000   8.9481564      50.142399      343.30073    
   5710000   1.3588929      50.82635       347.98341    
   5720000   10.787776      51.591686      353.2233     
   5730000   7.4650403      49.270174      337.32903    
   5740000  -0.86814684     57.99158       397.04027    
   5750000   1.4837847      49.173986      336.67048    
   5760000   11.607553      51.082972      349.74038    
   5770000   0.27425288     52.904759      362.21327    
   5780000   2.2139058      63.862642      437.23659    
   5790000   15.754012      52.831643      361.71268    
   5800000   15.929857      42.571007      291.46307    
   5810000   5.9140862      58.906871      403.30683    
   5820000   7.3463115      47.738684      326.84366    
   5830000   12.935602      56.234248      385.00867    
   5840000   14.410399      48.777662      333.95703    
   5850000   12.348825      51.455886      352.29354    
   5860000   10.096637      48.350492      331.03241    
   5870000   9.8241314      52.383718      358.64596    
   5880000   13.649906      59.536755      407.61934    
   5890000   14.522961      42.233417      289.15176    
   5900000   11.276916      42.153981      288.6079     
   5910000   4.5223705      48.102104      329.33182    
   5920000  -0.35426481     53.294455      364.88133    
   5930000  -4.3764104      46.080559      315.49128    
   5940000  -1.5612859      48.488823      331.9795     
   5950000  -2.9770309      49.618027      339.71061    
   5960000   9.192147       58.203634      398.49211    
   5970000   10.167998      52.670557      360.6098     
   5980000   9.243162       48.755145      333.80287    
   5990000   17.775159      47.374292      324.34884    
   6000000   9.962026       47.158572      322.87191    
   6010000   8.1166751      50.038123      342.5868     
   6020000  -1.427687       58.899625      403.25722    
   6030000   4.5265609      52.503549      359.46638    
   6040000  -17.687778      55.858018      382.4328     
   6050000  -7.5642463      48.720307      333.56436    
   6060000  -0.243747       51.020551      349.31301    
   6070000  -5.0407394      48.644231      333.0435     
   6080000  -2.2749885      54.690269      374.4378     
   6090000   4.6762235      46.617646      319.16845    
   6100000   17.770383      45.965749      314.70523    
   6110000   11.944456      59.189863      405.24433    
   6120000   8.4051092      56.903485      389.59061    
   6130000   7.7346686      58.45015       400.17988    
   6140000   18.048658      49.138457      336.42723    
   6150000   1.9336493      53.880719      368.8952     
   6160000  -3.763043       48.623682      332.90281    
   6170000   0.5615679      50.571152      346.23619    
   6180000   1.6170127      48.237082      330.25595    
   6190000   7.5341367      44.815401      306.82935    
   6200000  -2.7357614      42.420191      290.43051    
   6210000   3.7936364      46.710013      319.80085    
   6220000   18.663766      54.793614      375.14535    
   6230000   7.1850903      64.503166      441.62195    
   6240000   15.556541      55.441217      379.57917    
   6250000   12.469366      51.887045      355.24548    
   6260000   0.61357859     58.061427      397.51848    
   6270000   4.2690869      50.744784      347.42497    
   6280000  -0.5956936      56.410406      386.21474    
   6290000   16.100599      48.081949      329.19383    
   6300000   13.307388      59.223984      405.47794    
   6310000   10.646391      49.734399      340.50735    
   6320000   11.280494      48.964465      335.23599    
   6330000   16.999651      56.704976      388.23151    
   6340000   13.652486      53.133134      363.77684    
   6350000   8.4460983      47.146022      322.78599    
   6360000   2.7937322      51.699081      353.95858    
   6370000  -0.78215041     56.309408      385.52325    
   6380000   3.4053944      47.581409      325.76687    
   6390000   4.9170393      44.889472      307.33648    
   6400000  -3.9005551      49.815615      341.0634     
   6410000   3.7583758      32.909167      225.31314    
   6420000   3.0571056      45.534583      311.75325    
   6430000   1.6295921      54.872146      375.68302    
   6440000   6.8121288      51.05208       349.52888    
   6450000   4.9703823      50.60981       346.50087    
   6460000   17.711541      60.310593      412.91743    
   6470000   23.228101      49.116789      336.27888    
   6480000   17.466962      57.803738      395.75421    
   6490000   11.56927       55.834315      382.27053    
   6500000   12.437582      49.31156       337.61238    
   6510000   21.015937      45.631786      312.41875    
   6520000   22.219261      50.441679      345.34976    
   6530000   11.829609      54.667091      374.2791     
   6540000   11.572883      57.178766      391.47533    
   6550000   16.159613      48.999723      335.47738    
   6560000   20.12493       49.578088      339.43717    
   6570000   8.7353387      48.005026      328.66717    
   6580000   12.463881      46.90393       321.1285     
   6590000   13.25405       48.546131      332.37186    
   6600000   11.291697      56.062257      383.83113    
   6610000   13.093039      49.99419       342.28602    
   6620000   2.6756639      60.537744      414.47262    
   6630000   15.721676      52.584336      360.01949    
   6640000  -1.9988502      51.53964       352.86696    
   6650000  -0.47426182     45.865347      314.01783    
   6660000   9.5223574      44.064977      301.69156    
   6670000  -9.5385004      62.278116      426.38811    
   6680000   0.23123063     43.32516       296.6264     
   6690000  -2.3004212      53.10226       363.56547    
   6700000   2.6213917      55.615314      380.77113    
   6710000   13.620323      44.336167      303.54827    
   6720000   5.7208851      53.310527      364.99137    
   6730000   5.8607958      61.598648      421.73612    
   6740000   2.4591224      52.739263      361.0802     
   6750000  -2.9674939      52.884872      362.07712    
   6760000   9.8521469      49.073779      335.98441    
   6770000  -5.0434829      54.885951      375.77754    
   6780000   2.98877        60.107955      411.53006    
   6790000   14.162077      55.167938      377.70816    
   6800000   7.3996694      66.962775      458.4617     
   6810000   10.407617      46.382779      317.56043    
   6820000   4.4479944      54.547289      373.45888    
   6830000   9.3408468      60.25319       412.52442    
   6840000   9.5652526      57.459358      393.39641    
   6850000   10.249089      49.644043      339.88873    
   6860000   17.376761      57.67064       394.84295    
   6870000   14.493198      56.434463      386.37944    
   6880000   14.350747      57.067891      390.71622    
   6890000   22.966086      51.200324      350.54383    
   6900000   10.331412      54.529799      373.33914    
   6910000   20.813271      53.508914      366.34963    
   6920000   6.2123125      48.223722      330.16448    
   6930000  -2.1909856      60.800928      416.27451    
   6940000   20.586955      56.172026      384.58267    
   6950000   10.780316      47.984973      328.52988    
   6960000   6.8611351      64.854537      444.02762    
   6970000   10.416097      51.983295      355.90445    
   6980000  -3.5702047      60.097764      411.46029    
   6990000   10.302265      58.617506      401.32568    
   7000000   18.810377      44.257303      303.00833    
   7010000   25.17392       57.427599      393.17897    
   7020000   21.325599      51.466435      352.36577    
   7030000   5.4876638      54.291488      371.70753    
   7040000   7.0226253      51.887858      355.25104    
   7050000   5.8630097      53.008155      362.92118    
   7060000   27.880995      56.253616      385.14127    
   7070000   23.644873      47.988624      328.55487    
   7080000   4.0284444      50.101792      343.02271    
   7090000   18.5258        53.91394       369.12264    
   7100000   13.713208      48.283054      330.57069    
   7110000   14.150745      51.153194      350.22116    
   7120000   13.711437      44.695143      306.00601    
   7130000  -5.4976574      61.657156      422.1367     
   7140000   17.50843       55.373186      379.11339    
   7150000   24.93855       58.229507      398.66924    
   7160000   8.0332925      45.065329      308.54049    
   7170000   7.1801663      51.765358      354.41235    
   7180000   2.5912229      53.943867      369.32754    
   7190000   16.308686      48.033031      328.85891    
   7200000   29.362319      61.060493      418.05163    
   7210000   18.669735      52.758705      361.21331    
   7220000   16.758965      58.137082      398.03645    
   7230000   21.862803      51.892602      355.28352    
   7240000   23.787345      54.1068        370.44306    
   7250000   28.527987      62.625838      428.76879    
   7260000   27.718581      50.988041      349.09043    
   7270000   19.26839       54.751466      374.85678    
   7280000   10.017401      59.17128       405.11711    
   7290000   26.364821      52.674139      360.63433    
   7300000   22.579396      66.768306      457.13026    
   7310000   33.829459      53.598087      366.96015    
   7320000   30.967652      76.555204      524.13642    
   7330000   50.19415       52.893636      362.13712    
   7340000   26.631899      64.521344      441.74641    
   7350000   30.578885      67.205763      460.12532    
   7360000   35.088454      67.218204      460.2105     
   7370000   34.284122      56.009948      383.473      
   7380000   32.8427        63.135148      432.25579    
   7390000   38.239957      64.420442      441.05558    
   7400000   30.019158      59.18319       405.19865    
   7410000   40.840382      56.809556      388.94753    
   7420000   42.901885      51.706371      354.00849    
   7430000   32.853551      58.085047      397.6802     
   7440000   33.440002      68.701801      470.36797    
   7450000   24.948945      54.211112      371.15724    
   7460000   27.257726      59.090573      404.56455    
   7470000   29.517791      50.089586      342.93915    
   7480000   20.652099      52.835637      361.74002    
   7490000   16.838735      52.226365      357.56863    
   7500000   21.912573      47.938448      328.21134    
   7510000   11.575148      47.937617      328.20565    
   7520000   11.005224      47.906793      327.99462    
   7530000   20.71498       47.32501       324.01143    
   7540000   14.360229      53.988468      369.6329     
   7550000   16.799058      60.500506      414.21768    
   7560000   27.913119      64.659888      442.69495    
   7570000   27.13102       54.40078       372.4558     
   7580000   24.721528      71.025816      486.27938    
   7590000   28.47447       69.495258      475.80038    
   7600000   31.233022      66.39288       454.55991    
   7610000   31.916793      65.819061      450.63124    
   7620000   43.047923      51.434749      352.14883    
   7630000   30.902693      58.395814      399.80787    
   7640000   36.05903       67.65834       463.2239     
   7650000   48.200495      51.629588      353.48279    
   7660000   41.651808      53.247003      364.55645    
   7670000   34.165407      50.702913      347.1383     
   7680000   31.434757      53.069047      363.33807    
   7690000   31.748866      57.315607      392.41221    
   7700000   30.172134      52.006517      356.06344    
   7710000   37.248556      65.777817      450.34886    
   7720000   41.066469      62.744109      429.57854    
   7730000   27.959708      59.246223      405.63021    
   7740000   36.147152      51.338729      351.49142    
   7750000   41.85097       53.796593      368.31922    
   7760000   39.03059       66.413822      454.70328    
   7770000   25.788343      64.425705      441.09161    
   7780000   25.296152      56.153028      384.4526     
   7790000   35.787463      57.040341      390.5276     
   7800000   29.418277      59.177401      405.15902    
   7810000   10.505667      55.388325      379.21705    
   7820000   25.863293      51.211961      350.6235     
   7830000   30.833349      55.578762      380.52087    
   7840000   24.015432      61.998402      424.47304    
   7850000   35.938941      60.116816      411.59073    
   7860000   35.468183      59.046757      404.26456    
   7870000   36.173493      56.434995      386.38309    
   7880000   34.235285      56.655398      387.89208    
   7890000   37.384504      65.794908      450.46588    
   7900000   39.649177      74.553232      510.42988    
   7910000   41.321794      58.924444      403.42714    
   7920000   43.620302      65.414953      447.86451    
   7930000   43.736518      69.869859      478.3651     
   7940000   37.628376      60.094094      411.43517    
   7950000   31.905613      59.756463      409.12357    
   7960000   34.187485      68.854295      471.41202    
   7970000   38.407822      59.545797      407.68124    
   7980000   41.347044      67.904857      464.91168    
   7990000   41.982422      70.50755       482.73106    
   8000000   30.821475      53.073263      363.36693    
   8010000   30.628692      50.499708      345.74705    
   8020000   32.573494      55.089852      377.17354    
   8030000   36.356019      56.706138      388.23947    
   8040000   34.712211      52.915532      362.28703    
   8050000   37.965934      69.263614      474.21443    
   8060000   46.212236      65.536471      448.69649    
   8070000   35.965735      64.256382      439.93234    
   8080000   43.117092      51.082829      349.7394     
   8090000   33.511841      59.488139      407.28649    
   8100000   30.20518       59.237197      405.56841    
   8110000   21.512139      66.582147      455.85572    
   8120000   40.598669      59.583076      407.93647    
   8130000   39.082224      59.88989       410.03708    
   8140000   38.52801       57.12191       391.08606    
   8150000   33.555962      67.09624       459.37547    
   8160000   29.385787      57.888909      396.33733    
   8170000   37.65011       54.31298       371.85468    
   8180000   22.469396      60.919032      417.08312    
   8190000   33.749685      45.763516      313.32064    
   8200000   26.464416      52.85493       361.87212    
   8210000   39.439269      45.792186      313.51693    
   8220000   34.939787      55.648537      380.99859    
   8230000   34.909333      66.6478        456.30522    
   8240000   34.760706      64.876724      444.17952    
   8250000   34.520984      60.264623      412.6027     
   8260000   37.302974      45.138031      309.03824    
   8270000   41.086585      50.555062      346.12603    
   8280000   37.260594      62.867645      430.42433    
   8290000   36.339489      66.671738      456.46911    
   8300000   29.96509       61.228161      419.19958    
   8310000   39.140863      63.754071      436.49326    
   8320000   34.729038      55.111648      377.32277    
   8330000   38.854853      65.364345      447.51802    
   8340000   37.891943      61.770313      422.91143    
   8350000   37.621421      58.094003      397.74151    
   8360000   28.55023       71.227052      487.65714    
   8370000   36.71222       61.022728      417.79308    
   8380000   31.930386      62.533974      428.13985    
   8390000   35.2201        57.810434      395.80005    
   8400000   34.625692      71.255553      487.85227    
   8410000   44.404626      75.424105      516.39233    
   8420000   40.754271      54.110882      370.47101    
   8430000   45.742469      62.264601      426.29558    
   8440000   44.531592      54.125381      370.57028    
   8450000   38.037764      57.355199      392.68328    
   8460000   36.154617      61.278561      419.54464    
   8470000   38.262597      52.790792      361.433      
   8480000   35.485351      61.125251      418.495      
   8490000   38.288873      64.807661      443.70668    
   8500000   46.071794      68.802408      471.05678    
   8510000   44.245667      75.170345      514.65496    
   8520000   39.291773      75.920633      519.79182    
   8530000   32.92714       63.328994      433.58296    
   8540000   41.55322       68.324377      467.78393    
   8550000   39.527381      72.026603      493.13128    
   8560000   34.543121      63.580799      435.30695    
   8570000   40.013628      66.132466      452.77698    
   8580000   36.920718      55.300758      378.61752    
   8590000   43.344571      66.408567      454.6673     
   8600000   36.59341       62.044045      424.78553    
   8610000   45.013277      58.877855      403.10817    
   8620000   41.821679      69.043747      472.70911    
   8630000   42.702014      61.856764      423.50331    
   8640000   40.462857      60.090903      411.41332    
   8650000   36.911732      44.080026      301.7946     
   8660000   38.293942      63.236883      432.95232    
   8670000   49.607512      59.822658      409.57678    
   8680000   38.631517      68.97419       472.23288    
   8690000   31.185385      61.658586      422.14649    
   8700000   53.637247      58.303818      399.17802    
   8710000   46.518034      67.50265       462.15796    
   8720000   34.415329      61.909161      423.86205    
   8730000   33.647793      59.103923      404.65595    
   8740000   39.715334      58.264395      398.9081     
   8750000   40.945675      64.116844      438.97699    
   8760000   38.65467       71.340137      488.43138    
   8770000   27.512115      77.67115       531.77676    
   8780000   33.303576      65.27512       446.90715    
   8790000   36.191293      68.329652      467.82005    
   8800000   56.955804      66.146969      452.87627    
   8810000   49.249616      72.225971      494.49626    
   8820000   52.689442      68.406241      468.34441    
   8830000   40.442635      79.313056      543.01809    
   8840000   28.562692      67.819519      464.32741    
   8850000   42.533769      63.704604      436.15458    
   8860000   41.971661      60.820179      416.40632    
   8870000   40.842934      66.756081      457.04657    
   8880000   42.041609      59.216577      405.42723    
   8890000   33.024523      52.938795      362.4463     
   8900000   38.261509      58.895415      403.22839    
   8910000   41.82851       64.340161      440.50593    
   8920000   44.412017      68.461368      468.72184    
   8930000   42.604994      76.348062      522.71822    
   8940000   35.586385      61.370158      420.17176    
   8950000   33.937097      65.081825      445.58375    
   8960000   35.858886      56.530079      387.03408    
   8970000   38.044658      54.884889      375.77026    
   8980000   47.069181      56.737636      388.45512    
   8990000   49.48495       65.276729      446.91816    
   9000000   36.568737      73.002904      499.81554    
   9010000   51.416405      63.560924      435.17088    
   9020000   36.20496       70.8047        484.7655     
   9030000   44.22505       66.370121      454.40409    
   9040000   43.428358      63.828054      436.99978    
   9050000   25.861092      57.799784      395.72714    
   9060000   39.651874      51.088509      349.77828    
   9070000   41.200184      66.254177      453.61027    
   9080000   37.840349      62.617893      428.7144     
   9090000   41.370677      67.265154      460.53194    
   9100000   44.754672      57.264858      392.06476    
   9110000   38.525877      64.871252      444.14206    
   9120000   44.603885      53.627658      367.16261    
   9130000   41.837153      56.061521      383.82609    
   9140000   39.04579       54.473101      372.95095    
   9150000   35.778713      64.918896      444.46825    
   9160000   47.621892      61.111924      418.40375    
   9170000   32.936251      75.669112      518.06978    
   9180000   39.901104      55.375197      379.12717    
   9190000   45.318421      62.373788      427.04313    
   9200000   57.501768      52.094358      356.66485    
   9210000   33.352318      58.593246      401.15959    
   9220000   47.600642      55.860192      382.44769    
   9230000   44.88842       60.7361        415.83067    
   9240000   34.277325      63.155004      432.39173    
   9250000   30.518971      72.328809      495.20034    
   9260000   27.927414      49.089948      336.09511    
   9270000   32.324768      60.012642      410.8775     
   9280000   38.137528      58.351452      399.50414    
   9290000   32.885131      61.957544      424.1933     
   9300000   34.835438      61.153566      418.68886    
   9310000   37.510132      64.840943      443.93454    
   9320000   43.492818      55.039544      376.82911    
   9330000   34.482372      66.560147      455.7051     
   9340000   46.695383      52.084764      356.59916    
   9350000   30.15784       64.964302      444.77913    
   9360000   45.30398       59.123245      404.78824    
   9370000   39.812449      58.980923      403.81382    
   9380000   28.796234      65.281736      446.95244    
   9390000   35.763918      59.881135      409.97714    
   9400000   31.973969      55.715228      381.45519    
   9410000   45.341173      78.528968      537.64982    
   9420000   48.879466      63.786204      436.71326    
   9430000   41.42433       56.375297      385.97436    
   9440000   39.539473      70.505345      482.71596    
   9450000   51.694885      69.901049      478.57864    
   9460000   38.88019       69.634993      476.75708    
   9470000   49.265235      68.435001      468.54132    
   9480000   37.050782      65.019843      445.15939    
   9490000   34.627774      71.974295      492.77315    
   9500000   35.83473       56.613609      387.60597    
   9510000   34.378193      51.971376      355.82285    
   9520000   41.924083      52.508542      359.50057    
   9530000   46.680471      56.189846      384.70467    
   9540000   36.189844      68.6045        469.7018     
   9550000   41.445717      83.804627      573.76971    
   9560000   41.661292      70.913471      485.51021    
   9570000   35.125068      63.326801      433.56795    
   9580000   43.343425      65.568759      448.91755    
   9590000   42.139272      60.441672      413.81487    
   9600000   38.755048      72.278597      494.85656    
   9610000   35.8687        64.606031      442.32621    
   9620000   37.478254      56.155806      384.47161    
   9630000   33.292982      54.58708       373.73131    
   9640000   46.56629       56.173587      384.59336    
   9650000   36.579331      66.978379      458.56853    
   9660000   40.458691      66.749826      457.00374    
   9670000   45.828925      60.045112      411.09981    
   9680000   41.332481      79.906523      547.08128    
   9690000   43.778264      84.202985      576.49708    
   9700000   45.694859      61.162609      418.75077    
   9710000   47.788337      76.368659      522.85923    
   9720000   38.80658       70.475761      482.51342    
   9730000   37.117199      61.302983      419.71184    
   9740000   45.065921      60.043375      411.08792    
   9750000   51.721377      74.064164      507.08147    
   9760000   59.824672      71.665712      490.66043    
   9770000   44.441512      71.0943        486.74825    
   9780000   44.914631      55.565583      380.43064    
   9790000   44.289066      66.883643      457.91992    
   9800000   45.792451      63.06813       431.79695    
   9810000   38.818025      69.649217      476.85447    
   9820000   38.619804      64.955563      444.71929    
   9830000   35.956626      61.61593       421.85444    
   9840000   52.847525      69.036778      472.6614     
   9850000   44.513639      79.648977      545.31798    
   9860000   50.142501      71.852941      491.9423     
   9870000   44.196161      83.936687      574.67386    
   9880000   45.874674      64.150544      439.20772    
   9890000   32.640545      68.645016      469.97919    
   9900000   42.684791      61.962717      424.22872    
   9910000   39.590732      69.909025      478.63325    
   9920000   48.104885      54.663365      374.25359    
   9930000   41.519045      63.494964      434.71928    
   9940000   33.943019      60.217687      412.28135    
   9950000   37.129407      66.390201      454.54156    
   9960000   41.883626      73.114682      500.58083    
   9970000   45.718985      69.318991      474.59357    
   9980000   56.256636      68.332707      467.84096    
   9990000   41.772128      81.612895      558.76398    
  10000000   36.694773      77.095138      527.83309    
  10010000   37.243174      62.495204      427.87441    
  10020000   35.92853       78.561261      537.87092    
  10030000   39.894436      74.09407       507.28623    
  10040000   45.150502      54.106944      370.44405    
  10050000   38.951861      61.954909      424.17527    
  10060000   43.626171      74.718325      511.5602     
  10070000   57.747433      66.353687      454.29157    
  10080000   40.193086      67.347091      461.09293    
  10090000   40.671793      63.105001      432.04939    
  10100000   33.562137      64.206081      439.58795    
  10110000   35.330889      70.277344      481.15495    
  10120000   25.08069       60.14911       411.81183    
  10130000   32.852768      55.570157      380.46196    
  10140000   26.163919      60.769754      416.06109    
  10150000   33.243591      65.105968      445.74904    
  10160000   42.988194      70.615288      483.46869    
  10170000   42.000724      58.624578      401.3741     
  10180000   44.323781      65.989912      451.80098    
  10190000   33.342719      70.219775      480.7608     
  10200000   48.821657      75.279323      515.40108    
  10210000   45.38568       71.368632      488.62647    
  10220000   43.123334      71.055784      486.48455    
  10230000   50.89227       77.337949      529.49549    
  10240000   42.461688      71.361311      488.57635    
  10250000   33.109713      68.083055      466.13172    
  10260000   41.35564       78.414993      536.86949    
  10270000   40.915871      63.08041       431.88102    
  10280000   47.908244      63.049598      431.67007    
  10290000   32.174832      69.811982      477.96884    
  10300000   46.099075      64.315532      440.33731    
  10310000   39.098967      59.481246      407.23929    
  10320000   46.989531      67.524412      462.30696    
  10330000   44.671509      60.240681      412.43878    
  10340000   38.513505      66.426517      454.7902     
  10350000   41.800561      62.14852       425.50083    
  10360000   39.966236      61.829882      423.31926    
  10370000   35.718369      62.012278      424.56804    
  10380000   37.023918      74.035974      506.88847    
  10390000   37.760009      61.810819      423.18875    
  10400000   42.945927      68.141149      466.52946    
  10410000   42.997308      59.928735      410.30304    
  10420000   45.960659      70.464204      482.43429    
  10430000   54.696016      64.78792       443.57152    
  10440000   47.572333      63.47299       434.56883    
  10450000   49.354711      64.570811      442.08508    
  10460000   47.720658      57.592932      394.31092    
  10470000   41.79632       59.503556      407.39204    
  10480000   38.741882      51.984205      355.91068    
  10490000   39.402306      62.904378      430.67582    
  10500000   50.005469      73.313513      501.94213    
  10510000   36.833609      77.44148       530.20432    
  10520000   43.359231      62.206886      425.90043    
  10530000   43.781941      64.728071      443.16177    
  10540000   38.664458      65.15336       446.07351    
  10550000   37.011302      64.391942      440.86045    
  10560000   41.537959      53.490755      366.2253     
  10570000   50.644125      61.818362      423.2404     
  10580000   40.122816      72.353915      495.37223    
  10590000   39.893483      62.727941      429.46784    
  10600000   40.40468       78.057972      534.42514    
  10610000   54.101248      72.883768      498.99987    
  10620000   35.061545      80.635875      552.0748     
  10630000   46.955582      70.734589      484.28548    
  10640000   29.10011       69.346208      474.77991    
  10650000   33.890448      61.281261      419.56313    
  10660000   39.309442      56.014974      383.50741    
  10670000   42.480011      67.31578       460.87855    
  10680000   39.054608      76.891089      526.43606    
  10690000   47.803112      65.653088      449.49491    
  10700000   45.22167       64.668906      442.75669    
  10710000   38.969277      71.534857      489.76453    
  10720000   36.208333      69.261752      474.20169    
  10730000   42.933154      66.340292      454.19986    
  10740000   51.354541      65.112827      445.796      
  10750000   45.095083      61.377882      420.22464    
  10760000   54.026149      78.670518      538.61895    
  10770000   48.231444      65.834159      450.73461    
  10780000   43.219548      79.558615      544.69932    
  10790000   37.829929      69.835949      478.13293    
  10800000   43.993814      65.220791      446.53518    
  10810000   37.602155      56.946498      389.8851     
  10820000   39.028054      82.79761       566.87515    
  10830000   45.690177      63.949345      437.83021    
  10840000   40.962148      64.206523      439.59097    
  10850000   40.744083      57.658411      394.75923    
  10860000   53.497922      67.39542       461.42381    
  10870000   35.518472      72.031746      493.16649    
  10880000   39.344508      75.591716      517.53988    
  10890000   40.370879      65.388217      447.68146    
  10900000   44.511422      64.593753      442.24215    
  10910000   51.34505       72.178065      494.16826    
  10920000   50.971657      64.73077       443.18024    
  10930000   40.929593      70.939384      485.68762    
  10940000   42.064375      60.735798      415.8286     
  10950000   49.119637      80.659264      552.23493    
  10960000   44.519812      91.799865      628.50923    
  10970000   46.502503      82.432178      564.37321    
  10980000   43.245695      78.861919      539.92938    
  10990000   62.139586      78.144888      535.02021    
  11000000   34.346909      78.561924      537.87546    
  11010000   40.241524      66.017617      451.99066    
  11020000   35.426951      58.464494      400.27809    
  11030000   50.129887      95.862186      656.32198    
  11040000   37.653513      84.769344      580.37466    
  11050000   35.749905      64.451928      441.27115    
  11060000   39.005574      89.717564      614.25272    
  11070000   43.416496      66.598245      455.96594    
  11080000   48.583025      57.581774      394.23453    
  11090000   48.294309      64.730025      443.17514    
  11100000   41.727863      64.48609       441.50503    
  11110000   40.846859      70.953779      485.78618    
  11120000   38.970714      69.832336      478.10819    
  11130000   47.631422      74.460823      509.7972     
  11140000   30.65779       62.841954      430.24843    
  11150000   34.899687      59.463201      407.11575    
  11160000   38.034004      66.664717      456.42104    
  11170000   31.885892      66.197371      453.22135    
  11180000   39.616962      64.971265      444.8268     
  11190000   48.797286      70.414813      482.09613    
  11200000   50.048918      71.079527      486.64711    
  11210000   41.70066       77.282431      529.11539    
  11220000   48.941088      71.0582        486.50109    
  11230000   46.794106      68.447879      468.62949    
  11240000   43.453383      72.128722      493.83044    
  11250000   51.094803      72.529923      496.57727    
  11260000   52.382706      82.480761      564.70584    
  11270000   45.478039      76.289922      522.32016    
  11280000   48.573825      72.831363      498.64108    
  11290000   56.295153      62.63195       428.81064    
  11300000   49.06685       66.059121      452.27482    
  11310000   36.655671      70.86303       485.16486    
  11320000   50.064829      78.106357      534.75641    
  11330000   55.027099      73.295272      501.81724    
  11340000   48.051466      73.81184       505.35393    
  11350000   42.217058      70.63383       483.59564    
  11360000   36.090411      67.300306      460.77261    
  11370000   33.042352      54.104108      370.42463    
  11380000   36.215609      66.199776      453.23782    
  11390000   36.302888      63.047275      431.65417    
  11400000   44.61824       65.011351      445.10124    
  11410000   54.105338      72.601922      497.07021    
  11420000   44.068674      74.253368      508.37686    
  11430000   47.741502      60.171756      411.96688    
  11440000   51.846231      67.171064      459.88775    
  11450000   50.049341      78.877736      540.03767    
  11460000   45.66689       88.596326      606.57615    
  11470000   60.609828      65.003893      445.05018    
  11480000   40.08229       82.912288      567.6603     
  11490000   43.406067      78.146963      535.03442    
  11500000   49.382222      54.930937      376.08553    
  11510000   35.902878      90.901559      622.35896    
  11520000   70.245728      57.08779       390.85246    
  11530000   53.771075      72.729307      497.94235    
  11540000   41.919096      74.528384      510.25976    
  11550000   41.464969      60.418067      413.65326    
  11560000   36.689518      78.015078      534.13147    
  11570000   48.395783      72.510381      496.44347    
  11580000   41.253965      73.577145      503.74709    
  11590000   39.693512      60.147171      411.79856    
  11600000   38.37695       63.678286      435.9744     
  11610000   40.421222      71.872752      492.07794    
  11620000   42.975939      81.845436      560.35607    
  11630000   49.738141      79.457553      544.00739    
  11640000   48.633465      77.19868       528.54198    
  11650000   56.72118       85.071523      582.44353    
  11660000   49.002577      81.448472      557.63825    
  11670000   42.888607      72.768018      498.20739    
  11680000   57.981716      71.808842      491.64037    
  11690000   50.557937      87.333113      597.92755    
  11700000   47.675837      90.96442       622.78934    
  11710000   48.43441       71.395738      488.81206    
  11720000   60.47498       74.617893      510.87258    
  11730000   43.992369      77.922545      533.49794    
  11740000   39.475459      81.196787      555.91509    
  11750000   31.765638      77.821698      532.80749    
  11760000   51.918028      68.501077      468.99371    
  11770000   53.193217      65.882982      451.06888    
  11780000   42.652385      85.555518      585.75721    
  11790000   51.559371      86.875597      594.79515    
  11800000   46.707004      66.73578       456.90757    
  11810000   53.088481      72.038273      493.21118    
  11820000   43.350449      73.916862      506.07297    
  11830000   38.035911      71.155105      487.16455    
  11840000   61.997454      62.738471      429.53993    
  11850000   42.972459      79.061721      541.29733    
  11860000   49.081144      77.259406      528.95775    
  11870000   62.136232      79.86875       546.82266    
  11880000   45.043457      78.642685      538.42839    
  11890000   56.824875      67.105797      459.4409     
  11900000   38.035532      60.418736      413.65784    
  11910000   47.234629      84.735317      580.14169    
  11920000   38.856664      94.207545      644.99345    
  11930000   45.050531      65.707893      449.87013    
  11940000   54.906318      83.955857      574.8051     
  11950000   53.193215      60.487947      414.13169    
  11960000   47.185974      67.67935       463.36774    
  11970000   48.82734       76.935017      526.73681    
  11980000   55.101151      79.877941      546.88559    
  11990000   51.814182      74.09998       507.32669    
  12000000   46.340643      79.753915      546.03645    
Loop time of 150.821 on 1 procs for 8000000 steps with 50 atoms

Performance: 45829.098 ns/day, 0.001 hours/ns, 53042.938 timesteps/s, 2.652 Matom-step/s
99.2% CPU use with 1 MPI tasks x 1 OpenMP threads

MPI task timing breakdown:
Section |  min time  |  avg time  |  max time  |%varavg| %total
---------------------------------------------------------------
Pair    | 116.74     | 116.74     | 116.74     |   0.0 | 77.40
Bond    | 18.261     | 18.261     | 18.261     |   0.0 | 12.11
Neigh   | 2.7297     | 2.7297     | 2.7297     |   0.0 |  1.81
Comm    | 3.1113     | 3.1113     | 3.1113     |   0.0 |  2.06
Output  | 0.17579    | 0.17579    | 0.17579    |   0.0 |  0.12
Modify  | 8.7475     | 8.7475     | 8.7475     |   0.0 |  5.80
Other   |            | 1.057      |            |       |  0.70

Nlocal:             50 ave          50 max          50 min
Histogram: 1 0 0 0 0 0 0 0 0 0
Nghost:              0 ave           0 max           0 min
Histogram: 1 0 0 0 0 0 0 0 0 0
Neighs:            141 ave         141 max         141 min
Histogram: 1 0 0 0 0 0 0 0 0 0

Total # of neighbors = 141
Ave neighs/atom = 2.82
Ave special neighs/atom = 5.76
Neighbor list builds = 21125
Dangerous builds = 0

  # Hold at 500
  variable seedHH equal 45000+${c}
  variable seedHH equal 45000+1
  unfix fxl
  fix fxl all langevin ${T_high} ${T_high} 100000.0 ${seedHH}
  fix fxl all langevin 500 ${T_high} 100000.0 ${seedHH}
  fix fxl all langevin 500 500 100000.0 ${seedHH}
  fix fxl all langevin 500 500 100000.0 45001
  run ${n_holdH}
  run 8000000
Generated 0 of 6 mixed pair_coeff terms from geometric mixing rule
Per MPI rank memory allocation (min/avg/max) = 9.625 | 9.625 | 9.625 Mbytes
   Step         PotEng         KinEng          Temp     
  12000000   46.340643      79.753915      546.03645    
  12010000   48.436434      79.772549      546.16402    
  12020000   41.269503      81.066593      555.02371    
  12030000   41.884228      74.843843      512.41956    
  12040000   51.710956      66.950169      458.37539    
  12050000   43.852529      78.761726      539.24341    
  12060000   43.089739      74.423873      509.54423    
  12070000   49.03435       59.250977      405.66276    
  12080000   39.968846      92.739635      634.94338    
  12090000   45.535257      83.335616      570.55862    
  12100000   35.399853      80.93767       554.14104    
  12110000   48.364794      75.610074      517.66557    
  12120000   53.184601      86.509708      592.29009    
  12130000   46.894615      67.782655      464.07502    
  12140000   44.480216      77.283109      529.12003    
  12150000   41.117425      78.529703      537.65486    
  12160000   55.816361      85.355178      584.38558    
  12170000   44.241176      79.502277      544.3136     
  12180000   43.283108      71.339486      488.42692    
  12190000   50.135716      77.647605      531.61556    
  12200000   49.360696      75.181547      514.73165    
  12210000   50.76605       85.804387      587.4611     
  12220000   64.749314      85.715639      586.85348    
  12230000   56.634188      69.893934      478.52993    
  12240000   53.663797      86.480233      592.08828    
  12250000   44.604798      83.404249      571.02851    
  12260000   40.014193      77.896066      533.31665    
  12270000   58.377819      69.022137      472.56116    
  12280000   42.880594      75.734811      518.51959    
  12290000   47.48979       69.455593      475.52882    
  12300000   58.122171      68.139365      466.51725    
  12310000   43.831142      71.954345      492.63656    
  12320000   48.629529      78.653265      538.50083    
  12330000   42.076811      84.37561       577.67895    
  12340000   40.410053      66.279597      453.78431    
  12350000   46.631425      70.079928      479.80334    
  12360000   50.943464      66.19729       453.22079    
  12370000   49.499049      80.380576      550.32688    
  12380000   50.786456      81.647938      559.0039     
  12390000   55.536125      77.738198      532.23581    
  12400000   50.579967      77.943568      533.64188    
  12410000   45.178314      83.641436      572.65242    
  12420000   43.826328      60.052256      411.14872    
  12430000   50.783811      81.359764      557.03092    
  12440000   51.315124      74.049276      506.97954    
  12450000   44.785652      65.617137      449.24877    
  12460000   45.91549       74.340196      508.97133    
  12470000   44.980404      81.136366      555.50141    
  12480000   57.412811      63.742448      436.41368    
  12490000   47.558298      66.608043      456.03302    
  12500000   43.423313      70.66072       483.77974    
  12510000   48.042371      63.761124      436.54155    
  12520000   53.43656       57.125521      391.11078    
  12530000   43.655717      68.386981      468.21255    
  12540000   45.741658      71.142311      487.07696    
  12550000   44.595731      73.379454      502.39359    
  12560000   48.776848      73.052342      500.15402    
  12570000   59.984387      80.997587      554.55127    
  12580000   47.131807      82.675102      566.03639    
  12590000   55.889208      77.485121      530.50311    
  12600000   49.239236      67.546609      462.45893    
  12610000   49.206494      81.691258      559.3005     
[...]
 404760000   1.8743338      46.096888      315.60308    
 404770000   1.2620522      42.556539      291.36402    
 404780000   3.3811196      51.642356      353.57021    
 404790000   4.3298375      41.00724       280.75672    
 404800000  -4.8629847      38.498369      263.57969    
 404810000   3.1017175      43.916982      300.67831    
 404820000  -2.1654144      46.34266       317.28575    
 404830000   2.6786209      52.659953      360.5372     
 404840000   7.2436802      48.5543        332.42779    
 404850000   9.8009409      42.090913      288.1761     
 404860000   1.4326175      46.451214      318.02897    
 404870000   0.79231898     37.513102      256.83405    
 404880000  -1.2446554      44.411471      304.06384    
 404890000  -4.1936338      46.244351      316.61268    
 404900000  -0.29022509     40.304562      275.94583    
 404910000  -7.5421962      37.677865      257.9621     
 404920000  -3.8543795      50.869207      348.27683    
 404930000  -0.44183118     44.787746      306.64001    
 404940000  -1.0975493      54.40848       372.50852    
 404950000  -6.5146029      50.841362      348.08619    
 404960000   1.8033097      40.386626      276.50768    
 404970000   7.0600372      41.701459      285.5097     
 404980000  -14.935614      42.251418      289.275      
 404990000  -1.252572       40.06517       274.30682    
 405000000  -4.5907771      42.956254      294.10067    
 405010000   8.5288707      39.134406      267.93433    
 405020000  -1.7414822      51.897197      355.31498    
 405030000  -1.5884513      40.811755      279.41833    
 405040000  -11.624116      40.978046      280.55684    
 405050000  -3.4248127      34.149286      233.80363    
 405060000  -9.3617581      45.519729      311.65154    
 405070000  -1.2195286      50.559256      346.15475    
 405080000   3.3270212      51.382798      351.79314    
 405090000  -0.04954143     43.597233      298.48915    
 405100000  -2.4572411      43.539245      298.09213    
 405110000  -6.1642664      48.082159      329.19526    
 405120000   9.5287192      40.923029      280.18017    
 405130000   1.3404836      43.791051      299.81612    
 405140000   6.1038036      39.116512      267.81182    
 405150000   1.7883569      52.281761      357.9479     
 405160000   12.13587       49.087792      336.08035    
 405170000   1.1562539      49.409997      338.28633    
 405180000  -9.0088894      47.756965      326.96882    
 405190000  -12.99546       46.614084      319.14406    
 405200000   0.99653103     43.437872      297.39808    
 405210000  -0.49105876     49.308426      337.59092    
 405220000   2.8596638      42.728893      292.54404    
 405230000   2.0106759      45.428022      311.02367    
 405240000  -3.9343933      43.984612      301.14134    
 405250000  -5.26055        42.258271      289.32192    
 405260000  -5.3168539      43.172024      295.57795    
 405270000  -4.1869424      41.452605      283.80592    
 405280000  -1.0456959      38.783716      265.53333    
 405290000  -6.048933       44.414869      304.0871     
 405300000   8.3822354      41.043242      281.0032     
 405310000  -12.686934      46.47439       318.18765    
 405320000  -8.8930366      45.101982      308.79144    
 405330000   8.0343615      45.093128      308.73082    
 405340000  -0.49965445     40.356773      276.30329    
 405350000   4.6972077      45.519308      311.64866    
 405360000  -2.1801617      54.357985      372.16281    
 405370000   1.7968498      39.766269      272.26039    
 405380000  -0.73962716     44.278189      303.15133    
 405390000   5.2922529      51.350653      351.57306    
 405400000   10.431695      43.596323      298.48291    
 405410000   3.3032491      47.370488      324.3228     
 405420000   1.0704579      52.434167      358.99136    
 405430000  -4.0611456      39.086306      267.60502    
 405440000  -5.0378653      46.059722      315.34862    
 405450000  -9.068959       44.673699      305.85919    
 405460000  -5.4976663      46.09854       315.61439    
 405470000  -7.0416607      36.52564       250.07337    
 405480000  -4.9538148      39.250254      268.72749    
 405490000  -2.8714941      39.485631      270.339      
 405500000  -1.9341077      39.473034      270.25275    
 405510000   0.68967131     42.846398      293.34855    
 405520000   1.4060191      44.256313      303.00155    
 405530000   5.9071969      47.654847      326.26967    
 405540000   5.8617423      45.971387      314.74383    
 405550000  -2.5473956      51.571242      353.08333    
 405560000   0.13117666     43.001242      294.40869    
 405570000   8.2167803      51.840209      354.92481    
 405580000   3.1202746      42.801336      293.04003    
 405590000   6.4025198      39.009757      267.08092    
 405600000   12.713863      37.031638      253.5377     
 405610000   13.708269      46.248174      316.63886    
 405620000   8.5235318      46.969824      321.57965    
 405630000   16.156518      44.693977      305.99802    
 405640000   8.5556847      46.303434      317.0172     
 405650000   0.51304558     37.58445       257.32253    
 405660000   5.9108594      46.200009      316.30909    
 405670000   5.5806916      42.349761      289.94831    
 405680000   5.0272895      42.912094      293.79833    
 405690000   5.8278052      38.974146      266.83711    
 405700000   1.7311807      41.474363      283.95488    
 405710000   10.156377      51.138169      350.11829    
 405720000   18.866297      51.999068      356.01244    
 405730000   19.293832      43.488643      297.74568    
 405740000   4.9102344      51.958596      355.73535    
 405750000   13.367733      51.781767      354.52469    
 405760000   9.0948579      51.356612      351.61386    
 405770000   11.929293      47.438509      324.78851    
 405780000   10.241841      40.289006      275.83932    
 405790000   4.5395061      36.175688      247.67742    
 405800000   3.1557763      44.187851      302.53282    
 405810000   14.463109      47.088166      322.38987    
 405820000   4.9224701      58.789125      402.50067    
 405830000   2.9548432      48.104284      329.34675    
 405840000   13.775796      46.767705      320.19583    
 405850000   16.044565      44.968615      307.87834    
 405860000   19.017216      37.668568      257.89845    
 405870000   8.9162326      43.799704      299.87537    
 405880000   4.107114       40.446564      276.91804    
 405890000   5.7300177      44.50829       304.72671    
 405900000   6.425654       41.149512      281.73079    
 405910000   9.2217153      41.57411       284.63781    
 405920000   7.9714623      41.427353      283.63303    
 405930000   17.793454      39.794084      272.45083    
 405940000   21.767032      49.585077      339.48502    
 405950000   6.1717106      52.531942      359.66078    
 405960000   14.349073      43.146007      295.39982    
 405970000   10.236409      41.445646      283.75828    
 405980000   1.4497221      42.573059      291.47712    
 405990000  -3.4047434      44.914168      307.50556    
 406000000   8.1297553      38.740489      265.23737    
 406010000   10.717409      37.635635      257.67297    
 406020000   6.1830844      43.941436      300.84574    
 406030000   10.04423       46.321778      317.14279    
 406040000   5.0152047      42.463006      290.72364    
 406050000   13.188359      37.452731      256.42071    
 406060000   5.2673147      43.44594       297.45332    
 406070000   6.7917457      35.597845      243.72121    
 406080000   17.697284      40.440413      276.87593    
 406090000   0.50919773     43.095079      295.05114    
 406100000   9.4340502      38.594819      264.24004    
 406110000   9.4947432      44.335971      303.54693    
 406120000   0.1588325      45.890794      314.19205    
 406130000  -2.1438723      42.707326      292.39638    
 406140000   17.084757      45.163467      309.2124     
 406150000   5.5463686      46.114951      315.72674    
 406160000  -1.5078352      47.743246      326.87489    
 406170000   3.9760035      40.02408       274.0255     
 406180000  -0.93947081     39.59668       271.0993     
 406190000   3.6175063      45.43725       311.08685    
 406200000  -0.93559354     46.255195      316.68693    
 406210000   1.9881728      47.638046      326.15463    
 406220000   6.5469802      49.938929      341.90767    
 406230000  -1.0767051      43.49492       297.78866    
 406240000   2.8358822      41.895032      286.835      
 406250000  -6.9524027      45.287591      310.06221    
 406260000   3.1017515      34.021361      232.92779    
 406270000   1.6951047      40.603066      277.98953    
 406280000   3.3895248      42.685337      292.24583    
 406290000   7.7153621      37.870783      259.28291    
 406300000   8.9200207      38.590395      264.20975    
 406310000   1.6301505      57.856013      396.11211    
 406320000   4.645206       36.523096      250.05596    
 406330000   16.440574      35.617229      243.85393    
 406340000   14.499045      37.4058        256.0994     
 406350000   7.0682571      49.478992      338.7587     
 406360000   12.380631      41.280123      282.62502    
 406370000   17.158312      47.773882      327.08464    
 406380000   15.334121      46.644551      319.35266    
 406390000   15.681118      41.101918      281.40493    
 406400000   14.830032      50.293612      344.33601    
 406410000   21.373092      50.833231      348.03052    
 406420000   11.002129      42.51572       291.08455    
 406430000   10.417128      48.852208      334.46742    
 406440000   6.7853688      49.310469      337.60491    
 406450000   4.5807055      37.536667      256.99539    
 406460000   10.041162      40.527211      277.47019    
 406470000   9.8113431      45.864976      314.01529    
 406480000   25.198675      35.026604      239.8102     
 406490000  -0.40834919     42.604822      291.69459    
 406500000   3.2755356      34.906905      238.99068    
 406510000   7.2543305      37.61754       257.54909    
 406520000   1.9897092      39.366075      269.52046    
 406530000   0.97305408     38.667818      264.73983    
 406540000   12.306531      38.748034      265.28903    
 406550000   7.7303052      44.26838       303.08417    
 406560000   7.3457079      41.418866      283.57492    
 406570000   11.902224      48.28054       330.55348    
 406580000   11.882024      46.450417      318.02352    
 406590000   7.0376254      42.296269      289.58208    
 406600000   13.651724      50.233458      343.92417    
 406610000   17.527026      50.340015      344.65371    
 406620000   12.70537       44.974951      307.92172    
 406630000   14.294471      40.973875      280.52828    
 406640000   25.846983      34.60385       236.91581    
 406650000   11.542587      41.044229      281.00996    
 406660000   19.68883       43.689516      299.12096    
 406670000   13.220502      43.414422      297.23753    
 406680000   6.8983087      45.505715      311.5556     
 406690000   8.8369723      37.31627       255.48644    
 406700000   17.093268      43.559394      298.23008    
 406710000   1.2254294      53.999298      369.70705    
 406720000   25.560459      51.550403      352.94065    
 406730000   18.224525      42.854919      293.40688    
 406740000   6.6978494      48.273564      330.50572    
 406750000   12.579153      45.475204      311.34671    
 406760000   14.931482      42.745944      292.66078    
 406770000   5.5332345      39.607405      271.17272    
 406780000  -3.1638568      50.721794      347.26757    
 406790000   12.656221      34.598264      236.87756    
 406800000   9.0728057      39.13863       267.96325    
 406810000   14.301946      37.067046      253.78012    
 406820000   9.0256028      40.90433       280.05215    
 406830000   7.2591725      44.544446      304.97426    
 406840000   14.598174      36.715653      251.3743     
 406850000   12.240633      42.293623      289.56396    
 406860000  -0.82597356     48.028502      328.8279     
 406870000  -4.0743573      41.736708      285.75103    
 406880000   4.7897025      27.927644      191.20706    
 406890000   3.6732103      47.390044      324.45669    
 406900000   2.8308561      46.488501      318.28426    
 406910000   8.7475224      43.600423      298.51099    
 406920000   8.9183004      43.581034      298.37824    
 406930000   8.2128474      42.605434      291.69878    
 406940000   6.9664573      41.352803      283.12262    
 406950000   13.077471      41.387992      283.36355    
 406960000   2.7711773      43.27432       296.27832    
 406970000   7.149059       45.279341      310.00573    
 406980000   4.2353779      50.331389      344.59465    
 406990000   3.2608688      44.734731      306.27704    
 407000000   15.385819      41.878577      286.72234    
 407010000   4.8435145      46.398282      317.66657    
 407020000   13.842152      42.556903      291.36651    
 407030000   13.770556      43.747831      299.52022    
 407040000   14.476079      33.090415      226.55405    
 407050000   6.332026       55.380558      379.16387    
 407060000   7.0722347      51.737229      354.21976    
 407070000  -13.022689      39.296308      269.0428     
 407080000  -6.0713828      46.673135      319.54836    
 407090000   6.1203324      45.144809      309.08465    
 407100000   6.9326553      55.990815      383.342      
 407110000   15.995747      40.356841      276.30375    
 407120000   13.694651      53.177749      364.0823     
 407130000   14.114608      42.327263      289.79427    
 407140000   11.502769      39.83594       272.7374     
 407150000   17.309948      46.29328       316.94768    
 407160000   12.61697       44.864211      307.16353    
 407170000   12.552231      42.99498       294.36581    
 407180000   12.092151      51.008344      349.22943    
 407190000  -1.8290835      50.003215      342.34781    
 407200000   4.864989       46.659646      319.456      
 407210000   0.50965114     52.326715      358.25568    
 407220000   7.1029579      51.372352      351.72162    
 407230000   12.16193       40.890211      279.95548    
 407240000   0.64431909     44.91383       307.50325    
 407250000   2.5206297      37.753529      258.48013    
 407260000   5.7480489      45.494469      311.4786     
 407270000   8.5141588      39.008419      267.07176    
 407280000   19.834493      41.324422      282.92831    
 407290000   12.376741      54.406356      372.49398    
 407300000   16.610535      45.351745      310.50144    
 407310000  -1.2907035      49.867379      341.4178     
 407320000   2.810126       45.255512      309.84258    
 407330000   8.1615594      47.449773      324.86562    
 407340000   11.157925      51.242288      350.83113    
 407350000   16.393082      47.313481      323.9325     
 407360000   10.857441      46.272131      316.80288    
 407370000   0.84308315     46.970574      321.58478    
 407380000   8.278701       42.092668      288.18812    
 407390000   9.3781201      42.923165      293.87413    
 407400000   12.894918      42.869001      293.50329    
 407410000   13.796675      45.860062      313.98164    
 407420000   20.103662      44.114872      302.03317    
 407430000   13.001719      40.000756      273.86581    
 407440000   9.9071644      45.254294      309.83424    
 407450000  -2.5108108      53.646517      367.29173    
 407460000  -2.7769396      39.428361      269.9469     
 407470000   3.6541331      35.867123      245.56482    
 407480000   7.299045       35.359689      242.09067    
 407490000   0.17270223     36.958927      253.03988    
 407500000   14.965208      44.70593       306.07986    
 407510000   0.68253891     50.672537      346.93032    
 407520000   11.298275      40.743999      278.95444    
 407530000   9.8734057      42.560073      291.38821    
 407540000   16.216565      39.782403      272.37085    
 407550000   21.410755      48.101273      329.32613    
 407560000   10.73083       53.217638      364.3554     
 407570000   9.4324405      45.667268      312.66167    
 407580000   12.346792      47.54473       325.51575    
 407590000   5.9955238      45.894819      314.21961    
 407600000   17.631315      36.259417      248.25067    
 407610000   14.526417      51.067885      349.63709    
 407620000   11.892368      36.936483      252.88622    
 407630000   4.18916        41.197916      282.06218    
 407640000   12.778892      39.389801      269.68289    
 407650000  -1.529147       51.3658        351.67676    
 407660000   1.1867762      48.844535      334.41488    
 407670000   9.6504835      45.619729      312.3362     
 407680000   11.309213      42.862184      293.45662    
 407690000   5.1340007      36.646188      250.8987     
 407700000  -0.55109239     40.406019      276.64045    
 407710000  -5.5801912      47.077148      322.31444    
 407720000   5.478528       46.483495      318.24999    
 407730000   18.571081      43.428567      297.33437    
 407740000   9.3067252      52.307102      358.12141    
 407750000   0.69508307     51.92597       355.51198    
 407760000   8.029478       38.435616      263.15006    
 407770000   9.3527797      41.118137      281.51598    
 407780000  -1.501683       46.10251       315.64156    
 407790000   5.5053699      50.587384      346.34733    
 407800000   14.262156      40.449125      276.93557    
 407810000   13.365528      46.219914      316.44538    
 407820000   3.0803672      47.384887      324.42138    
 407830000  -0.01889525     39.829123      272.69072    
 407840000   0.25335981     50.509063      345.8111     
 407850000   0.44590419     45.343475      310.44482    
 407860000   6.1355431      44.837278      306.97914    
 407870000   6.4843133      41.474023      283.95256    
 407880000   10.704153      38.257641      261.93155    
 407890000   1.1662206      47.338789      324.10577    
 407900000   6.4960498      40.76193       279.0772     
 407910000   7.9188242      48.431383      331.58623    
 407920000   3.6683263      40.812334      279.42229    
 407930000   2.7822482      43.983585      301.13431    
 407940000   4.2933307      51.523331      352.7553     
 407950000   14.573169      51.642557      353.57159    
 407960000   8.4832721      38.153133      261.21603    
 407970000   12.638907      50.785499      347.70373    
 407980000   12.14821       46.716341      319.84417    
 407990000   9.3279296      41.973603      287.37294    
 408000000   9.9326392      52.830262      361.70322    
Loop time of 85.1179 on 1 procs for 4000000 steps with 50 atoms

Performance: 40602.528 ns/day, 0.001 hours/ns, 46993.667 timesteps/s, 2.350 Matom-step/s
99.1% CPU use with 1 MPI tasks x 1 OpenMP threads

MPI task timing breakdown:
Section |  min time  |  avg time  |  max time  |%varavg| %total
---------------------------------------------------------------
Pair    | 67.904     | 67.904     | 67.904     |   0.0 | 79.78
Bond    | 9.2844     | 9.2844     | 9.2844     |   0.0 | 10.91
Neigh   | 1.1824     | 1.1824     | 1.1824     |   0.0 |  1.39
Comm    | 1.5535     | 1.5535     | 1.5535     |   0.0 |  1.83
Output  | 0.12306    | 0.12306    | 0.12306    |   0.0 |  0.14
Modify  | 4.5216     | 4.5216     | 4.5216     |   0.0 |  5.31
Other   |            | 0.5488     |            |       |  0.64

Nlocal:             50 ave          50 max          50 min
Histogram: 1 0 0 0 0 0 0 0 0 0
Nghost:              0 ave           0 max           0 min
Histogram: 1 0 0 0 0 0 0 0 0 0
Neighs:            253 ave         253 max         253 min
Histogram: 1 0 0 0 0 0 0 0 0 0

Total # of neighbors = 253
Ave neighs/atom = 5.06
Ave special neighs/atom = 5.76
Neighbor list builds = 8552
Dangerous builds = 0

write_data outputs_100/${tag}_final.data
write_data outputs_100/config_07_len50_07.dat_final.data
System init for write_data ...
Generated 0 of 6 mixed pair_coeff terms from geometric mixing rule
Total wall time: 1:53:58
