LAMMPS data file via write_data, version 29 Aug 2024, timestep = 50000000, units = real

161 atoms
4 atom types
160 bonds
1 bond types
159 angles
1 angle types

-500.6 500.6 xlo xhi
-500.6 500.6 ylo yhi
-500.6 500.6 zlo zhi

Masses

1 329.2
2 305.2
3 345.2
4 306.2

Bond Coeffs # harmonic

1 7.5 5.9

Angle Coeffs # harmonic

1 5 150

Atoms # full

1 1 3 0 66.49843931769063 283.44557125113664 -386.53387247050813 1 -1 1
31 1 1 0 74.98434549971388 302.0695043625576 -395.23243530762153 1 -1 1
32 1 1 0 79.94504458687365 303.0923104805737 -397.34707146272734 1 -1 1
30 1 1 0 74.46849972760216 300.8304300727877 -389.27777732388114 1 -1 1
28 1 4 0 82.71373504869605 305.9025425751935 -383.922865686179 1 -1 1
29 1 1 0 77.64769278037481 304.30132259030967 -386.08692678949825 1 -1 1
33 1 3 0 85.97099957375733 304.9201990199205 -396.76133478671983 1 -1 1
35 1 3 0 91.76970873365113 310.90312094238993 -389.17186917371794 1 -1 1
34 1 3 0 89.16912868432881 308.55536747530533 -393.75231687087194 1 -1 1
36 1 1 0 96.3651241947582 309.6375780313307 -385.9247864994145 1 -1 1
56 1 2 0 131.9974035974752 251.48826735245513 -370.7226728119976 1 -1 1
53 1 3 0 122.120098234184 263.6860937565722 -377.2512112215644 1 -1 1
55 1 1 0 129.1463096497798 254.795587500909 -375.04732837852293 1 -1 1
54 1 2 0 124.98508417804331 259.31849052036716 -375.04073079322137 1 -1 1
52 1 3 0 117.31180607060048 266.8416093836322 -377.3635341590687 1 -1 1
158 1 2 0 81.03628522741329 282.0942126031186 -370.1209030746851 1 -1 1
106 1 2 0 95.31559496161492 282.5121080941907 -368.8128803266654 1 -1 1
51 1 2 0 114.86107919374594 270.749775012426 -374.14328138002986 1 -1 1
107 1 3 0 100.35860631921602 279.6212792632611 -367.29425346410295 1 -1 1
50 1 2 0 115.41777691256978 272.3307200805062 -368.1982455955758 1 -1 1
134 1 1 0 114.15948443007065 279.50661653698734 -377.95219641985915 1 -1 1
130 1 3 0 128.47773921779128 268.0537614857529 -370.6935948500001 1 -1 1
133 1 3 0 120.16000075054203 279.7371434141478 -379.02843572780944 1 -1 1
132 1 3 0 125.56115070895461 276.9904928494221 -376.73991100032475 1 -1 1
131 1 1 0 127.04510243745257 271.85607529238183 -374.8934505522972 1 -1 1
2 1 2 0 67.47597508224965 286.29114043164896 -381.21567355297077 1 -1 1
157 1 3 0 82.00265000990366 285.5353263726449 -375.3089846339532 1 -1 1
3 1 3 0 68.48588405797379 288.2231724400475 -375.4583900211137 1 -1 1
156 1 4 0 81.22853978641416 289.5204267679785 -379.48000503256424 1 -1 1
155 1 2 0 79.430636311218 295.5329943838321 -379.7373505514454 1 -1 1
154 1 2 0 79.28281861069729 299.9674429591661 -376.16568033455326 1 -1 1
6 1 1 0 80.3569182636343 295.72720381083616 -367.45748896118204 1 -1 1
4 1 3 0 70.38241194592516 291.0797841713172 -370.61676258161185 1 -1 1
5 1 2 0 74.67597925217862 293.87717227754183 -367.4441385927797 1 -1 1
26 1 3 0 92.21956494976641 300.278288922248 -381.1125241839779 1 -1 1
25 1 1 0 93.86400850993763 296.96495472120154 -376.3139663546478 1 -1 1
24 1 3 0 93.63252913088394 295.4532042279234 -370.31095763406546 1 -1 1
135 1 4 0 110.57160898924471 284.3347882387426 -377.82963713430064 1 -1 1
136 1 2 0 107.21217900682501 288.713726203575 -376.0739422295354 1 -1 1
137 1 2 0 106.82455952075799 294.1999607563394 -375.1941232981181 1 -1 1
138 1 3 0 107.27664882348802 299.43448711395916 -372.113002735173 1 -1 1
18 1 2 0 120.63906067355596 299.60802638356677 -368.2992744980395 1 -1 1
153 1 3 0 78.74648753103013 305.27516870594934 -374.33629196806413 1 -1 1
152 1 4 0 80.34844927250371 309.28140196339507 -370.13484738442924 1 -1 1
27 1 4 0 88.16988957356423 303.8691012527913 -383.2631645070324 1 -1 1
37 1 1 0 99.15974648527846 311.151061998639 -381.34663815586765 1 -1 1
38 1 3 0 99.43309863290001 309.1027379279228 -376.0378102305635 1 -1 1
39 1 2 0 100.60629537149906 307.4749037781927 -370.5178067150519 1 -1 1
15 1 2 0 113.39989973225534 310.9354455115227 -376.2864981000616 1 -1 1
139 1 3 0 109.74646362379157 304.7706785068201 -370.0146417309201 1 -1 1
14 1 2 0 110.78364388104363 316.2377237070602 -373.86880938137085 1 -1 1
17 1 1 0 121.60920614507783 303.85730122795405 -372.6990222445481 1 -1 1
16 1 3 0 118.37816218128303 307.7193447425369 -376.180519784509 1 -1 1
12 1 4 0 102.06706956539337 319.0182179377929 -367.57113664091213 1 -1 1
13 1 2 0 107.41824328887145 318.35577884524304 -369.9228640242392 1 -1 1
123 1 3 0 112.34216731569401 240.23439076549474 -356.726763392896 1 -1 1
124 1 3 0 114.03719900404522 245.39187587161783 -359.2032638236708 1 -1 1
122 1 3 0 112.82042760686417 237.31357833695148 -351.93536591491 1 -1 1
57 1 3 0 130.7454212385357 248.73695894987557 -365.5056178479431 1 -1 1
58 1 3 0 131.6254234863042 246.26641685185834 -360.3755929605876 1 -1 1
59 1 4 0 128.8532465383509 247.1330267976875 -355.07415179347686 1 -1 1
60 1 2 0 123.7711877717902 246.68477309301787 -351.321514024095 1 -1 1
79 1 3 0 98.38842387037045 265.58148126997696 -357.67417520518455 1 -1 1
77 1 3 0 107.91967932092871 262.214216011895 -359.16240278997486 1 -1 1
125 1 3 0 116.36007896164195 250.5636751215598 -359.4545809939004 1 -1 1
76 1 3 0 112.38617888230085 262.2358080068968 -362.6026442114679 1 -1 1
78 1 1 0 102.56553952654399 262.83325096392406 -360.6024025212871 1 -1 1
112 1 3 0 115.22077107959805 263.0611310749188 -352.8756838296728 1 -1 1
129 1 2 0 130.84816694766997 264.8205897712845 -366.2795090894929 1 -1 1
75 1 3 0 118.19934838424138 263.45782414293654 -363.16753979884777 1 -1 1
128 1 3 0 129.52986703538053 261.29546773192624 -361.6965797164269 1 -1 1
127 1 3 0 125.71011387314871 256.80144175917917 -359.41872366242234 1 -1 1
126 1 2 0 120.42406793311439 253.92431631931146 -358.0625948195495 1 -1 1
160 1 3 0 72.98678287671308 281.4518920840876 -362.72691499656014 1 -1 1
161 1 4 0 67.47090878942166 282.41523758370954 -361.83090460060333 1 -1 1
159 1 2 0 77.9212815848135 280.61024584532197 -365.6309038399566 1 -1 1
80 1 4 0 97.35024675924815 270.37419634978767 -354.7056756502183 1 -1 1
81 1 2 0 95.09409314249686 276.1174593620407 -354.45636040889076 1 -1 1
82 1 3 0 96.85818071476638 281.73216439063924 -354.707465387927 1 -1 1
111 1 3 0 112.33764931979326 268.29329403225285 -352.4635610832991 1 -1 1
110 1 2 0 109.88074323470934 273.1143355384801 -354.4466617537085 1 -1 1
108 1 3 0 104.59103478725638 276.76474840763444 -364.13801996035096 1 -1 1
109 1 2 0 107.48497933756813 275.7728231758431 -359.1983779864931 1 -1 1
49 1 4 0 118.26919670989814 276.52655998997585 -365.05236905990165 1 -1 1
48 1 3 0 120.73879265887271 278.7012208862399 -360.07293755380397 1 -1 1
74 1 3 0 121.77262513478992 267.4061001123793 -360.66561319898597 1 -1 1
73 1 2 0 125.09296115162647 270.188267522618 -356.61487684364846 1 -1 1
72 1 1 0 129.157096094039 271.3985187154457 -351.85995713582986 1 -1 1
89 1 3 0 72.39702706031457 296.4714558676337 -357.64642540692864 1 -1 1
90 1 3 0 69.35387493696271 292.3151696844143 -355.6309523481963 1 -1 1
102 1 3 0 78.88848332556574 287.3362873111863 -354.3967469699178 1 -1 1
103 1 3 0 82.97271960939838 289.51416209244786 -358.2846150445864 1 -1 1
105 1 2 0 91.08491649929904 285.74111908858663 -365.96420498391757 1 -1 1
23 1 3 0 97.30950330169831 295.0109641164388 -365.6288167104249 1 -1 1
7 1 3 0 84.42666674424872 300.0035798919321 -367.0093089539681 1 -1 1
83 1 2 0 96.36326663595945 287.34679787099196 -356.31856379052465 1 -1 1
104 1 2 0 86.62933934465082 287.35754108107034 -362.51452048617426 1 -1 1
86 1 2 0 87.28333312529188 298.65005074068574 -353.44878494793153 1 -1 1
85 1 2 0 93.13914026616906 297.7174272611028 -354.4261976816389 1 -1 1
84 1 2 0 95.32351069965266 292.2968112809098 -353.4319398123289 1 -1 1
22 1 3 0 101.90467356040847 292.8028035094428 -361.9511197140476 1 -1 1
19 1 3 0 116.77364639966937 296.76831743812403 -365.36004603543216 1 -1 1
20 1 4 0 113.48910154122167 291.9667376851254 -363.6987580577963 1 -1 1
21 1 2 0 107.54938972812793 291.7401694196636 -362.52080027212634 1 -1 1
43 1 4 0 107.14511166246885 299.65489318204465 -352.2602922875182 1 -1 1
44 1 3 0 112.63316071167372 297.34829896350897 -351.1342729995737 1 -1 1
45 1 2 0 115.7642119285809 292.5135498696785 -352.0423561377104 1 -1 1
47 1 1 0 121.118880674083 283.9630298861154 -357.56240931864556 1 -1 1
46 1 1 0 117.47871661541299 288.46320010061964 -356.05310943224873 1 -1 1
88 1 2 0 76.87706375914222 300.5173935061572 -357.25221677221697 1 -1 1
87 1 4 0 82.35290478325685 300.9380249525996 -355.1030977316978 1 -1 1
151 1 2 0 78.64101170996813 312.43730311101797 -365.6630741154342 1 -1 1
150 1 2 0 78.50270636444458 312.91958745567814 -359.93925933794816 1 -1 1
149 1 1 0 79.11099479283826 315.36024422788364 -354.635356041872 1 -1 1
40 1 2 0 98.90980222879583 305.7627248270586 -365.2315174456269 1 -1 1
10 1 3 0 92.53712440511713 314.3834168758271 -362.09604750409557 1 -1 1
8 1 3 0 88.22106898176342 304.2268396017672 -365.4578477700693 1 -1 1
9 1 4 0 89.62934634058004 309.2169341131625 -362.85170883406465 1 -1 1
41 1 3 0 99.98416112634524 303.3281682425751 -360.1940187913575 1 -1 1
140 1 1 0 109.09960827717207 307.58401947474965 -364.94326039674127 1 -1 1
141 1 3 0 109.3642966373291 312.96023406938684 -362.0553772084733 1 -1 1
42 1 3 0 103.82516207864082 302.95501983645846 -355.87841927140596 1 -1 1
11 1 2 0 96.92552831809154 317.35289146189666 -365.1851225794832 1 -1 1
142 1 4 0 107.62112629360604 317.1258525579213 -358.4016217751496 1 -1 1
143 1 2 0 103.0775149760021 319.7040611695161 -355.5714275317089 1 -1 1
62 1 2 0 114.77358421673604 249.31165014456357 -345.82850716405545 1 -1 1
63 1 3 0 113.98122653743377 247.1410465765998 -340.4930880117026 1 -1 1
64 1 2 0 115.82761249859637 246.579450614435 -334.95489843079247 1 -1 1
121 1 1 0 117.25167599279733 235.50718119581424 -348.2394042988697 1 -1 1
120 1 3 0 120.28766205606138 236.60729248356742 -343.26012681688593 1 -1 1
119 1 3 0 123.3017487892915 239.99583411512538 -339.60755126567665 1 -1 1
61 1 2 0 119.21674542670875 249.107587656872 -348.91340587557596 1 -1 1
117 1 3 0 127.55862448436713 250.29436814456358 -338.5743135408824 1 -1 1
118 1 2 0 127.28022860816648 244.33956634221664 -339.14785904703325 1 -1 1
113 1 3 0 119.3691365380921 259.600919587734 -349.97518370051324 1 -1 1
114 1 1 0 125.33274501754308 259.1459142508214 -349.745211406391 1 -1 1
116 1 3 0 130.320368283316 253.86368401270423 -342.1337112454134 1 -1 1
115 1 1 0 129.87011279002664 258.0229381328981 -346.0808297551861 1 -1 1
69 1 3 0 130.61154485189005 266.7579161840132 -337.11870676610636 1 -1 1
71 1 3 0 132.40577677074506 268.4359273312548 -348.05640054470734 1 -1 1
70 1 4 0 133.21388877527778 268.1970755504495 -342.3997292754103 1 -1 1
93 1 4 0 55.574563247009074 296.1917652741829 -348.1112501779598 1 -1 1
92 1 1 0 60.926204780675164 294.18114729341977 -348.1510495125589 1 -1 1
91 1 3 0 65.76800487282514 291.8073584441325 -350.3381555951892 1 -1 1
99 1 1 0 74.31133646827557 296.5881349959048 -343.6718750136274 1 -1 1
101 1 4 0 77.54835919940939 287.45138707159083 -348.8694602744545 1 -1 1
100 1 2 0 76.26740239722034 291.17146274908225 -344.2537222444707 1 -1 1
94 1 3 0 52.76692648946951 301.31916356955617 -348.9433281898747 1 -1 1
95 1 4 0 54.874847544129956 306.8604871295811 -348.3582011573696 1 -1 1
97 1 2 0 66.29547172632918 305.065740110827 -346.0663726087287 1 -1 1
96 1 3 0 60.699425335980855 306.8947073005746 -346.91927125083674 1 -1 1
148 1 1 0 82.97245575599545 316.713378816136 -350.37714234057796 1 -1 1
98 1 2 0 71.0533607555818 301.19291524586123 -345.39259000923107 1 -1 1
145 1 3 0 96.15414834096026 322.8774327095539 -346.48497932777724 1 -1 1
146 1 3 0 90.40979783394901 322.3031041914383 -345.1989549248609 1 -1 1
147 1 1 0 85.49786173296853 319.00334846574646 -345.77348410123983 1 -1 1
144 1 1 0 100.15467960911948 320.3986837596381 -350.32696961583 1 -1 1
65 1 2 0 117.84377396034529 249.82479295502313 -330.5696115139695 1 -1 1
66 1 1 0 120.69691994658756 254.9387518031167 -329.5477036899615 1 -1 1
68 1 4 0 126.95928608890787 263.2453911336001 -333.3743953949389 1 -1 1
67 1 2 0 121.9799101418054 259.9335297682318 -332.95185088502376 1 -1 1

Velocities

1 0.000715134262753436 0.000935085506224143 0.00017005251461097457
31 0.0012709991720060122 2.1418471176899662e-05 0.0004426612497087523
32 0.00028000909409077733 0.0008346232834828613 0.00020839281726619247
30 -0.0007484355029687414 4.5465507906961266e-05 0.0014800969908031528
28 -0.00043495545525570287 0.0003629830960451643 0.0008355744459980171
29 0.00011753639644615044 -0.0003894147819765168 0.0011808510598321383
33 -0.0006407412811767516 0.0007175068211393052 -0.00011167000113495249
35 -0.000572098915275298 -0.0006029286429072885 -1.855827464694354e-05
34 0.0021337361905953275 -0.0004635901427189684 -2.5181180610176383e-05
36 0.001896070066300739 -0.00010718057791138139 0.00032607843828193005
56 -0.001115974691248947 0.00033475911314830817 0.000592674094737062
53 8.899592718948107e-05 -0.0001678710702798058 0.0013280902776013023
55 -0.0004679075668113197 -0.00017996751103532084 0.00021948845132662185
54 0.000564363456314274 0.00020181530922699667 -0.00028334654654669676
52 0.000632614244327223 0.0007931656169943075 -0.00012728413046188313
158 -0.0018165514957680328 0.0002770596097328011 -0.0009377880746407731
106 6.754442990894312e-05 0.0021394328202789877 0.0006496932762217082
51 0.0021928998379340575 -0.0006067171504849146 -0.0009421582635429261
107 0.0006074118081162335 0.0006391885713785468 0.0011591727536038956
50 8.767345435572172e-05 -4.212589710627136e-05 -0.0010890405317412891
134 -0.0014585287325896157 0.00019786880720512042 -0.0005342207336203025
130 0.0002558251618440712 0.00016959810219556952 0.0014203682052096726
133 -0.0026647700223112296 -0.000585248594865947 7.248907042323173e-05
132 -0.0006541185907704688 5.5471756513803565e-05 0.0021440484259755642
131 -0.0014619268442760515 0.0007495669834765392 0.0001226826567512138
2 -0.0006107663358798684 -0.0007322766103159188 0.0005724531605162825
157 0.0002210752324752424 0.0017257215326012734 -0.00021933394682869422
3 0.0008141330463516434 0.00041522523906035953 0.00020847940280524916
156 -0.00045075269775078614 0.0007532796037247606 -5.8397534669665885e-05
155 0.0010350506011787355 0.0008555808785198425 0.0002012409124011479
154 -0.0005223773637043197 0.0012738113749704183 -0.0006480203743386082
6 -0.0005509576338242197 0.0008059842035043459 -0.0002828840852913656
4 0.0006028261986433693 0.0003063615752353738 -0.0007288008305251937
5 -0.0023425919353085305 0.0005005127257558333 -2.1591446288256547e-05
26 0.0019374105304526903 -0.00019018658441167274 0.0005822837235092925
25 -6.759583627837899e-05 -0.0002266492747676155 0.0003782753389719235
24 -0.0002905143211749127 -0.0017097512276308684 -0.0021593262363863966
135 0.00016777906668926325 0.0015522903527730749 0.0005785300789257972
136 2.5304532168772808e-05 -0.0016031632059851962 -0.00016285343762553671
137 -0.00018960478572693643 0.0009557429986432312 0.0003439167425770777
138 0.0005912946146085944 0.00039980780177559743 -0.00018421683810235275
18 -0.00019506509309524429 0.0008187898365463615 -0.0003726979548451643
153 -0.0004435007801344884 0.00046075063254002476 0.0007473019078216012
152 0.0011565204537311406 0.0009801324272876064 0.00017825133458159307
27 -0.0014436422083857051 -0.0008919892126344266 0.0008833426974899115
37 0.0009136814966541103 -0.0014861360431843759 0.001033446064920138
38 -0.0013742472182898286 -0.00030294570781218765 0.0009470791219212326
39 3.1987404835697873e-05 -0.0020325672816770483 -0.0013328785565646483
15 0.0014049202078701977 0.0007577787879430526 0.00039106465819195113
139 -0.0005170889727509793 -1.551116229053547e-05 0.001009912978286423
14 0.001934928691731658 -0.0006204052827423214 -0.001521315626772909
17 0.0008391274469023659 -0.0006249470059303736 0.0009792667811111737
16 0.00033466776732061105 0.0014586284231364185 -5.743438280627286e-05
12 0.00032599073151232946 -0.0004357371317515125 -0.0020326460755256868
13 -0.00012589247704280704 2.8206501272047875e-05 9.032151145520191e-05
123 -0.001307974640037536 -0.00043105037218703693 -0.001186754870106236
124 0.0003097424529953006 -0.0007858513249001483 0.00038070370353136904
122 6.330222213067438e-05 0.0014280427421879203 0.0008196584299085323
57 -0.0013522376467427725 -0.0008368168755999139 -0.0006970043743450648
58 1.475785505914365e-05 0.00044689956471436864 -0.00021569883620645446
59 -0.0010874568881710889 0.00014863628523450984 -0.0009351701439065187
60 0.00010685622947865653 2.101337317084691e-05 -0.0010940408184635883
79 0.00045086084372900065 4.4083527639276344e-05 0.00032745112587803714
77 -0.00047282151299977006 0.0007597451995103236 -0.0004079454381293456
125 0.0003716312318463831 4.937092394454773e-06 0.00016367550867833167
76 -0.00022945586622949752 0.0006405302164481814 -0.0017218464801161874
78 0.0013014619872229766 7.640296433334643e-05 0.0006428447381509869
112 -0.0003893821538739297 0.00023498341910742766 -0.00031363631006678497
129 -0.0007387003976221933 0.0009956967622928453 0.0012832570321652727
75 -0.0011191565065193302 -0.0014648690857586983 0.0004886279123233166
128 0.00023003005801569413 -0.00029788434864947376 0.00035736431568559766
127 -0.0002005580356471554 0.000797317590174068 -0.0008652328854758728
126 0.0003861359710965085 -0.0015563647627017925 0.000396516850290492
160 -0.0005860681847530976 -0.000894449923212975 -0.0005064580403203721
161 0.00012710871374098818 -0.00035633092420088084 0.0012699833580608947
159 0.0005829804142265867 0.0015380336552326072 -5.7911917875858776e-05
80 0.000401112683018168 -0.0003186064396847081 0.00013911667849854126
81 -0.0004089771035413475 0.0001285396664369708 -0.000658592798306357
82 0.0010461585328029037 -0.001840277356166111 0.00017038788555291475
111 0.00023341524341691857 -0.00012050336531044104 -0.00016404488968566313
110 -0.0004581586179037024 -0.00025548880916448444 -0.00035447343811089354
108 -0.0002226029550362512 0.0007555044937407149 0.0005782183301181784
109 -0.0009185573910514043 -0.0023515700142433095 -0.00010931317284743447
49 0.00021160930065904242 0.0012399339360009045 -0.00021303205395762446
48 0.001014187071727254 -0.0011720005641948027 0.00013740756711230217
74 -0.0001962334790575034 -0.0002477740940416981 0.00045889222966898866
73 0.0009214925806149502 0.0005728802168940365 0.0006652546727872745
72 -0.0004523570638671283 0.00021628175466366673 -0.00033375372691441354
89 0.00047715404510268583 -0.0008068497822471917 0.00019935846204489322
90 0.0007557344969266247 -0.000717471017577074 -0.0010877864215251428
102 -0.0004739340297756441 -0.0003735729946189702 0.0011297980156263212
103 5.125037987316861e-05 0.000517043954170676 0.00021784952428760202
105 -0.0009741315604164487 0.0009754482254911486 0.0009804960346960377
23 -0.0012342655612132855 0.0007404201130713571 0.0020079703517556875
7 -0.0004852990019148338 0.001306587803239405 -0.0010688986707998427
83 -0.00044829020168810486 0.0003334840562468183 -0.0005341003138388212
104 0.00025692909992535345 0.0010461018356318873 -0.0008514404455178444
86 -0.0005382705528541422 -5.753199692408802e-05 0.0002926528034422996
85 -0.0001683072811894295 0.00046992829151621676 0.0002325404564761804
84 2.607718442901565e-06 0.000895740698494431 -0.000716475025383742
22 0.0005283499290428562 0.0016699587069908888 0.0012342192612112587
19 0.0008513423715971438 -0.00048769859809832223 0.0006718960329904248
20 -0.00017864361490941045 0.0007319099397550702 -0.00038880616912546055
21 -0.001814407816594269 -0.00012319252067062193 -0.0013918007269383625
43 -0.0004692158617443496 -0.0006973554972042016 -0.0015755972763974995
44 -0.000921974999091663 -0.0002769661791700818 0.00037984612904397444
45 0.00018417420554446706 0.00036467099679945406 -0.00035863290687808603
47 5.6533936595286295e-05 -0.00021988957708402618 -0.00038563714733651683
46 -0.001379781240552504 0.0014814408617019026 0.0003363334123036929
88 -0.00012099880253215835 0.0005479990747637464 0.0007492966127268086
87 -0.0016145746769045195 0.0002387614750526988 0.00017916804806001872
151 0.0009423392772188058 0.000626145722708785 -0.00124398483477995
150 0.0010731614020334118 -0.0002675042925141497 -0.0006437099422755769
149 -9.755297625335058e-05 0.0005540598808550878 0.001064933674719656
40 0.00042308472571169316 -0.0004830191911194042 -0.0015380666329112924
10 -0.0015239073294819102 -0.000926664189584513 -0.0006471531317869778
8 0.000366961083687663 -0.00011265927246320814 -0.00010520673745109967
9 0.00010288986181851394 0.0004894683710867547 0.0005667636511200081
41 0.0007287102708707215 -2.621199920612727e-05 -0.0001637972731734662
140 0.0006406052796041525 0.0011328141546094676 0.0018657644033980164
141 -6.220959299172396e-05 0.0003794626406571926 0.0005171342370466363
42 0.0007451202540828578 -0.0004379660807475355 0.0015487976989910681
11 -0.0012944520577287523 0.0010780061939527966 -0.000784754166428922
142 0.0004367427007280828 -0.0007144113081682278 0.0012235739129564062
143 -7.649740018793877e-05 0.00020284720204130285 0.000827818600527277
62 0.0010273255521476641 -0.0020979480107237883 -0.00028954895578293477
63 0.00023528625990843017 -0.00021296554154524904 -0.0019397463693251124
64 -0.00020710560142863301 0.0007742534421560094 -0.0015361079829746638
121 0.00014018999644978885 0.000568013982878244 0.0011372909396571986
120 -0.0005626837829977032 -0.0005024790159458283 0.00010670188447443158
119 0.000592703879027362 -0.001371278755417011 -0.00020050783520272322
61 0.000222255093587738 0.0005327822363313916 -0.00013230249772630223
117 -0.0009760582902132461 0.0004817975573102924 0.00017804818465982483
118 0.0016165481667754125 -0.0005301884164697081 0.0002730706801631901
113 0.0005779161056188173 0.0013557544773383208 -0.0007583828971005843
114 -1.8171515086890362e-05 0.0005204120009930717 -0.0005286043672684809
116 -0.0007736002621462877 8.268710632591555e-05 0.00016418168010292028
115 -0.0012629331832950145 0.000854870755148348 -0.0003306415588699764
69 0.0015018845529148252 -0.0008179440829186876 0.00021807914116674917
71 -0.0001658333178728752 0.0003651818621889392 0.0003768415212634255
70 0.0011444485502962183 -0.0009093732386175275 -5.084375872040706e-05
93 -0.0010309210595770726 -0.0003299222143058123 0.0011305460531032322
92 -8.110929765359667e-05 6.305207499714302e-05 -0.0012490365612978073
91 -0.000315381921867198 9.918049817148718e-05 0.0015069943211275785
99 -0.00011938349903039706 0.0015521509893516377 0.000632999854265583
101 -0.0005608838164473892 -6.748869202852903e-05 0.00010954539901410196
100 0.00017243609827532493 0.00021733598895393524 0.00046812289629573063
94 -0.0016545840775397153 0.0005373726752063022 0.0005841548270513589
95 -0.00021536881252516308 2.7802888614590242e-05 0.0006888866472761612
97 -0.0003472431809306278 -0.0006928670653678056 0.0005971376648443371
96 -0.00041761749265761675 -0.0002560894109026574 -0.00143851237631888
148 -0.0012100293217305383 -0.0007895813780856222 3.3892656034622236e-05
98 -0.0002893265628206284 0.0006559905829219207 -0.0014474402316235165
145 -0.00035820094733394624 0.0005802195649343313 -0.00032486871439480787
146 0.001067416632322029 -0.0010127896731633567 -5.011022292506605e-06
147 -0.0010255297644300263 0.0013692634531503349 -0.0006167596584182295
144 0.0010386149652105111 3.0142984156388827e-05 -0.0007884942092894352
65 0.0002728297321329024 -0.0003494632409890288 0.00015567015976243164
66 0.0009121832354900825 6.81509615896676e-05 0.0009830066150352313
68 -0.0005896589301004391 0.00042758891179803124 -0.0008080991803078538
67 0.0002104868947148919 -0.001656176055049573 0.0003461429053331311

Bonds

1 1 1 2
2 1 31 32
3 1 32 33
4 1 30 31
5 1 28 29
6 1 29 30
7 1 33 34
8 1 35 36
9 1 34 35
10 1 36 37
11 1 56 57
12 1 53 54
13 1 55 56
14 1 54 55
15 1 52 53
16 1 158 159
17 1 106 107
18 1 51 52
19 1 107 108
20 1 50 51
21 1 134 135
22 1 130 131
23 1 133 134
24 1 132 133
25 1 131 132
26 1 2 3
27 1 157 158
28 1 3 4
29 1 156 157
30 1 155 156
31 1 154 155
32 1 6 7
33 1 4 5
34 1 5 6
35 1 26 27
36 1 25 26
37 1 24 25
38 1 135 136
39 1 136 137
40 1 137 138
41 1 138 139
42 1 18 19
43 1 153 154
44 1 152 153
45 1 27 28
46 1 37 38
47 1 38 39
48 1 39 40
49 1 15 16
50 1 139 140
51 1 14 15
52 1 17 18
53 1 16 17
54 1 12 13
55 1 13 14
56 1 123 124
57 1 124 125
58 1 122 123
59 1 57 58
60 1 58 59
61 1 59 60
62 1 60 61
63 1 79 80
64 1 77 78
65 1 125 126
66 1 76 77
67 1 78 79
68 1 112 113
69 1 129 130
70 1 75 76
71 1 128 129
72 1 127 128
73 1 126 127
74 1 160 161
75 1 159 160
76 1 80 81
77 1 81 82
78 1 82 83
79 1 111 112
80 1 110 111
81 1 108 109
82 1 109 110
83 1 49 50
84 1 48 49
85 1 74 75
86 1 73 74
87 1 72 73
88 1 89 90
89 1 90 91
90 1 102 103
91 1 103 104
92 1 105 106
93 1 23 24
94 1 7 8
95 1 83 84
96 1 104 105
97 1 86 87
98 1 85 86
99 1 84 85
100 1 22 23
101 1 19 20
102 1 20 21
103 1 21 22
104 1 43 44
105 1 44 45
106 1 45 46
107 1 47 48
108 1 46 47
109 1 88 89
110 1 87 88
111 1 151 152
112 1 150 151
113 1 149 150
114 1 40 41
115 1 10 11
116 1 8 9
117 1 9 10
118 1 41 42
119 1 140 141
120 1 141 142
121 1 42 43
122 1 11 12
123 1 142 143
124 1 143 144
125 1 62 63
126 1 63 64
127 1 64 65
128 1 121 122
129 1 120 121
130 1 119 120
131 1 61 62
132 1 117 118
133 1 118 119
134 1 113 114
135 1 114 115
136 1 116 117
137 1 115 116
138 1 69 70
139 1 71 72
140 1 70 71
141 1 93 94
142 1 92 93
143 1 91 92
144 1 99 100
145 1 101 102
146 1 100 101
147 1 94 95
148 1 95 96
149 1 97 98
150 1 96 97
151 1 148 149
152 1 98 99
153 1 145 146
154 1 146 147
155 1 147 148
156 1 144 145
157 1 65 66
158 1 66 67
159 1 68 69
160 1 67 68

Angles

1 1 30 31 32
2 1 31 32 33
3 1 29 30 31
4 1 27 28 29
5 1 28 29 30
6 1 32 33 34
7 1 34 35 36
8 1 33 34 35
9 1 35 36 37
10 1 55 56 57
11 1 52 53 54
12 1 54 55 56
13 1 53 54 55
14 1 51 52 53
15 1 157 158 159
16 1 105 106 107
17 1 50 51 52
18 1 106 107 108
19 1 49 50 51
20 1 133 134 135
21 1 129 130 131
22 1 132 133 134
23 1 131 132 133
24 1 130 131 132
25 1 1 2 3
26 1 156 157 158
27 1 2 3 4
28 1 155 156 157
29 1 154 155 156
30 1 153 154 155
31 1 5 6 7
32 1 3 4 5
33 1 4 5 6
34 1 25 26 27
35 1 24 25 26
36 1 23 24 25
37 1 134 135 136
38 1 135 136 137
39 1 136 137 138
40 1 137 138 139
41 1 17 18 19
42 1 152 153 154
43 1 151 152 153
44 1 26 27 28
45 1 36 37 38
46 1 37 38 39
47 1 38 39 40
48 1 14 15 16
49 1 138 139 140
50 1 13 14 15
51 1 16 17 18
52 1 15 16 17
53 1 11 12 13
54 1 12 13 14
55 1 122 123 124
56 1 123 124 125
57 1 121 122 123
58 1 56 57 58
59 1 57 58 59
60 1 58 59 60
61 1 59 60 61
62 1 78 79 80
63 1 76 77 78
64 1 124 125 126
65 1 75 76 77
66 1 77 78 79
67 1 111 112 113
68 1 128 129 130
69 1 74 75 76
70 1 127 128 129
71 1 126 127 128
72 1 125 126 127
73 1 159 160 161
74 1 158 159 160
75 1 79 80 81
76 1 80 81 82
77 1 81 82 83
78 1 110 111 112
79 1 109 110 111
80 1 107 108 109
81 1 108 109 110
82 1 48 49 50
83 1 47 48 49
84 1 73 74 75
85 1 72 73 74
86 1 71 72 73
87 1 88 89 90
88 1 89 90 91
89 1 101 102 103
90 1 102 103 104
91 1 104 105 106
92 1 22 23 24
93 1 6 7 8
94 1 82 83 84
95 1 103 104 105
96 1 85 86 87
97 1 84 85 86
98 1 83 84 85
99 1 21 22 23
100 1 18 19 20
101 1 19 20 21
102 1 20 21 22
103 1 42 43 44
104 1 43 44 45
105 1 44 45 46
106 1 46 47 48
107 1 45 46 47
108 1 87 88 89
109 1 86 87 88
110 1 150 151 152
111 1 149 150 151
112 1 148 149 150
113 1 39 40 41
114 1 9 10 11
115 1 7 8 9
116 1 8 9 10
117 1 40 41 42
118 1 139 140 141
119 1 140 141 142
120 1 41 42 43
121 1 10 11 12
122 1 141 142 143
123 1 142 143 144
124 1 61 62 63
125 1 62 63 64
126 1 63 64 65
127 1 120 121 122
128 1 119 120 121
129 1 118 119 120
130 1 60 61 62
131 1 116 117 118
132 1 117 118 119
133 1 112 113 114
134 1 113 114 115
135 1 115 116 117
136 1 114 115 116
137 1 68 69 70
138 1 70 71 72
139 1 69 70 71
140 1 92 93 94
141 1 91 92 93
142 1 90 91 92
143 1 98 99 100
144 1 100 101 102
145 1 99 100 101
146 1 93 94 95
147 1 94 95 96
148 1 96 97 98
149 1 95 96 97
150 1 147 148 149
151 1 97 98 99
152 1 144 145 146
153 1 145 146 147
154 1 146 147 148
155 1 143 144 145
156 1 64 65 66
157 1 65 66 67
158 1 67 68 69
159 1 66 67 68
