
# sampling strides
variable dump_stride   equal 10000
variable thermo_stride equal 10000

# bonded terms
bond_style harmonic
bond_coeff 1 7.5 5.9

angle_style harmonic
angle_coeff 1 5.0 150.0

# nonbonded and base-pair terms
pair_style hybrid/overlay lj/cut 10.0 base/rna 18.0

# WCA-LJ (excluded volume)
pair_coeff * * lj/cut 2.0 8.9089871814
pair_modify shift yes

# Base-pair interactions (A-1, C-2, G-3, U-4)
pair_coeff 1 1 base/rna 0.00000 3.0 13.8 1.5 0.5 1.8326 0.9425 1.8326 1.1345 #AA
pair_coeff 1 2 base/rna 0.00000 3.0 13.8 1.5 0.5 1.8326 0.9425 1.8326 1.1345 #AC
pair_coeff 1 3 base/rna 0.00000 3.0 13.8 1.5 0.5 1.8326 0.9425 1.8326 1.1345 #AG
pair_coeff 1 4 base/rna 3.33333 3.0 13.8 1.5 0.5 1.8326 0.9425 1.8326 1.1345 #AU
pair_coeff 2 2 base/rna 0.00000 3.0 13.8 1.5 0.5 1.8326 0.9425 1.8326 1.1345 #CC
pair_coeff 2 3 base/rna 5.00000 3.0 13.8 1.5 0.5 1.8326 0.9425 1.8326 1.1345 #CG
pair_coeff 2 4 base/rna 0.00000 3.0 13.8 1.5 0.5 1.8326 0.9425 1.8326 1.1345 #CU
pair_coeff 3 3 base/rna 0.00000 3.0 13.8 1.5 0.5 1.8326 0.9425 1.8326 1.1345 #GG
pair_coeff 3 4 base/rna 3.33333 3.0 13.8 1.5 0.5 1.8326 0.9425 1.8326 1.1345 #GU
pair_coeff 4 4 base/rna 0.00000 3.0 13.8 1.5 0.5 1.8326 0.9425 1.8326 1.1345 #UU

special_bonds lj 0.0 0.0 1.0
Finding 1-2 1-3 1-4 neighbors ...
  special bond factors lj:    0        0        1       
  special bond factors coul:  0        0        0       
     2 = max # of 1-2 neighbors
     2 = max # of 1-3 neighbors
     4 = max # of 1-4 neighbors
     6 = max # of special neighbors
  special bonds CPU = 0.000 seconds

velocity        all create ${myTemp} ${randomSeed}
velocity        all create 298 ${randomSeed}
velocity        all create 298 2347

neighbor  15.0 bin
neigh_modify  every 10 delay 0
comm_style    tiled

timestep      10
timer timeout 03:29:00
New timer settings: style=normal  mode=nosync  timeout=03:29:00

fix           fxnve   all nve
fix           fxlange all langevin ${myTemp} ${myTemp} 100000.0 43165
fix           fxlange all langevin 298 ${myTemp} 100000.0 43165
fix           fxlange all langevin 298 298 100000.0 43165
fix           fxbal   all balance 1000 1.05 rcb

dump          1 all custom ${dump_stride} outputs/${tag}_${myTemp}_nvt.lammpstrj id mol type q xu yu zu
dump          1 all custom 10000 outputs/${tag}_${myTemp}_nvt.lammpstrj id mol type q xu yu zu
dump          1 all custom 10000 outputs/config_4GXY_A.dat_${myTemp}_nvt.lammpstrj id mol type q xu yu zu
dump          1 all custom 10000 outputs/config_4GXY_A.dat_298_nvt.lammpstrj id mol type q xu yu zu
dump_modify   1 sort id

thermo_style  custom step pe ke temp
thermo        ${thermo_stride}
thermo        10000
thermo_modify flush yes

# optional averaged thermo
variable       vpe equal pe
variable       vke equal ke
variable       vT  equal temp
variable       stride10 equal ${thermo_stride}*10
variable       stride10 equal 10000*10
fix            fa all ave/time ${thermo_stride} 10 ${stride10} v_vpe v_vke v_vT file outputs/thermo_${tag}_averaged.dat
fix            fa all ave/time 10000 10 ${stride10} v_vpe v_vke v_vT file outputs/thermo_${tag}_averaged.dat
fix            fa all ave/time 10000 10 100000 v_vpe v_vke v_vT file outputs/thermo_${tag}_averaged.dat
fix            fa all ave/time 10000 10 100000 v_vpe v_vke v_vT file outputs/thermo_config_4GXY_A.dat_averaged.dat

run 50000000

CITE-CITE-CITE-CITE-CITE-CITE-CITE-CITE-CITE-CITE-CITE-CITE-CITE

Your simulation uses code contributions which should be cited:

- Type Label Framework: https://doi.org/10.1021/acs.jpcb.3c08419

@Article{Gissinger24,
 author = {Jacob R. Gissinger, Ilia Nikiforov, Yaser Afshar, Brendon Waters, Moon-ki Choi, Daniel S. Karls, Alexander Stukowski, Wonpil Im, Hendrik Heinz, Axel Kohlmeyer, and Ellad B. Tadmor},
 title = {Type Label Framework for Bonded Force Fields in LAMMPS},
 journal = {J. Phys. Chem. B},
 year =    2024,
 volume =  128,
 number =  13,
 pages =   {3282–-3297}
}

CITE-CITE-CITE-CITE-CITE-CITE-CITE-CITE-CITE-CITE-CITE-CITE-CITE

Generated 0 of 6 mixed pair_coeff terms from geometric mixing rule
Neighbor list info ...
  update: every = 10 steps, delay = 0 steps, check = yes
  max neighbors/atom: 2000, page size: 100000
  master list distance cutoff = 33
  ghost atom cutoff = 33
  binsize = 16.5, bins = 61 61 61
  2 neighbor lists, perpetual/occasional/extra = 2 0 0
  (1) pair lj/cut, perpetual, trim from (2)
      attributes: half, newton on, cut 25
      pair build: trim
      stencil: none
      bin: none
  (2) pair base/rna, perpetual
      attributes: half, newton on
      pair build: half/bin/newton
      stencil: half/bin/3d
      bin: standard
Per MPI rank memory allocation (min/avg/max) = 8.389 | 8.389 | 8.389 Mbytes
   Step         PotEng         KinEng          Temp     
         0   217.95376      142.12502      298          
     10000   100.27303      144.40757      302.78592    
     20000   88.536038      141.41716      296.51578    
     30000   96.328328      150.67126      315.91928    
     40000   91.171996      154.93269      324.85442    
     50000   81.662569      167.59252      351.39887    
     60000   67.317203      162.13136      339.9482     
     70000   72.999034      136.15717      285.48692    
     80000   55.728588      137.78964      288.90981    
     90000   70.425461      129.85968      272.2827     
    100000   69.340009      157.91809      331.11403    
    110000   89.46443       134.00553      280.97548    
    120000   72.960508      146.45365      307.07603    
    130000   60.937838      143.81915      301.55216    
    140000   32.553795      138.10195      289.56464    
    150000   28.198506      145.31816      304.69519    
    160000   17.2736        140.58839      294.77808    
    170000   10.441961      154.60268      324.16248    
    180000   12.472822      151.13764      316.89716    
    190000   11.454355      135.92373      284.99746    
    200000  -2.0119078      139.39356      292.27282    
    210000  -27.845328      141.96328      297.66088    
    220000  -25.983703      150.10652      314.73516    
    230000  -55.795255      169.36356      355.11228    
    240000  -55.91908       130.94029      274.54846    
    250000  -65.022078      146.62277      307.43064    
    260000  -49.334469      141.47118      296.62906    
    270000  -51.731498      134.96753      282.99257    
    280000  -31.413093      148.83352      312.066      
    290000  -74.900428      158.75786      332.87483    
    300000  -50.589267      128.77956      270.01797    
    310000  -83.889607      159.24393      333.894      
    320000  -69.349739      146.63894      307.46454    
    330000  -77.965106      143.67503      301.24997    
    340000  -80.274062      143.85784      301.63328    
    350000  -88.709264      139.98307      293.50886    
    360000  -77.428134      152.40341      319.55117    
    370000  -67.550857      138.36484      290.11585    
    380000  -52.22415       137.77374      288.87647    
    390000  -68.25872       138.23059      289.83437    
    400000  -67.40372       146.09575      306.32561    
    410000  -41.383371      146.9697       308.15805    
    420000  -47.597081      148.05379      310.43111    
    430000  -45.169048      137.93954      289.2241     
    440000  -62.058577      153.96899      322.83378    
    450000  -42.585301      122.30806      256.44886    
    460000  -84.424656      148.98838      312.39072    
    470000  -86.439254      147.42044      309.10313    
    480000  -83.42688       144.546        303.07618    
    490000  -98.188239      131.94859      276.66262    
    500000  -118.13523      160.78038      337.11553    
    510000  -91.227124      136.60801      286.43224    
    520000  -114.51387      145.14309      304.32811    
    530000  -113.55887      154.61282      324.18373    
    540000  -111.36491      152.83999      320.46656    
    550000  -105.79182      148.23804      310.81743    
    560000  -106.28499      145.01684      304.0634     
    570000  -85.764039      146.26414      306.67867    
    580000  -62.630241      161.51912      338.66449    
    590000  -63.199667      163.93753      343.73527    
    600000  -51.640173      137.2643       287.80831    
    610000  -93.45632       160.30264      336.11384    
    620000  -104.26591      156.34372      327.813      
    630000  -96.554887      145.52182      305.12221    
    640000  -100.89882      165.19968      346.38168    
    650000  -96.385961      153.90069      322.69057    
    660000  -107.53592      150.1487       314.82362    
    670000  -106.90588      155.91304      326.90996    
    680000  -115.32419      140.1312       293.81946    
    690000  -130.51213      146.0412       306.21123    
    700000  -115.78505      119.43501      250.42482    
    710000  -116.05638      142.12221      297.9941     
    720000  -117.04413      147.65752      309.60023    
    730000  -86.04414       145.17068      304.38598    
    740000  -108.83473      147.18498      308.60944    
    750000  -125.01359      141.57786      296.85273    
    760000  -117.67823      150.08174      314.68322    
    770000  -106.93495      134.50208      282.01663    
    780000  -114.57879      146.802        307.80644    
    790000  -104.55026      120.20922      252.04814    
    800000  -121.19135      147.16181      308.56085    
    810000  -108.12948      130.89105      274.44523    
    820000  -94.002832      124.60706      261.26929    
    830000  -91.044274      144.11694      302.17654    
    840000  -102.58333      152.66382      320.09717    
    850000  -108.97652      138.10463      289.57027    
    860000  -108.58771      144.34692      302.65875    
    870000  -83.152929      150.15071      314.82783    
    880000  -81.991427      152.9763       320.75237    
    890000  -90.07088       142.05191      297.84669    
    900000  -95.911807      137.54916      288.40558    
    910000  -89.587814      139.45959      292.41126    
    920000  -80.036863      140.39154      294.36533    
    930000  -61.341162      131.35353      275.41492    
    940000  -94.348113      141.16969      295.99691    
    950000  -108.33462      134.09051      281.15368    
    960000  -102.19631      133.15372      279.18946    
    970000  -85.374749      132.29385      277.38654    
    980000  -111.8236       152.41029      319.56559    
    990000  -117.92479      155.32507      325.67713    
   1000000  -110.95286      156.02118      327.1367     
   1010000  -119.06577      126.39995      265.02853    
   1020000  -111.57543      132.1787       277.14508    
   1030000  -85.525457      142.88981      299.60356    
   1040000  -100.15695      133.4289       279.76645    
   1050000  -108.18978      147.12275      308.47897    
   1060000  -101.16721      143.16259      300.17552    
   1070000  -102.50069      143.56887      301.02738    
   1080000  -85.939412      142.04353      297.82913    
   1090000  -98.2139        140.75853      295.13481    
   1100000  -100.57844      155.74362      326.55472    
   1110000  -99.708489      165.39802      346.79756    
   1120000  -82.10719       141.15411      295.96423    
   1130000  -103.21411      154.31547      323.56026    
   1140000  -109.47109      163.17301      342.13227    
   1150000  -110.99279      139.0949       291.64661    
   1160000  -119.97064      156.39393      327.91826    
   1170000  -98.486283      134.55445      282.12644    
   1180000  -129.65811      154.13407      323.17991    
   1190000  -110.48068      150.19246      314.91537    
   1200000  -112.91381      143.27792      300.41733    
   1210000  -96.397914      138.71772      290.85575    
   1220000  -115.02903      153.29358      321.41763    
   1230000  -100.79861      133.91135      280.77802    
   1240000  -88.550407      129.5117       271.55307    
   1250000  -136.42152      138.7356       290.89323    
   1260000  -111.65118      157.43844      330.10833    
   1270000  -107.35416      148.14596      310.62438    
   1280000  -94.081949      153.55225      321.95999    
   1290000  -112.78469      136.07559      285.31588    
   1300000  -116.30899      140.66717      294.94325    
   1310000  -107.23829      130.3999       273.4154     
   1320000  -99.506997      146.69603      307.58425    
   1330000  -122.19032      144.4244       302.82121    
   1340000  -106.76131      147.62126      309.52421    
   1350000  -98.966808      152.80689      320.39716    
   1360000  -85.068906      143.61633      301.12689    
   1370000  -99.660355      139.13466      291.72996    
   1380000  -99.006584      135.66869      284.46271    
   1390000  -102.31345      144.71166      303.42351    
   1400000  -113.70673      144.99763      304.02313    
   1410000  -114.90501      144.22388      302.40077    
   1420000  -113.12961      149.98849      314.48769    
   1430000  -109.69733      143.0665       299.97403    
   1440000  -115.34937      148.78382      311.96181    
   1450000  -119.10511      139.82441      293.17621    
   1460000  -104.00285      120.78428      253.25388    
   1470000  -100.43833      143.36959      300.60953    
   1480000  -89.092671      149.23831      312.91475    
   1490000  -87.567968      139.93226      293.40234    
   1500000  -75.477186      127.70489      267.76464    
   1510000  -95.244573      150.79831      316.18567    
   1520000  -102.18669      155.86178      326.80247    
   1530000  -76.631179      145.05647      304.14649    
   1540000  -89.052164      142.63931      299.07833    
   1550000  -93.818467      146.53978      307.25662    
   1560000  -91.883448      133.28228      279.45903    
   1570000  -108.12907      155.62813      326.31257    
   1580000  -89.035988      132.85329      278.55953    
   1590000  -88.948923      142.84912      299.51824    
   1600000  -103.96557      163.74448      343.3305     
   1610000  -109.89663      152.71951      320.21393    
   1620000  -87.636457      141.98441      297.70518    
   1630000  -88.948077      154.31328      323.55567    
   1640000  -84.373099      151.49777      317.65226    
   1650000  -105.20914      143.88732      301.69508    
   1660000  -98.328059      145.79495      305.6949     
   1670000  -115.51266      137.65907      288.63603    
   1680000  -87.746226      125.21973      262.55389    
   1690000  -106.547        144.27078      302.49911    
   1700000  -92.295444      138.55754      290.51989    
   1710000  -108.96435      143.99418      301.91915    
   1720000  -99.204348      132.45654      277.72765    
   1730000  -100.54492      151.31651      317.27221    
   1740000  -96.446861      140.228        294.02243    
   1750000  -92.108377      169.4672       355.32959    
   1760000  -108.72812      144.44366      302.86159    
   1770000  -127.66265      139.76936      293.06077    
   1780000  -101.35127      144.91856      303.85734    
   1790000  -93.639718      142.25841      298.27967    
   1800000  -100.65877      149.3458       313.14014    
   1810000  -106.35571      150.3885       315.32641    
   1820000  -81.634046      143.70832      301.31978    
   1830000  -94.537027      139.1107       291.67972    
   1840000  -75.869954      141.62068      296.94252    
   1850000  -78.574227      139.89331      293.32067    
   1860000  -70.276556      139.18367      291.83274    
   1870000  -63.932729      147.76138      309.818      
   1880000  -59.613158      140.79439      295.21001    
   1890000  -70.68351       151.95906      318.61947    
   1900000  -70.484333      144.2993       302.55891    
   1910000  -89.756469      155.17564      325.36383    
   1920000  -75.085963      152.91036      320.6141     
   1930000  -63.780333      138.3966       290.18244    
   1940000  -97.956356      158.25927      331.82941    
   1950000  -65.903318      132.30872      277.41771    
   1960000  -88.77294       136.51082      286.22844    
   1970000  -106.44737      142.41446      298.60687    
   1980000  -83.725953      156.06472      327.22799    
   1990000  -82.938773      139.89118      293.31619    
   2000000  -75.418558      145.31758      304.69398    
   2010000  -92.805218      144.56042      303.1064     
   2020000  -78.133539      144.43164      302.83639    
   2030000  -69.14137       147.68857      309.66534    
   2040000  -64.49378       148.77889      311.95148    
   2050000  -49.510792      137.91714      289.17713    
   2060000  -46.406346      150.74608      316.07617    
   2070000  -72.696665      150.60323      315.77665    
   2080000  -71.328909      164.00888      343.88488    
   2090000  -89.997935      146.22731      306.60144    
   2100000  -102.63466      154.62474      324.20873    
   2110000  -55.576539      151.16999      316.96499    
   2120000  -91.521684      144.29368      302.54712    
   2130000  -113.3491       134.65468      282.33659    
   2140000  -94.86827       121.86675      255.52357    
   2150000  -90.426117      133.18877      279.26296    
   2160000  -102.32453      146.90539      308.02321    
   2170000  -77.206784      149.17158      312.77483    
   2180000  -98.736059      148.6794       311.74287    
   2190000  -124.47364      138.25247      289.88023    
   2200000  -115.7629       164.41972      344.74631    
   2210000  -116.13639      154.33618      323.60369    
   2220000  -94.212035      151.92706      318.55237    
   2230000  -77.041491      141.48905      296.66653    
   2240000  -101.33829      157.58719      330.42023    
   2250000  -84.180386      142.57415      298.9417     
   2260000  -100.4848       144.15658      302.25965    
   2270000  -118.55451      141.53048      296.75339    
   2280000  -120.3265       130.29451      273.19443    
   2290000  -105.6022       146.23606      306.61981    
   2300000  -98.270208      131.78827      276.32646    
   2310000  -113.66707      128.57022      269.57903    
   2320000  -142.57588      151.48994      317.63585    
   2330000  -117.78223      142.67815      299.15977    
   2340000  -98.80694       145.04202      304.11621    
   2350000  -109.94979      147.02379      308.27147    
   2360000  -127.31877      153.77304      322.42292    
   2370000  -123.21379      136.55007      286.31074    
   2380000  -114.63854      135.41101      283.92243    
   2390000  -116.88609      125.86428      263.90536    
   2400000  -130.36684      154.27546      323.47638    
   2410000  -121.2212       137.78553      288.90118    
   2420000  -98.966703      143.67399      301.24778    
   2430000  -115.99803      142.5502       298.8915     
   2440000  -115.9456       145.84249      305.79457    
   2450000  -103.47466      143.40461      300.68297    
   2460000  -120.52954      143.61433      301.1227     
   2470000  -122.77532      156.02243      327.13933    
   2480000  -118.55603      142.75151      299.31358    
   2490000  -133.8385       145.54784      305.17677    
   2500000  -107.11786      122.58077      257.02067    
   2510000  -121.27767      131.5152       275.75391    
   2520000  -87.365768      120.04707      251.70816    
   2530000  -122.46586      137.30187      287.88707    
   2540000  -112.14796      139.96945      293.4803     
   2550000  -126.26299      146.38299      306.92787    
   2560000  -123.64547      157.93927      331.15845    
   2570000  -83.696043      129.95336      272.47911    
   2580000  -99.409787      134.05556      281.08039    
   2590000  -93.847386      142.97927      299.79114    
   2600000  -107.51408      130.79496      274.24374    
   2610000  -122.94414      123.19405      258.30656    
   2620000  -132.31019      139.23832      291.94731    
   2630000  -130.83829      141.86576      297.4564     
   2640000  -113.84173      135.8412       284.82442    
   2650000  -103.38201      141.63541      296.9734     
   2660000  -101.23807      139.3947       292.27521    
   2670000  -114.4523       145.25101      304.55441    
   2680000  -97.938786      134.67607      282.38145    
   2690000  -113.97966      157.77466      330.81331    
   2700000  -110.67345      144.9829       303.99223    
   2710000  -123.25649      138.53507      290.47278    
   2720000  -124.57967      136.23029      285.64025    
   2730000  -123.96698      141.54652      296.78703    
   2740000  -99.404382      137.29993      287.88301    
   2750000  -124.88811      152.81661      320.41753    
   2760000  -143.75056      166.98276      350.12034    
   2770000  -121.60118      144.93488      303.89156    
   2780000  -123.40883      139.22884      291.92744    
   2790000  -105.32263      156.75817      328.68199    
   2800000  -134.8956       148.91086      312.22818    
   2810000  -116.49156      153.58634      322.03146    
   2820000  -115.24913      136.16749      285.50857    
   2830000  -128.37728      132.97663      278.81815    
   2840000  -129.58662      132.23619      277.26563    
   2850000  -140.57371      125.52837      263.20104    
   2860000  -122.26515      131.85682      276.47019    
   2870000  -140.96391      138.31835      290.01839    
   2880000  -130.68375      132.46217      277.73945    
   2890000  -117.43579      145.65387      305.39909    
   2900000  -130.58195      132.14712      277.07888    
   2910000  -118.18199      137.37826      288.04725    
   2920000  -111.11164      156.07122      327.24163    
   2930000  -130.06479      136.6626       286.54669    
   2940000  -122.8295       132.73111      278.30336    
   2950000  -114.4082       143.63618      301.16852    
   2960000  -145.96088      163.26415      342.32338    
   2970000  -140.95199      146.85789      307.92361    
   2980000  -122.37822      137.81086      288.9543     
   2990000  -126.90145      155.5866       326.2255     
   3000000  -109.12939      125.99402      264.1774     
   3010000  -124.83012      148.97892      312.37089    
   3020000  -88.40223       131.51966      275.76325    
   3030000  -97.960488      132.48316      277.78346    
   3040000  -94.653712      137.99373      289.33773    
   3050000  -100.54265      150.12015      314.76374    
   3060000  -116.01263      138.60756      290.62478    
   3070000  -105.7184       150.17239      314.87329    
   3080000  -119.34939      156.69641      328.55248    
   3090000  -118.47238      132.32161      277.44475    
   3100000  -93.589763      140.49098      294.57383    
   3110000  -111.94181      153.44188      321.72857    
   3120000  -118.57555      160.09208      335.67234    
   3130000  -110.26875      154.26045      323.44489    
   3140000  -93.901036      136.43344      286.06619    
   3150000  -98.458735      143.67762      301.25539    
   3160000  -113.71096      143.92268      301.76924    
   3170000  -110.54412      122.7174       257.30716    
   3180000  -116.53909      136.54207      286.29398    
   3190000  -95.597618      136.92302      287.09272    
   3200000  -96.101591      133.49071      279.89605    
   3210000  -121.87986      156.64643      328.4477     
   3220000  -100.43438      148.2566       310.85636    
   3230000  -110.23688      146.01937      306.16546    
   3240000  -110.25281      152.52051      319.79668    
   3250000  -122.62563      136.78461      286.80252    
   3260000  -117.66026      146.28303      306.71829    
   3270000  -131.57076      145.56272      305.20797    
   3280000  -108.69538      137.71955      288.76285    
   3290000  -126.77217      135.00356      283.06811    
   3300000  -115.59506      135.7511       284.6355     
   3310000  -115.10121      134.60282      282.22786    
   3320000  -116.22723      133.15226      279.1864     
   3330000  -100.47222      142.36638      298.50607    
   3340000  -115.21223      152.83128      320.44829    
   3350000  -99.116956      164.29621      344.48734    
   3360000  -102.75128      143.41641      300.70771    
   3370000  -101.1794       148.57929      311.53296    
   3380000  -93.004855      140.93453      295.50385    
   3390000  -96.77612       156.77905      328.72576    
   3400000  -121.58893      148.70613      311.7989     
   3410000  -112.00846      157.93768      331.15511    
   3420000  -149.13586      147.17343      308.58521    
   3430000  -121.26566      140.12749      293.81167    
   3440000  -121.97157      151.99602      318.69697    
   3450000  -101.36086      133.86288      280.6764     
   3460000  -122.09829      130.88187      274.42597    
   3470000  -128.9643       137.69431      288.70992    
   3480000  -138.78059      124.98387      262.05937    
   3490000  -121.18297      131.95743      276.68115    
   3500000  -106.38456      126.90273      266.08272    
   3510000  -108.34045      130.24543      273.09153    
   3520000  -134.55814      150.69343      315.96577    
   3530000  -133.48862      141.98053      297.69703    
   3540000  -123.87601      143.59139      301.07459    
   3550000  -120.90756      141.85264      297.42888    
   3560000  -117.02111      142.96553      299.76233    
   3570000  -102.31797      137.65336      288.62407    
   3580000  -95.064138      137.79917      288.92978    
   3590000  -126.04448      164.1719       344.2267     
   3600000  -122.31499      151.28086      317.19746    
   3610000  -131.44552      143.56392      301.017      
   3620000  -108.86666      148.39307      311.14249    
   3630000  -106.76175      145.90538      305.92644    
   3640000  -96.761734      142.34935      298.47035    
   3650000  -102.80997      155.59956      326.25268    
   3660000  -115.01035      149.13898      312.70648    
   3670000  -140.92073      151.45158      317.55541    
   3680000  -156.98685      163.56715      342.95867    
   3690000  -133.52517      156.06113      327.22047    
   3700000  -124.03873      132.73952      278.32099    
   3710000  -130.77255      168.54354      353.3929     
   3720000  -106.12043      135.35231      283.79935    
   3730000  -95.858228      155.88759      326.8566     
   3740000  -69.995377      153.26807      321.36413    
   3750000  -98.488726      160.34019      336.19257    
   3760000  -105.52781      148.34526      311.04224    
   3770000  -94.006854      154.03431      322.97074    
   3780000  -101.81123      153.60094      322.06208    
   3790000  -87.054602      135.99254      285.14175    
   3800000  -114.44922      147.24456      308.73437    
   3810000  -107.17974      135.25475      283.59478    
   3820000  -105.51797      168.48458      353.26928    
   3830000  -104.6479       133.58016      280.0836     
   3840000  -128.74149      150.23533      315.00526    
   3850000  -131.53034      134.60119      282.22445    
   3860000  -95.369601      137.75413      288.83535    
   3870000  -100.44081      151.4278       317.50556    
   3880000  -73.964573      129.14209      270.77809    
   3890000  -92.177194      149.12861      312.68473    
   3900000  -99.087014      138.25948      289.89494    
   3910000  -114.1021       142.91385      299.65396    
   3920000  -109.86805      140.28156      294.13473    
   3930000  -98.386012      140.17593      293.91325    
   3940000  -117.92064      143.55932      301.00735    
   3950000  -126.4501       134.87062      282.78937    
   3960000  -125.40712      132.88272      278.62123    
   3970000  -135.89327      127.74086      267.84007    
   3980000  -134.42631      144.70565      303.41091    
   3990000  -103.08695      127.73986      267.83798    
   4000000  -105.45448      145.55498      305.19174    
   4010000  -110.68273      126.2449       264.70342    
   4020000  -119.83293      134.68886      282.40826    
   4030000  -125.08009      154.49334      323.93322    
   4040000  -99.1661        142.33999      298.45072    
   4050000  -100.38979      136.68335      286.5902     
   4060000  -118.32081      155.09502      325.19478    
   4070000  -113.02112      146.5957       307.37388    
   4080000  -116.728        161.65113      338.94127    
   4090000  -94.883818      152.50076      319.75529    
   4100000  -85.562534      132.70124      278.24073    
   4110000  -114.00553      140.88561      295.40126    
   4120000  -119.65475      137.06936      287.39956    
   4130000  -109.46796      140.29759      294.16834    
   4140000  -112.34378      152.93517      320.66613    
   4150000  -103.2895       145.40484      304.87694    
   4160000  -120.66288      149.4202       313.29612    
   4170000  -98.582251      148.22748      310.79529    
   4180000  -120.10116      156.02311      327.14076    
   4190000  -92.388242      141.92501      297.58062    
   4200000  -85.558017      130.47786      273.57886    
   4210000  -106.61129      152.0395       318.78813    
   4220000  -103.93897      131.83787      276.43047    
   4230000  -103.76855      134.02094      281.0078     
   4240000  -87.20803       133.68759      280.30886    
   4250000  -117.18991      139.48489      292.46431    
   4260000  -108.41793      145.35098      304.76401    
   4270000  -132.01128      143.64874      301.19484    
   4280000  -116.82184      141.24921      296.16363    
   4290000  -116.64589      150.92558      316.45253    
   4300000  -75.937462      144.99128      304.00982    
   4310000  -105.00424      141.53151      296.75554    
   4320000  -102.15314      157.93656      331.15278    
   4330000  -81.422435      133.34917      279.59927    
   4340000  -101.88026      132.94416      278.75006    
   4350000  -97.244792      132.31469      277.43023    
   4360000  -117.97623      145.22697      304.50399    
   4370000  -122.35367      143.65486      301.20769    
   4380000  -123.40337      133.97017      280.90135    
   4390000  -116.35879      147.55606      309.38751    
   4400000  -110.95295      159.89035      335.24938    
   4410000  -103.36143      153.02491      320.85428    
   4420000  -89.127208      132.62939      278.09007    
   4430000  -92.452529      143.5254       300.93624    
   4440000  -100.93149      160.87683      337.31777    
   4450000  -91.625056      145.10692      304.25227    
   4460000  -90.075981      140.88886      295.40807    
   4470000  -104.50674      134.14262      281.26294    
   4480000  -113.03763      133.45877      279.82908    
   4490000  -120.29717      147.61227      309.50536    
   4500000  -111.32753      129.6025       271.74346    
   4510000  -92.587728      129.55759      271.64929    
   4520000  -106.43981      132.73221      278.30566    
   4530000  -92.191412      141.64016      296.98336    
   4540000  -84.633682      120.85322      253.39845    
   4550000  -100.45787      126.57061      265.38635    
   4560000  -114.45146      145.19417      304.43521    
   4570000  -120.18728      140.45367      294.49561    
   4580000  -116.49431      135.10595      283.28279    
   4590000  -100.98208      138.76375      290.95227    
   4600000  -95.775657      128.86062      270.18792    
   4610000  -100.24295      149.10596      312.63725    
   4620000  -88.777878      145.06353      304.1613     
   4630000  -113.18714      130.10221      272.79121    
   4640000  -122.61343      138.06063      289.478      
   4650000  -126.69784      154.66552      324.29424    
   4660000  -125.16306      157.32566      329.87186    
   4670000  -112.19908      116.32486      243.90362    
   4680000  -119.86112      138.67389      290.76385    
   4690000  -121.46774      157.56256      330.36859    
   4700000  -136.79784      131.39268      275.497      
   4710000  -146.22077      136.15306      285.47832    
   4720000  -105.25407      140.97476      295.58818    
   4730000  -96.302653      137.52904      288.36339    
   4740000  -88.754056      131.90077      276.56235    
   4750000  -120.40435      136.61987      286.4571     
   4760000  -126.41765      139.40824      292.3036     
   4770000  -135.05654      150.99621      316.60062    
   4780000  -113.60222      152.00329      318.71221    
   4790000  -87.658787      145.80621      305.71851    
   4800000  -121.27577      157.64792      330.54757    
   4810000  -120.49458      146.11904      306.37444    
   4820000  -119.64522      128.98186      270.44214    
   4830000  -119.74543      134.25012      281.48834    
   4840000  -143.75338      142.69662      299.19849    
   4850000  -115.27312      131.12543      274.93666    
   4860000  -104.05557      122.64419      257.15365    
   4870000  -111.97041      141.10787      295.86728    
   4880000  -127.16655      138.98369      291.41342    
   4890000  -142.9162       151.37905      317.40334    
   4900000  -135.10855      158.48119      332.29472    
   4910000  -104.47375      138.30695      289.99446    
   4920000  -100.65183      139.25365      291.97947    
   4930000  -99.664737      138.20742      289.78579    
   4940000  -102.93017      154.17903      323.27418    
   4950000  -101.11571      151.22242      317.07493    
   4960000  -101.58615      147.13593      308.5066     
   4970000  -128.14815      147.13983      308.51478    
   4980000  -104.16998      131.02135      274.71842    
   4990000  -104.61954      144.31082      302.58307    
   5000000  -100.61174      152.57664      319.91439    
   5010000  -118.90204      156.47971      328.09812    
   5020000  -130.06383      149.43864      313.3348     
   5030000  -120.96108      147.58586      309.44999    
   5040000  -122.08005      149.95341      314.41414    
   5050000  -121.66491      131.55325      275.83367    
   5060000  -123.34184      127.39078      267.10604    
   5070000  -142.18073      134.4155       281.8351     
   5080000  -112.91274      124.27595      260.57504    
   5090000  -107.12826      138.60042      290.6098     
   5100000  -132.78691      140.74984      295.11658    
   5110000  -126.12801      127.99612      268.37528    
   5120000  -128.35969      135.43169      283.96579    
   5130000  -130.97538      143.63772      301.17174    
   5140000  -122.08854      159.0415       333.46956    
   5150000  -125.39655      169.76033      355.9442     
   5160000  -105.70866      146.89722      308.00607    
   5170000  -105.2824       162.49255      340.70552    
   5180000  -109.27565      150.99251      316.59286    
   5190000  -105.3678       155.89148      326.86475    
   5200000  -96.848807      147.66297      309.61167    
   5210000  -116.93499      154.73121      324.43197    
   5220000  -156.19234      154.63183      324.22359    
   5230000  -138.12665      135.60595      284.33117    
   5240000  -129.45144      137.51926      288.3429     
   5250000  -126.49041      146.10349      306.34184    
   5260000  -124.34501      148.79028      311.97535    
   5270000  -124.09878      135.53056      284.17309    
   5280000  -119.06892      135.4018       283.90311    
   5290000  -123.90211      127.96114      268.30193    
   5300000  -110.66215      127.06807      266.4294     
   5310000  -131.48721      142.64155      299.08303    
   5320000  -138.78761      138.65907      290.73279    
   5330000  -149.23462      138.85628      291.14629    
   5340000  -133.98301      142.16771      298.08951    
   5350000  -132.11777      158.49363      332.32081    
   5360000  -132.12935      145.77756      305.65845    
   5370000  -131.2619       143.59033      301.07238    
   5380000  -105.16634      142.47683      298.73765    
   5390000  -127.80278      149.787        314.06522    
   5400000  -136.86979      135.60426      284.32761    
   5410000  -124.93904      146.43889      307.04507    
   5420000  -121.71799      148.91257      312.23176    
   5430000  -99.863631      143.87168      301.6623     
   5440000  -105.54248      132.30866      277.41758    
   5450000  -116.3657       148.77203      311.93707    
   5460000  -118.90194      128.10152      268.59628    
   5470000  -121.32166      127.9714       268.32346    
   5480000  -126.59632      146.17329      306.48818    
   5490000  -122.18618      150.36062      315.26796    
   5500000  -116.80843      142.72574      299.25954    
   5510000  -121.24666      149.69074      313.86339    
   5520000  -107.1868       148.93487      312.27852    
   5530000  -85.183153      140.34899      294.2761     
   5540000  -95.643607      142.38493      298.54495    
   5550000  -90.525954      154.36976      323.67409    
   5560000  -125.3742       156.14275      327.3916     
   5570000  -114.56426      130.4382       273.49571    
   5580000  -111.62142      124.05083      260.10301    
   5590000  -117.89554      142.25546      298.27349    
   5600000  -145.83709      132.76064      278.36526    
   5610000  -141.12071      144.13435      302.21305    
   5620000  -137.01185      141.66438      297.03415    
   5630000  -122.0389       139.65889      292.82915    
   5640000  -109.49436      166.38063      348.85783    
   5650000  -129.44672      145.36659      304.79674    
   5660000  -111.30114      157.27036      329.75592    
   5670000  -106.84244      140.79023      295.20129    
   5680000  -110.9472       143.18219      300.21662    
   5690000  -131.63212      146.0005       306.12588    
   5700000  -133.09002      144.62441      303.24057    
   5710000  -131.05549      143.48009      300.84124    
   5720000  -133.12243      152.29229      319.31818    
   5730000  -96.79103       145.44704      304.96543    
   5740000  -107.81511      161.79118      339.23492    
   5750000  -111.81415      159.78392      335.0262     
   5760000  -117.12756      139.60904      292.72461    
   5770000  -131.32196      141.81839      297.35706    
   5780000  -99.564875      144.37325      302.71397    
   5790000  -122.85839      144.76539      303.53617    
   5800000  -123.40165      138.37362      290.13427    
   5810000  -143.56171      137.01844      287.2928     
   5820000  -144.55802      141.82257      297.36583    
   5830000  -146.52291      124.58561      261.22431    
   5840000  -143.97528      135.36729      283.83075    
   5850000  -153.85202      139.32002      292.11862    
   5860000  -141.88805      139.75242      293.02525    
   5870000  -130.10835      136.41053      286.01816    
   5880000  -115.21461      155.01184      325.02037    
   5890000  -109.17169      151.48906      317.634      
   5900000  -127.84514      164.06067      343.99348    
   5910000  -123.59735      158.24631      331.80223    
   5920000  -112.01075      137.76298      288.85392    
   5930000  -114.86551      137.81706      288.9673     
   5940000  -109.86463      138.73026      290.88205    
   5950000  -133.18291      152.36657      319.47392    
   5960000  -100.44791      135.91451      284.97813    
   5970000  -134.51449      143.56206      301.0131     
   5980000  -126.51696      149.8784       314.25685    
   5990000  -152.88737      151.37121      317.38691    
   6000000  -144.84497      140.16932      293.89938    
   6010000  -145.72513      144.78267      303.57241    
   6020000  -127.05743      136.41426      286.02598    
   6030000  -122.34326      133.65775      280.24627    
   6040000  -142.928        142.5167       298.82125    
   6050000  -120.91853      143.20044      300.25487    
   6060000  -140.25931      142.49766      298.78133    
   6070000  -139.40919      132.77012      278.38516    
   6080000  -132.54214      131.04359      274.76505    
   6090000  -128.94893      135.5189       284.14864    
   6100000  -147.27923      145.80362      305.71307    
   6110000  -124.85423      136.88689      287.01696    
   6120000  -99.695523      141.73147      297.17481    
   6130000  -105.70891      147.92784      310.16702    
   6140000  -125.82869      144.31729      302.59662    
   6150000  -147.69168      137.21994      287.7153     
   6160000  -112.79872      138.49146      290.38135    
   6170000  -125.7878       151.14447      316.91149    
   6180000  -125.74917      135.42451      283.95073    
   6190000  -123.82654      135.65505      284.43412    
   6200000  -124.59184      133.94628      280.85127    
   6210000  -116.3347       139.86238      293.25581    
   6220000  -113.47487      147.33598      308.92604    
   6230000  -133.73382      125.64687      263.4495     
   6240000  -125.38149      137.87553      289.0899     
   6250000  -99.066084      131.39847      275.50915    
   6260000  -119.03473      133.39177      279.6886     
   6270000  -133.24331      140.74837      295.11351    
   6280000  -125.66315      148.0812       310.48859    
   6290000  -120.43788      132.89056      278.63768    
   6300000  -120.51748      137.55778      288.42365    
   6310000  -127.02235      144.45995      302.89574    
   6320000  -111.73531      143.64082      301.17824    
   6330000  -138.98003      143.49678      300.87623    
   6340000  -126.99171      151.00658      316.62236    
   6350000  -142.89114      151.46704      317.58784    
   6360000  -138.74092      132.7446       278.33163    
   6370000  -127.85612      120.41746      252.48476    
   6380000  -148.58393      145.27989      304.61494    
   6390000  -117.43027      145.9432       306.00575    
   6400000  -124.17674      144.0054       301.94267    
   6410000  -105.31652      153.13323      321.0814     
   6420000  -115.48375      133.02734      278.92447    
   6430000  -140.68849      155.72093      326.50716    
   6440000  -117.37282      133.47923      279.87198    
   6450000  -130.92811      150.12027      314.764      
   6460000  -103.27791      134.62449      282.27329    
   6470000  -105.02313      144.05569      302.04812    
   6480000  -104.54213      146.14288      306.42443    
   6490000  -95.382073      163.7731       343.39052    
   6500000  -115.72772      143.63772      301.17173    
   6510000  -110.57452      145.27612      304.60705    
   6520000  -132.12524      138.5064       290.41267    
   6530000  -127.26779      137.20478      287.68349    
   6540000  -154.3024       138.26639      289.90943    
   6550000  -144.78522      130.80557      274.26598    
   6560000  -145.52362      149.9254       314.3554     
   6570000  -141.03597      137.71836      288.76035    
   6580000  -134.4323       136.73795      286.70467    
   6590000  -129.52206      150.20289      314.93723    
   6600000  -138.75749      160.95285      337.47716    
   6610000  -128.17597      144.51937      303.02034    
   6620000  -119.71251      138.05741      289.47126    
   6630000  -128.29586      155.56848      326.1875     
   6640000  -136.76823      143.74624      301.39928    
   6650000  -131.36895      143.26397      300.38809    
   6660000  -133.26852      145.0936       304.22436    
   6670000  -137.10758      150.26115      315.05939    
   6680000  -107.29074      141.3396       296.35317    
   6690000  -109.18087      147.1601       308.55728    
   6700000  -124.56659      149.45448      313.36801    
   6710000  -149.25452      158.3318       331.9815     
   6720000  -124.28157      125.66966      263.49728    
   6730000  -125.05215      135.43657      283.97601    
   6740000  -112.05841      138.20719      289.78531    
   6750000  -117.99436      152.3015       319.33747    
   6760000  -118.42975      155.61738      326.29003    
   6770000  -110.76613      148.60106      311.57861    
   6780000  -118.69886      164.26988      344.43212    
   6790000  -119.87966      134.45978      281.92794    
   6800000  -110.88501      152.56709      319.89435    
   6810000  -114.0085       135.60481      284.32876    
   6820000  -124.36895      149.73735      313.96112    
   6830000  -107.52511      139.00107      291.44987    
   6840000  -126.85888      134.53241      282.08023    
   6850000  -137.28508      139.04484      291.54164    
   6860000  -140.89886      135.89509      284.93741    
   6870000  -111.17514      133.80614      280.55742    
   6880000  -128.03266      141.74039      297.19353    
   6890000  -128.92521      143.62891      301.15326    
   6900000  -136.23661      138.70676      290.83277    
   6910000  -139.37007      136.90517      287.0553     
   6920000  -136.28738      140.56424      294.72743    
   6930000  -143.76443      153.06605      320.94055    
   6940000  -123.65044      152.63686      320.04065    
   6950000  -110.70083      132.44324      277.69977    
   6960000  -121.01692      136.54055      286.29077    
   6970000  -124.69928      150.261        315.05907    
   6980000  -129.50113      138.89886      291.23557    
   6990000  -140.66814      137.18164      287.63499    
   7000000  -136.58429      137.69794      288.71753    
   7010000  -134.90973      149.96371      314.43574    
   7020000  -117.59475      137.35787      288.0045     
   7030000  -135.08084      146.98963      308.19985    
   7040000  -135.04573      137.75414      288.83538    
   7050000  -134.53215      138.33226      290.04754    
   7060000  -110.14971      131.6539       276.04472    
   7070000  -129.63164      134.71846      282.47033    
   7080000  -121.61686      117.44408      246.25035    
   7090000  -106.3292       132.50068      277.82021    
   7100000  -155.76063      139.86842      293.26848    
   7110000  -122.79857      130.60964      273.85517    
   7120000  -136.98931      136.77957      286.79194    
   7130000  -145.28782      121.39891      254.54262    
   7140000  -130.65162      140.64164      294.88972    
   7150000  -137.06785      144.16234      302.27173    
   7160000  -132.5305       138.7136       290.84711    
   7170000  -118.8399       134.7967       282.63437    
   7180000  -118.60851      140.73092      295.07693    
   7190000  -118.18561      154.26941      323.46368    
   7200000  -97.80052       143.12734      300.1016     
   7210000  -93.835621      140.39745      294.37771    
   7220000  -83.897498      133.7362       280.41076    
   7230000  -80.5165        131.0965       274.876      
   7240000  -96.319386      131.93077      276.62524    
   7250000  -108.64926      139.89755      293.32955    
   7260000  -130.68757      151.26153      317.15693    
   7270000  -120.3528       137.72748      288.77946    
   7280000  -134.18329      145.175        304.39504    
   7290000  -121.6705       142.11082      297.97022    
   7300000  -122.82988      146.79425      307.79019    
   7310000  -118.13097      143.71498      301.33373    
   7320000  -136.12474      136.27559      285.73523    
   7330000  -149.47845      152.48794      319.72839    
   7340000  -137.95142      143.65704      301.21224    
   7350000  -135.11451      146.96439      308.14692    
   7360000  -101.40487      143.19398      300.24132    
   7370000  -109.47381      155.33078      325.68911    
   7380000  -112.04172      150.85644      316.30757    
   7390000  -113.47085      162.96934      341.70522    
   7400000  -102.65615      155.48207      326.00632    
   7410000  -128.30064      145.59016      305.26551    
   7420000  -120.08423      164.12029      344.11849    
   7430000  -131.74418      143.86355      301.64526    
   7440000  -142.33829      163.18796      342.16363    
   7450000  -116.70066      129.86912      272.30249    
   7460000  -131.15986      125.48496      263.11003    
   7470000  -163.83244      141.17076      295.99915    
   7480000  -152.11802      140.85951      295.34654    
   7490000  -164.42319      128.52846      269.49147    
   7500000  -135.08501      121.70623      255.18698    
   7510000  -151.45994      130.47536      273.57363    
   7520000  -148.8644       134.6016       282.2253     
   7530000  -162.4277       140.60387      294.81052    
   7540000  -157.31539      143.36153      300.59263    
   7550000  -117.18307      134.25723      281.50324    
   7560000  -125.55367      145.24042      304.53219    
   7570000  -155.34752      142.37128      298.51633    
   7580000  -154.17838      140.45852      294.50577    
   7590000  -140.86715      136.50839      286.22334    
   7600000  -146.73156      164.02355      343.91563    
   7610000  -116.2781       139.48831      292.47149    
   7620000  -119.80989      135.97321      285.10122    
   7630000  -149.47807      142.82596      299.46969    
   7640000  -130.22767      141.62959      296.96119    
   7650000  -124.1683       131.85246      276.46104    
   7660000  -149.84502      144.63933      303.27185    
   7670000  -145.42037      140.4813       294.55354    
   7680000  -142.24662      142.73715      299.28348    
   7690000  -135.58348      134.06548      281.10119    
   7700000  -140.11963      138.62593      290.66329    
   7710000  -139.84568      146.53868      307.25431    
   7720000  -136.42643      156.05317      327.20377    
   7730000  -120.10034      137.59045      288.49216    
   7740000  -113.62958      138.41469      290.22037    
   7750000  -126.4172       136.36409      285.92078    
   7760000  -120.60243      136.50327      286.21262    
   7770000  -157.16344      151.47065      317.59541    
   7780000  -119.49421      136.01343      285.18554    
   7790000  -118.56874      146.49501      307.16274    
   7800000  -131.83432      134.40078      281.80423    
   7810000  -127.92576      131.70939      276.16106    
   7820000  -126.24454      150.2921       315.12428    
   7830000  -129.92393      133.4546       279.82034    
   7840000  -142.34401      144.79044      303.5887     
   7850000  -155.6794       132.56944      277.96437    
   7860000  -117.88336      124.15188      260.3149     
   7870000  -141.46257      142.84297      299.50534    
   7880000  -116.51445      138.47556      290.348      
   7890000  -120.15351      151.58675      317.83883    
   7900000  -117.78763      146.18058      306.50347    
   7910000  -112.28273      147.81435      309.92906    
   7920000  -112.64143      153.10294      321.0179     
   7930000  -98.296582      144.03376      302.00213    
   7940000  -90.791042      133.91259      280.78062    
   7950000  -98.557948      137.25187      287.78224    
   7960000  -119.37127      157.52752      330.29512    
   7970000  -101.4942       132.7155       278.27062    
   7980000  -105.15229      143.0511       299.94176    
   7990000  -101.49242      155.57269      326.19634    
   8000000  -106.46485      129.06764      270.62198    
   8010000  -106.87049      148.94047      312.29026    
   8020000  -88.433896      138.12198      289.60665    
   8030000  -89.448933      135.58286      284.28274    
   8040000  -114.99907      137.7782       288.88582    
   8050000  -101.69407      131.06432      274.80852    
   8060000  -112.02296      145.41782      304.90416    
   8070000  -131.78373      140.68641      294.9836     
   8080000  -112.69149      135.91811      284.98568    
   8090000  -108.89403      128.92919      270.3317     
   8100000  -116.99321      146.64643      307.48025    
   8110000  -98.934238      144.74279      303.48879    
   8120000  -107.0419       134.35666      281.71171    
   8130000  -94.497941      136.6585       286.53808    
   8140000  -106.15767      145.35402      304.77038    
   8150000  -101.2273       152.97841      320.7568     
   8160000  -112.23117      123.35337      258.64062    
   8170000  -118.37169      142.99099      299.81572    
   8180000  -108.70907      134.61759      282.25882    
   8190000  -116.55267      136.27771      285.73967    
   8200000  -104.23452      146.88948      307.98984    
   8210000  -108.26748      145.0832       304.20255    
   8220000  -153.65259      149.99904      314.50982    
   8230000  -120.98656      135.27503      283.6373     
   8240000  -123.62097      151.0842       316.78512    
   8250000  -98.665016      118.8967       249.29611    
   8260000  -101.20832      142.14238      298.0364     
   8270000  -86.007232      146.62113      307.42719    
   8280000  -95.716279      140.90946      295.45128    
   8290000  -107.99524      149.27737      312.99665    
   8300000  -109.92987      132.22738      277.24716    
   8310000  -105.17089      129.41938      271.35949    
   8320000  -83.576607      131.66294      276.06367    
   8330000  -116.37951      161.65394      338.94717    
   8340000  -103.03434      144.56117      303.10798    
   8350000  -112.7291       158.42696      332.181      
   8360000  -108.68726      132.59528      278.01856    
   8370000  -118.5604       140.82344      295.27092    
   8380000  -82.976034      123.28078      258.48842    
   8390000  -107.72799      148.93811      312.2853     
   8400000  -93.194572      135.59873      284.31603    
   8410000  -140.90895      151.50122      317.6595     
   8420000  -139.6893       146.60826      307.40022    
   8430000  -140.3803       128.73653      269.92774    
   8440000  -113.28491      147.32885      308.91109    
   8450000  -127.02207      166.12224      348.31607    
   8460000  -115.70198      143.29838      300.46023    
   8470000  -127.33278      137.08776      287.43813    
   8480000  -104.89208      150.57955      315.727      
   8490000  -116.90694      153.32877      321.49141    
   8500000  -107.2449       153.92343      322.73825    
   8510000  -106.07872      143.97951      301.88839    
   8520000  -114.16219      132.00875      276.78875    
   8530000  -113.85981      136.45256      286.10629    
   8540000  -123.68434      152.28831      319.30983    
   8550000  -126.14301      141.99458      297.72649    
   8560000  -141.9779       135.43985      283.98289    
   8570000  -113.3039       134.38118      281.76314    
   8580000  -119.75425      147.10123      308.43383    
   8590000  -105.89499      141.05103      295.74811    
   8600000  -103.09989      156.88394      328.94568    
   8610000  -96.493784      161.73619      339.11962    
   8620000  -92.581542      145.22553      304.50098    
   8630000  -104.58248      146.45533      307.07956    
   8640000  -116.03461      168.36206      353.01238    
   8650000  -98.604036      136.92932      287.10594    
   8660000  -109.33089      142.01668      297.77283    
   8670000  -105.14476      142.67534      299.15388    
   8680000  -130.02082      150.1247       314.77328    
   8690000  -134.42708      151.77266      318.22863    
   8700000  -140.46007      153.85572      322.5963     
   8710000  -129.32993      139.22254      291.91422    
   8720000  -123.73642      138.5874       290.58251    
   8730000  -128.06779      142.71932      299.2461     
   8740000  -136.01611      140.01022      293.5658     
   8750000  -150.35799      130.79488      274.24358    
   8760000  -128.66672      148.11639      310.56237    
   8770000  -135.63159      164.53311      344.98406    
   8780000  -106.9592       146.09418      306.32231    
   8790000  -105.40217      144.63354      303.25972    
   8800000  -113.51777      136.36502      285.92273    
   8810000  -127.20696      135.4381       283.97923    
   8820000  -122.61354      152.60343      319.97056    
   8830000  -115.34478      128.52084      269.47549    
   8840000  -126.76077      142.59969      298.99525    
   8850000  -118.30055      133.5161       279.94929    
   8860000  -114.7807       132.33112      277.46468    
   8870000  -108.07427      153.84977      322.5838     
   8880000  -111.23754      135.15038      283.37596    
   8890000  -121.24067      172.50418      361.69735    
   8900000  -95.455351      159.47219      334.37259    
   8910000  -106.36503      147.11938      308.47189    
   8920000  -127.25911      151.76532      318.21325    
   8930000  -125.98742      141.08861      295.8269     
   8940000  -136.85174      152.68772      320.14728    
   8950000  -143.3287       141.48616      296.66047    
   8960000  -131.88975      150.08205      314.68385    
   8970000  -115.50751      139.20971      291.88732    
   8980000  -101.42116      136.53399      286.27702    
   8990000  -95.95243       147.08766      308.4054     
   9000000  -93.821274      131.36585      275.44076    
   9010000  -121.87093      158.98245      333.34574    
   9020000  -116.93491      144.24607      302.4473     
   9030000  -108.36259      144.56546      303.11698    
   9040000  -104.90511      157.97305      331.22928    
   9050000  -110.50408      146.37612      306.91348    
   9060000  -119.09845      153.80361      322.48702    
   9070000  -109.60826      139.37297      292.22963    
   9080000  -127.1121       135.56217      284.23936    
   9090000  -121.2243       140.11788      293.79154    
   9100000  -108.81831      150.46347      315.4836     
   9110000  -120.42201      161.99013      339.65208    
   9120000  -120.34812      144.46339      302.90295    
   9130000  -124.88994      156.16329      327.43468    
   9140000  -127.7981       147.11378      308.46016    
   9150000  -114.60683      126.05369      264.30251    
   9160000  -115.07409      138.61561      290.64165    
   9170000  -139.902        146.83083      307.86688    
   9180000  -122.87911      143.72186      301.34817    
   9190000  -141.18737      147.23434      308.71293    
   9200000  -128.09531      142.58222      298.95863    
   9210000  -119.5904       140.12362      293.80358    
   9220000  -115.20991      119.42679      250.40757    
   9230000  -171.1597       133.4304       279.76959    
   9240000  -145.28983      147.91547      310.14109    
   9250000  -131.94242      139.37788      292.23994    
   9260000  -99.319268      134.90457      282.86055    
   9270000  -130.02406      133.84052      280.62951    
   9280000  -138.90173      148.94401      312.29768    
   9290000  -150.62259      161.80183      339.25726    
   9300000  -126.44808      129.4916       271.51092    
   9310000  -122.97405      148.77916      311.95203    
   9320000  -101.92588      144.31201      302.58556    
   9330000  -116.90414      141.74843      297.21039    
   9340000  -117.25585      152.82649      320.43825    
   9350000  -106.03601      140.84031      295.30629    
   9360000  -109.70108      127.3927       267.11007    
   9370000  -136.63134      131.71305      276.16874    
   9380000  -141.15665      153.30561      321.44285    
   9390000  -119.0713       138.06745      289.4923     
   9400000  -114.0275       141.91193      297.55319    
   9410000  -121.26321      151.61157      317.89088    
   9420000  -138.25162      139.35265      292.18704    
   9430000  -124.72759      130.16281      272.91829    
   9440000  -124.24959      137.69063      288.7022     
   9450000  -148.48148      146.2927       306.73857    
   9460000  -134.35912      149.09675      312.61794    
   9470000  -120.94735      153.96411      322.82354    
   9480000  -131.16128      154.09371      323.09529    
   9490000  -135.91244      160.74222      337.03552    
   9500000  -132.78287      146.63218      307.45037    
   9510000  -138.56851      146.70154      307.5958     
   9520000  -132.32416      139.8719       293.27577    
   9530000  -110.19214      144.42649      302.8256     
   9540000  -112.39343      148.85498      312.111      
   9550000  -128.43988      147.39904      309.05827    
   9560000  -135.51984      144.3842       302.73692    
   9570000  -147.42609      153.05222      320.91155    
   9580000  -131.24588      141.77934      297.27519    
   9590000  -150.06654      132.14303      277.07031    
   9600000  -133.01097      130.11864      272.82567    
   9610000  -126.99174      141.81969      297.35978    
   9620000  -120.02061      137.06213      287.3844     
   9630000  -120.23508      136.95291      287.15539    
   9640000  -90.19923       135.86903      284.88278    
   9650000  -118.54626      165.39563      346.79255    
   9660000  -102.49035      155.05575      325.11245    
   9670000  -91.146719      150.36252      315.27194    
   9680000  -99.136848      148.27228      310.88923    
   9690000  -97.067884      145.67462      305.4426     
   9700000  -108.64121      150.39616      315.34247    
   9710000  -123.02201      137.49121      288.28408    
   9720000  -134.64815      147.0693       308.3669     
   9730000  -147.1982       145.83836      305.78592    
   9740000  -139.35995      149.90722      314.31728    
   9750000  -128.72648      128.52878      269.49215    
   9760000  -98.329219      134.98272      283.02441    
   9770000  -149.24599      145.93574      305.9901     
   9780000  -122.40804      133.12295      279.12495    
   9790000  -140.86984      138.46896      290.33416    
   9800000  -136.1864       131.79026      276.33063    
   9810000  -141.82767      138.93713      291.31581    
   9820000  -144.06626      145.70354      305.50323    
   9830000  -143.96419      146.33603      306.82942    
   9840000  -140.4551       141.47425      296.6355     
   9850000  -133.47958      146.17355      306.48873    
   9860000  -126.7791       156.3369       327.79869    
   9870000  -126.06845      130.88281      274.42795    
   9880000  -108.79887      150.21404      314.9606     
   9890000  -130.65028      147.7033       309.69623    
   9900000  -134.32354      132.07842      276.93483    
   9910000  -136.8384       131.76099      276.26926    
   9920000  -146.72919      140.21202      293.98893    
   9930000  -137.64275      146.88434      307.97907    
   9940000  -120.26258      147.9261       310.16338    
   9950000  -130.85699      139.66582      292.84368    
   9960000  -120.34207      135.57305      284.26218    
   9970000  -140.9952       144.30968      302.58067    
   9980000  -136.3059       158.57922      332.50026    
   9990000  -125.39309      136.08971      285.34549    
  10000000  -101.39817      133.69899      280.33275    
  10010000  -99.219045      143.95055      301.82766    
  10020000  -116.85311      150.67407      315.92518    
  10030000  -134.08102      161.03024      337.63942    
  10040000  -128.16137      144.15878      302.26426    
  10050000  -128.03527      157.68505      330.62541    
  10060000  -119.02897      136.93661      287.12123    
  10070000  -138.86054      152.45208      319.6532     
  10080000  -142.56369      139.299        292.07456    
  10090000  -122.90673      128.34574      269.10834    
  10100000  -129.91091      129.80698      272.1722     
  10110000  -128.84628      158.5326       332.40251    
  10120000  -115.74279      131.10912      274.90246    
  10130000  -129.52133      157.75322      330.76835    
  10140000  -108.36255      152.13663      318.9918     
  10150000  -133.28952      139.64501      292.80005    
  10160000  -108.55931      146.55104      307.28022    
  10170000  -144.91857      141.89527      297.51828    
  10180000  -123.95788      135.20529      283.49108    
  10190000  -144.43178      154.72934      324.42804    
  10200000  -128.65459      142.29281      298.3518     
  10210000  -140.51451      142.13         298.01043    
  10220000  -122.37416      128.74156      269.93829    
  10230000  -143.50987      143.62174      301.13824    
  10240000  -116.69315      138.91905      291.2779     
  10250000  -118.75531      140.87207      295.37288    
  10260000  -115.66111      149.81214      314.11794    
  10270000  -107.0589       138.32906      290.04083    
  10280000  -100.09866      150.72511      316.03219    
  10290000  -88.540403      150.61368      315.79856    
  10300000  -94.007689      140.52231      294.63952    
  10310000  -132.84924      157.99804      331.28167    
  10320000  -94.733429      145.54006      305.16047    
  10330000  -111.49135      144.48633      302.95105    
  10340000  -119.95873      144.86538      303.74583    
  10350000  -101.20098      140.76826      295.15522    
  10360000  -119.34201      137.48249      288.2658     
  10370000  -112.88608      163.14771      342.07922    
  10380000  -106.77901      152.18754      319.09854    
  10390000  -103.45717      149.60054      313.67425    
  10400000  -111.34911      151.01382      316.63754    
  10410000  -131.35302      156.47634      328.09106    
  10420000  -90.242977      135.42219      283.94586    
  10430000  -90.432704      137.9336       289.21165    
  10440000  -120.67259      157.00865      329.20718    
  10450000  -109.36078      149.93273      314.37077    
  10460000  -119.56298      146.97103      308.16083    
  10470000  -114.30428      130.32136      273.25073    
  10480000  -128.61959      152.73268      320.24156    
  10490000  -119.04394      150.71646      316.01406    
  10500000  -133.10776      153.26242      321.35228    
  10510000  -131.08591      151.30426      317.24651    
  10520000  -128.50996      132.59229      278.01228    
  10530000  -130.60529      135.45208      284.00853    
  10540000  -124.80449      143.2776       300.41666    
  10550000  -124.13408      138.2093       289.78972    
  10560000  -131.93819      135.52002      284.15099    
  10570000  -134.78052      137.35308      287.99446    
  10580000  -144.45059      156.31166      327.74577    
  10590000  -113.90457      138.03981      289.43436    
  10600000  -118.10273      139.59755      292.70053    
  10610000  -110.66633      163.19282      342.17381    
  10620000  -111.28321      158.87856      333.12791    
  10630000  -132.21525      151.4728       317.5999     
  10640000  -101.32892      138.9346       291.31049    
  10650000  -88.777552      139.75059      293.02142    
  10660000  -110.01409      135.9192       284.98797    
  10670000  -126.45677      138.71691      290.85405    
  10680000  -140.25534      151.44367      317.53884    
  10690000  -121.0358       144.01642      301.96579    
  10700000  -116.89917      141.40422      296.48866    
  10710000  -131.82454      142.26895      298.30177    
  10720000  -123.73711      137.33579      287.95819    
  10730000  -116.34743      140.11528      293.78608    
  10740000  -125.50852      138.70002      290.81864    
  10750000  -122.85211      144.62514      303.24211    
  10760000  -137.86884      150.07974      314.67901    
  10770000  -118.35524      156.49338      328.12679    
  10780000  -103.63887      137.79419      288.91935    
  10790000  -112.73538      143.66465      301.2282     
  10800000  -115.10209      131.78344      276.31632    
  10810000  -147.3173       145.30778      304.67343    
  10820000  -135.19662      142.15352      298.05974    
  10830000  -135.2473       161.11446      337.81602    
  10840000  -135.6418       145.39001      304.84585    
  10850000  -109.80781      148.04955      310.42223    
  10860000  -124.04389      139.54439      292.58908    
  10870000  -123.43801      135.45348      284.01147    
  10880000  -157.64959      143.97726      301.88367    
  10890000  -156.42981      146.11769      306.3716     
  10900000  -153.58799      137.62056      288.55528    
  10910000  -135.66117      148.30173      310.95099    
  10920000  -136.59576      140.23286      294.03261    
  10930000  -123.06613      136.25697      285.69618    
  10940000  -141.15151      141.13814      295.93075    
  10950000  -151.92358      147.16991      308.57785    
  10960000  -133.02979      141.92026      297.57067    
  10970000  -145.52752      140.72316      295.06065    
  10980000  -142.61579      145.74605      305.59237    
  10990000  -115.45019      132.59593      278.01992    
  11000000  -105.30476      149.61967      313.71437    
  11010000  -92.61545       133.60195      280.12928    
  11020000  -105.19829      159.60957      334.66065    
  11030000  -115.14872      155.73873      326.54448    
  11040000  -114.10251      148.33554      311.02186    
  11050000  -124.69628      147.18249      308.60423    
  11060000  -114.25492      140.48499      294.56126    
  11070000  -119.94991      128.56136      269.56045    
  11080000  -121.49547      135.83         284.80094    
  11090000  -127.6842       149.92512      314.35483    
  11100000  -118.04458      135.65686      284.4379     
  11110000  -102.0291       143.18244      300.21714    
  11120000  -97.697768      144.568        303.12231    
  11130000  -84.277076      138.54716      290.49814    
  11140000  -96.171776      152.84887      320.48518    
  11150000  -111.98924      139.56112      292.62414    
  11160000  -94.788808      137.75502      288.83722    
  11170000  -108.50438      144.29048      302.54041    
  11180000  -102.61009      138.43523      290.26344    
  11190000  -133.37481      138.75012      290.92369    
  11200000  -116.74508      138.92361      291.28745    
  11210000  -115.5688       144.56128      303.10822    
  11220000  -136.04826      139.6789       292.87111    
  11230000  -106.55442      134.19873      281.38058    
  11240000  -111.91518      139.24292      291.95697    
  11250000  -152.16538      138.28371      289.94575    
  11260000  -126.31164      124.46885      260.9795     
  11270000  -129.82823      125.9427       264.06978    
  11280000  -134.18395      137.91988      289.18288    
  11290000  -120.47768      134.08174      281.13527    
  11300000  -118.76423      153.46202      321.7708     
  11310000  -104.77901      131.77663      276.30206    
  11320000  -97.675682      145.33423      304.72889    
  11330000  -118.44054      136.21578      285.60982    
  11340000  -105.77324      155.06961      325.1415     
  11350000  -105.12323      142.70177      299.2093     
  11360000  -108.0817       155.70841      326.4809     
  11370000  -102.79281      145.57354      305.23067    
  11380000  -116.8504       154.54821      324.04825    
  11390000  -124.87521      152.71058      320.19521    
  11400000  -104.2625       150.80615      316.2021     
  11410000  -87.856128      131.65147      276.03962    
  11420000  -117.06528      141.22681      296.11667    
  11430000  -107.62006      151.89567      318.48656    
  11440000  -126.16247      144.30571      302.57234    
  11450000  -108.00692      128.57567      269.59045    
  11460000  -107.59694      139.42041      292.32912    
  11470000  -128.96403      146.94702      308.11051    
  11480000  -98.381544      141.79603      297.31018    
  11490000  -114.09598      158.44462      332.21804    
  11500000  -136.28618      156.11332      327.32989    
  11510000  -130.07171      153.24636      321.31861    
  11520000  -90.9531        139.19775      291.86226    
  11530000  -105.08322      147.94122      310.19509    
  11540000  -113.85954      139.0722       291.59902    
  11550000  -118.50826      136.85533      286.9508     
  11560000  -125.66837      143.69804      301.29821    
  11570000  -132.91942      141.27283      296.21317    
  11580000  -144.47509      136.64044      286.50022    
  11590000  -136.69265      141.25645      296.17883    
  11600000  -132.42076      136.62239      286.46239    
  11610000  -124.47283      149.35715      313.16393    
  11620000  -129.10795      145.5304       305.14021    
  11630000  -150.08265      157.80909      330.88549    
  11640000  -145.3386       152.4065       319.55764    
  11650000  -132.36253      142.50824      298.80351    
  11660000  -128.72569      135.69266      284.51297    
  11670000  -134.54807      145.47993      305.03439    
  11680000  -104.7521       125.22955      262.5745     
  11690000  -117.98793      150.68854      315.95553    
  11700000  -112.46903      142.42486      298.62867    
  11710000  -121.02157      142.78178      299.37706    
  11720000  -125.47101      136.22759      285.63459    
  11730000  -118.95125      146.77796      307.75603    
  11740000  -116.95206      140.28761      294.14742    
  11750000  -126.21668      153.62945      322.12186    
  11760000  -125.29875      152.16651      319.05444    
  11770000  -149.63575      166.78749      349.71091    
  11780000  -129.71525      144.3797       302.72748    
  11790000  -121.52583      130.46289      273.54747    
  11800000  -122.10051      138.39483      290.17873    
  11810000  -134.99013      148.21658      310.77244    
  11820000  -115.83142      133.83084      280.60921    
  11830000  -127.33862      144.36283      302.69212    
  11840000  -134.66402      129.27437      271.05545    
  11850000  -144.79413      131.75849      276.26402    
  11860000  -140.33255      127.06019      266.41287    
  11870000  -119.91963      145.86512      305.84203    
  11880000  -131.529        150.61579      315.80298    
  11890000  -124.97474      134.08868      281.14984    
  11900000  -123.50877      135.57044      284.2567     
  11910000  -114.74026      135.22223      283.52659    
  11920000  -139.37716      125.05235      262.20295    
  11930000  -110.73132      120.22496      252.08115    
  11940000  -150.4975       133.66228      280.25577    
  11950000  -132.19687      138.75508      290.93409    
  11960000  -127.59216      139.74577      293.01132    
  11970000  -122.62238      152.5385       319.83441    
  11980000  -114.82263      157.66337      330.57996    
  11990000  -128.88804      159.74458      334.94373    
  12000000  -124.82993      158.24726      331.80422    
  12010000  -99.225828      147.90564      310.12049    
  12020000  -101.95832      140.76837      295.15545    
  12030000  -109.44173      139.89845      293.33144    
  12040000  -115.87122      138.28177      289.94168    
  12050000  -131.73902      139.89479      293.32376    
  12060000  -149.00307      149.15394      312.73785    
  12070000  -139.8022       131.79304      276.33646    
  12080000  -117.90202      145.14096      304.32365    
  12090000  -141.54082      156.92904      329.04025    
  12100000  -120.16853      141.35305      296.38136    
  12110000  -107.87339      145.42957      304.92878    
  12120000  -99.793569      150.96676      316.53888    
  12130000  -95.747311      164.57517      345.07224    
  12140000  -96.55372       174.58917      366.06905    
  12150000  -93.412138      169.83075      356.09185    
  12160000  -99.067454      152.19498      319.11414    
  12170000  -96.308414      137.10462      287.4735     
  12180000  -96.554348      147.87319      310.05244    
  12190000  -121.76651      138.30449      289.98932    
  12200000  -108.50457      136.05949      285.28211    
  12210000  -116.25724      142.21582      298.19037    
  12220000  -116.87445      130.03678      272.65402    
  12230000  -118.91929      133.26809      279.42927    
  12240000  -119.82521      142.40663      298.59045    
  12250000  -117.92499      140.68958      294.99024    
  12260000  -106.68151      139.34799      292.17726    
  12270000  -110.65957      150.95428      316.51271    
  12280000  -132.50292      154.06294      323.03077    
  12290000  -109.74055      144.52505      303.03224    
  12300000  -118.94379      143.91578      301.75477    
  12310000  -101.78055      127.77237      267.90614    
  12320000  -101.8413       148.50514      311.37748    
  12330000  -106.72545      142.4884       298.7619     
  12340000  -109.01663      143.20708      300.26881    
  12350000  -110.64391      150.19543      314.92159    
  12360000  -108.4144       149.29335      313.03016    
  12370000  -107.23325      141.65461      297.01365    
  12380000  -124.89956      145.33615      304.73291    
  12390000  -121.69418      138.3829       290.15372    
  12400000  -94.927184      165.44226      346.89031    
  12410000  -102.89765      142.12304      297.99585    
  12420000  -121.77741      154.01988      322.94049    
  12430000  -104.58872      154.63961      324.2399     
  12440000  -99.485614      171.37374      359.32711    
  12450000  -86.741827      156.61357      328.37879    
  12460000  -114.39117      147.2636       308.77429    
  12470000  -86.879207      141.32712      296.32701    
  12480000  -117.5423       141.2848       296.23827    
  12490000  -106.50008      131.3943       275.50039    
  12500000  -121.06203      144.31849      302.59914    
  12510000  -108.8634       129.60737      271.75367    
  12520000  -106.4698       150.74035      316.06416    
  12530000  -99.586891      144.40772      302.78623    
  12540000  -106.83554      156.40105      327.93319    
  12550000  -120.85767      146.09575      306.3256     
  12560000  -125.72872      153.54911      321.95341    
  12570000  -114.12728      141.40464      296.48954    
  12580000  -102.57539      133.57674      280.07642    
  12590000  -129.95469      156.62191      328.39629    
  12600000  -112.76611      158.64473      332.63762    
  12610000  -122.92638      145.72296      305.54396    
  12620000  -114.53917      151.57575      317.81576    
  12630000  -121.03847      165.13831      346.25301    
  12640000  -105.13634      149.2172       312.8705     
  12650000  -114.53562      139.43999      292.37016    
  12660000  -136.47241      149.94906      314.40501    
  12670000  -137.32334      140.36012      294.29944    
  12680000  -125.25807      141.5019       296.69347    
  12690000  -132.51214      139.1526       291.76759    
  12700000  -102.88819      153.35967      321.5562     
  12710000  -109.15999      138.31031      290.00151    
  12720000  -124.03547      147.02395      308.2718     
  12730000  -107.90347      147.78992      309.87784    
  12740000  -102.33181      154.56475      324.08295    
  12750000  -127.48541      153.41061      321.663      
  12760000  -115.35003      151.23657      317.10459    
  12770000  -125.75625      156.53053      328.20467    
  12780000  -101.01661      138.79477      291.01731    
  12790000  -101.71841      138.85278      291.13895    
  12800000  -146.23689      142.06495      297.87404    
  12810000  -128.53283      142.71774      299.24277    
  12820000  -128.19922      131.18404      275.05955    
  12830000  -129.07356      140.1691       293.89893    
  12840000  -109.8303       134.25123      281.49066    
  12850000  -113.32073      139.44236      292.37514    
  12860000  -120.48939      138.15417      289.67414    
  12870000  -114.9931       135.22674      283.53606    
  12880000  -128.44429      134.46827      281.94574    
  12890000  -132.27622      150.15627      314.83947    
  12900000  -113.74256      148.46692      311.29734    
  12910000  -125.11921      139.28016      292.03505    
  12920000  -110.08882      143.48468      300.85085    
  12930000  -97.221802      149.55857      313.58626    
  12940000  -93.568733      143.00946      299.85443    
  12950000  -78.540602      162.41965      340.55266    
  12960000  -102.1133       153.07614      320.9617     
  12970000  -99.718909      136.45314      286.10751    
  12980000  -114.30925      132.32083      277.44311    
  12990000  -137.03006      144.23428      302.42258    
  13000000  -137.05939      151.99311      318.69086    
  13010000  -141.75882      137.12547      287.51721    
  13020000  -155.91707      151.57404      317.81218    
  13030000  -150.3383       143.66716      301.23346    
  13040000  -138.1915       131.69748      276.13609    
  13050000  -146.59289      150.05436      314.62579    
  13060000  -126.99945      133.44822      279.80694    
  13070000  -130.51992      145.39907      304.86483    
  13080000  -133.15734      149.61054      313.69521    
  13090000  -134.68456      143.03416      299.90624    
  13100000  -108.91074      142.96516      299.76156    
  13110000  -112.53409      140.28087      294.13328    
  13120000  -121.34669      149.29117      313.02558    
  13130000  -126.61712      149.12986      312.68735    
  13140000  -108.21491      150.10422      314.73034    
  13150000  -119.52825      139.30546      292.08809    
  13160000  -126.17056      150.6674       315.91119    
  13170000  -129.72942      144.282        302.52262    
  13180000  -134.26134      133.55983      280.04096    
[...]
  46760000  -107.71948      135.27664      283.64068    
  46770000  -109.51113      155.84286      326.76281    
  46780000  -117.63195      149.45768      313.37472    
  46790000  -134.81232      152.7778       320.33615    
  46800000  -135.26065      148.9724       312.35721    
  46810000  -114.97314      133.70648      280.34845    
  46820000  -117.31084      143.94411      301.81415    
  46830000  -129.36241      152.60937      319.98301    
  46840000  -125.03483      136.74262      286.71446    
  46850000  -120.30574      139.86501      293.26133    
  46860000  -125.39335      146.15634      306.45264    
  46870000  -119.99612      146.42878      307.02388    
  46880000  -111.29016      131.27324      275.24657    
  46890000  -138.13887      138.97376      291.39261    
  46900000  -138.46054      126.07675      264.35087    
  46910000  -131.23635      137.61177      288.53686    
  46920000  -130.14821      154.9085       324.80371    
  46930000  -120.49269      133.74074      280.4203     
  46940000  -137.78244      151.53617      317.73279    
  46950000  -152.98561      158.88862      333.149      
  46960000  -133.42721      138.89243      291.22208    
  46970000  -114.8409       136.02135      285.20216    
  46980000  -95.642992      128.36079      269.13991    
  46990000  -109.89458      154.50503      323.95772    
  47000000  -118.15587      154.47668      323.89829    
  47010000  -111.46193      141.77929      297.27508    
  47020000  -106.09737      154.19346      323.30445    
  47030000  -95.102921      147.62901      309.54045    
  47040000  -95.897894      148.95106      312.31247    
  47050000  -88.8121        148.61165      311.60081    
  47060000  -93.337212      139.59286      292.6907     
  47070000  -85.064286      142.48577      298.7564     
  47080000  -96.766831      144.11898      302.18083    
  47090000  -104.55212      157.41409      330.05728    
  47100000  -99.626222      137.64684      288.61039    
  47110000  -130.15498      151.49567      317.64786    
  47120000  -113.31187      139.24072      291.95234    
  47130000  -126.90487      139.25999      291.99276    
  47140000  -126.17049      133.39244      279.68999    
  47150000  -115.35534      131.13318      274.9529     
  47160000  -96.934175      138.4349       290.26276    
  47170000  -124.56827      150.71398      316.00885    
  47180000  -144.40821      166.67741      349.48012    
  47190000  -124.18567      150.76687      316.11975    
  47200000  -95.093037      128.46853      269.36581    
  47210000  -104.04017      119.40831      250.36883    
  47220000  -123.70423      148.6281       311.6353     
  47230000  -122.67074      129.31837      271.1477     
  47240000  -124.9201       138.8118       291.05301    
  47250000  -133.15689      147.3068       308.86487    
  47260000  -145.64168      146.08245      306.29773    
  47270000  -123.25311      134.95709      282.97068    
  47280000  -144.68443      145.05174      304.13658    
  47290000  -121.129        139.74215      293.00371    
  47300000  -133.76315      156.48762      328.11471    
  47310000  -127.80077      146.02651      306.18042    
  47320000  -100.29946      135.14452      283.36366    
  47330000  -107.76805      135.73807      284.60818    
  47340000  -116.06948      149.03177      312.4817     
  47350000  -125.6967       143.32181      300.50936    
  47360000  -121.97607      138.63021      290.67227    
  47370000  -100.86812      143.31803      300.50143    
  47380000  -128.87439      153.99634      322.89114    
  47390000  -141.32778      144.86013      303.73482    
  47400000  -114.42868      143.02507      299.88717    
  47410000  -117.34924      149.42201      313.29993    
  47420000  -106.40669      154.43981      323.82097    
  47430000  -130.61281      154.3619       323.65761    
  47440000  -119.38766      132.02671      276.82641    
  47450000  -132.82539      140.17965      293.92104    
  47460000  -109.05975      146.78365      307.76795    
  47470000  -105.90574      137.37216      288.03446    
  47480000  -112.49018      148.55942      311.49129    
  47490000  -100.20875      161.67415      338.98955    
  47500000  -102.16052      154.99866      324.99274    
  47510000  -101.02739      144.82475      303.66064    
  47520000  -121.41907      145.38439      304.83407    
  47530000  -128.65109      141.19654      296.0532     
  47540000  -117.43459      134.68345      282.39691    
  47550000  -132.80602      136.85653      286.95331    
  47560000  -116.41738      133.69196      280.31802    
  47570000  -137.18156      159.56283      334.56265    
  47580000  -119.14762      156.07298      327.24532    
  47590000  -127.79179      140.30494      294.18374    
  47600000  -106.7206       132.74992      278.3428     
  47610000  -100.93836      137.52831      288.36186    
  47620000  -121.84885      136.10967      285.38734    
  47630000  -128.43567      144.94015      303.9026     
  47640000  -112.48541      150.49309      315.54571    
  47650000  -105.19529      145.70069      305.49725    
  47660000  -125.853        145.87423      305.86113    
  47670000  -122.62368      141.21334      296.08843    
  47680000  -123.01073      128.64296      269.73154    
  47690000  -127.95894      134.70815      282.44871    
  47700000  -128.73677      149.66868      313.81713    
  47710000  -121.34447      152.02317      318.7539     
  47720000  -114.96145      150.06197      314.64175    
  47730000  -128.42534      143.97251      301.87372    
  47740000  -96.087861      130.26474      273.13201    
  47750000  -132.24403      145.96823      306.05822    
  47760000  -116.94708      142.50959      298.80634    
  47770000  -115.46186      139.96955      293.48051    
  47780000  -113.57151      135.67158      284.46877    
  47790000  -104.6645       138.42875      290.24985    
  47800000  -103.86408      125.42911      262.99293    
  47810000  -109.83972      152.03424      318.7771     
  47820000  -111.58819      139.1993       291.86551    
  47830000  -114.16586      152.09922      318.91336    
  47840000  -101.60229      147.15276      308.54189    
  47850000  -105.94892      139.818        293.16276    
  47860000  -112.32392      148.92569      312.25926    
  47870000  -117.32313      164.75468      345.44863    
  47880000  -111.34864      149.74495      313.97705    
  47890000  -103.27758      141.79935      297.31715    
  47900000  -109.2715       153.22932      321.28288    
  47910000  -112.7583       144.85147      303.71667    
  47920000  -108.44835      140.119        293.79388    
  47930000  -100.04715      144.12358      302.19046    
  47940000  -115.47545      138.95597      291.35529    
  47950000  -120.42506      137.93806      289.22101    
  47960000  -133.63296      129.05773      270.60122    
  47970000  -116.56402      146.70686      307.60694    
  47980000  -103.53064      153.09015      320.99109    
  47990000  -103.9024       153.02713      320.85894    
  48000000  -117.97663      150.14629      314.81856    
  48010000  -88.524625      154.61716      324.19282    
  48020000  -90.193305      153.32144      321.47604    
  48030000  -77.750719      161.43308      338.48408    
  48040000  -111.10784      160.43783      336.39729    
  48050000  -96.638985      143.88168      301.68327    
  48060000  -122.82373      143.04348      299.92578    
  48070000  -130.81778      138.80564      291.04009    
  48080000  -110.14299      139.69395      292.90266    
  48090000  -97.649252      130.1176       272.82349    
  48100000  -111.29562      146.96647      308.15129    
  48110000  -116.07311      137.73307      288.79118    
  48120000  -95.948828      143.74747      301.40187    
  48130000  -106.48221      139.37836      292.24095    
  48140000  -102.4863       141.12221      295.89735    
  48150000  -91.248626      141.34032      296.35468    
  48160000  -87.612806      147.35968      308.97575    
  48170000  -91.688859      130.48955      273.60338    
  48180000  -104.55951      135.82991      284.80074    
  48190000  -106.09492      160.44251      336.40711    
  48200000  -108.81058      152.42545      319.59738    
  48210000  -113.2017       152.20178      319.1284     
  48220000  -118.39747      148.0221       310.36468    
  48230000  -95.807051      142.76791      299.34797    
  48240000  -104.77172      159.57814      334.59473    
  48250000  -90.688806      138.00155      289.35413    
  48260000  -115.3694       153.88626      322.66031    
  48270000  -103.42836      138.50771      290.41541    
  48280000  -137.25159      131.67059      276.07972    
  48290000  -131.21283      143.84214      301.60036    
  48300000  -131.10149      149.02963      312.4772     
  48310000  -93.48701       137.58329      288.47714    
  48320000  -104.96629      145.44164      304.95409    
  48330000  -96.628882      166.10804      348.28628    
  48340000  -101.2902       140.58905      294.77945    
  48350000  -103.28084      139.89655      293.32746    
  48360000  -89.099085      132.22758      277.24757    
  48370000  -98.489748      136.8074       286.85029    
  48380000  -101.98737      132.69275      278.22293    
  48390000  -128.45869      149.42566      313.30758    
  48400000  -117.65545      143.09269      300.02896    
  48410000  -119.98129      128.37062      269.16051    
  48420000  -119.68326      149.45433      313.36768    
  48430000  -123.3667       150.13798      314.80112    
  48440000  -115.14762      141.53426      296.76132    
  48450000  -137.41445      128.52051      269.47481    
  48460000  -129.47718      137.79476      288.92055    
  48470000  -140.81162      150.95161      316.5071     
  48480000  -122.49355      123.82845      259.63674    
  48490000  -97.52365       132.98506      278.83582    
  48500000  -114.26321      140.30782      294.1898     
  48510000  -121.18822      148.96119      312.3337     
  48520000  -118.22515      132.6836       278.20373    
  48530000  -113.55159      126.49853      265.23522    
  48540000  -110.11915      138.08527      289.52966    
  48550000  -121.17538      146.38475      306.93157    
  48560000  -131.52586      147.80982      309.91956    
  48570000  -114.02317      138.88117      291.19847    
  48580000  -119.01672      133.56484      280.05146    
  48590000  -100.86934      139.66524      292.84245    
  48600000  -106.30344      142.71138      299.22943    
  48610000  -100.07988      141.1862       296.03152    
  48620000  -104.65873      145.68779      305.47021    
  48630000  -103.07144      141.01421      295.67091    
  48640000  -124.69435      149.27866      312.99936    
  48650000  -108.78219      147.45168      309.16865    
  48660000  -101.98059      154.99181      324.97837    
  48670000  -85.157074      140.99571      295.63211    
  48680000  -103.21316      144.20347      302.35798    
  48690000  -108.41885      153.19922      321.21977    
  48700000  -116.31151      147.11287      308.45825    
  48710000  -96.657171      137.4154       288.12512    
  48720000  -109.80785      135.76348      284.66145    
  48730000  -117.77535      133.54         279.99939    
  48740000  -122.67869      144.26603      302.48915    
  48750000  -125.60496      132.7908       278.42852    
  48760000  -92.569032      126.876        266.02668    
  48770000  -105.11979      149.67172      313.8235     
  48780000  -102.84315      126.82036      265.91003    
  48790000  -124.81577      136.04743      285.25683    
  48800000  -107.15058      155.13783      325.28453    
  48810000  -121.27837      137.1921       287.65692    
  48820000  -153.73123      148.21662      310.77253    
  48830000  -139.49093      126.17169      264.54993    
  48840000  -144.66994      126.23501      264.68269    
  48850000  -137.32922      143.21337      300.28198    
  48860000  -106.13855      124.29955      260.62453    
  48870000  -107.08581      147.40548      309.07178    
  48880000  -92.24748       136.50273      286.21147    
  48890000  -100.41433      153.48043      321.8094     
  48900000  -110.75626      140.90964      295.45165    
  48910000  -128.59519      140.64697      294.9009     
  48920000  -140.34238      133.2925       279.48045    
  48930000  -132.5673       129.2829       271.07334    
  48940000  -110.16954      137.39513      288.08263    
  48950000  -115.17752      137.77809      288.88559    
  48960000  -103.02291      146.80477      307.81223    
  48970000  -105.19346      135.00415      283.06935    
  48980000  -112.11022      142.8952       299.61486    
  48990000  -111.28579      131.18751      275.06683    
  49000000  -115.37562      140.69232      294.99598    
  49010000  -133.45491      160.20163      335.90204    
  49020000  -118.0212       147.17827      308.59536    
  49030000  -124.42746      148.80501      312.00623    
  49040000  -108.91164      137.27971      287.84061    
  49050000  -115.35415      146.50536      307.18446    
  49060000  -105.9215       134.32185      281.63872    
  49070000  -108.17141      148.36312      311.07971    
  49080000  -118.59733      132.59385      278.01555    
  49090000  -138.46214      148.15516      310.64367    
  49100000  -111.49385      138.0767       289.5117     
  49110000  -120.9272       151.78573      318.25605    
  49120000  -118.07472      139.76855      293.05907    
  49130000  -114.24851      141.52778      296.74773    
  49140000  -124.78312      132.09794      276.97576    
  49150000  -122.78002      128.19654      268.79552    
  49160000  -147.78699      158.50988      332.35487    
  49170000  -104.81231      143.08028      300.00293    
  49180000  -112.22566      138.86548      291.16556    
  49190000  -141.43955      137.31242      287.90919    
  49200000  -121.41474      153.81046      322.50139    
  49210000  -125.58352      147.57991      309.43751    
  49220000  -127.46315      142.17082      298.09602    
  49230000  -148.88597      144.78424      303.57571    
  49240000  -136.92406      133.72548      280.38831    
  49250000  -141.68936      133.24171      279.37395    
  49260000  -108.78989      125.54748      263.24112    
  49270000  -136.26941      145.14297      304.32786    
  49280000  -128.49824      151.66113      317.99478    
  49290000  -138.1274       148.00004      310.31841    
  49300000  -136.24416      141.15269      295.96126    
  49310000  -139.55859      142.23171      298.22371    
  49320000  -122.98996      146.59301      307.36822    
  49330000  -115.17906      142.56125      298.91465    
  49340000  -96.20639       151.50113      317.65932    
  49350000  -107.96068      154.04918      323.00192    
  49360000  -118.66075      162.18583      340.06241    
  49370000  -95.04396       131.65635      276.04986    
  49380000  -124.6842       153.61309      322.08754    
  49390000  -138.4956       161.56655      338.76394    
  49400000  -135.76974      138.99681      291.44093    
  49410000  -138.25602      135.03661      283.1374     
  49420000  -142.99639      145.82871      305.76569    
  49430000  -147.98387      157.05425      329.3028     
  49440000  -140.74809      135.31774      283.72687    
  49450000  -143.60363      140.75808      295.13387    
  49460000  -155.44941      150.1835       314.89657    
  49470000  -122.40887      124.59871      261.25178    
  49480000  -119.74177      146.82871      307.86244    
  49490000  -110.72183      148.87457      312.15208    
  49500000  -129.83079      149.663        313.80523    
  49510000  -127.16472      137.16077      287.59122    
  49520000  -133.92846      138.70228      290.82337    
  49530000  -107.05785      137.26118      287.80176    
  49540000  -101.95436      158.66013      332.66991    
  49550000  -98.752594      157.74438      330.74981    
  49560000  -123.92215      164.04233      343.95502    
  49570000  -126.94364      139.82538      293.17823    
  49580000  -117.66017      147.20226      308.64566    
  49590000  -116.12496      155.98577      327.06246    
  49600000  -124.9397       166.32114      348.73311    
  49610000  -136.40653      144.32371      302.61009    
  49620000  -155.34762      155.36814      325.76745    
  49630000  -130.21076      135.37094      283.8384     
  49640000  -131.46908      152.08888      318.89167    
  49650000  -97.431297      142.54506      298.88072    
  49660000  -109.14979      134.80168      282.64482    
  49670000  -137.36535      145.85258      305.81574    
  49680000  -128.55171      129.72179      271.99358    
  49690000  -118.69831      148.03633      310.39452    
  49700000  -130.33108      152.88461      320.56011    
  49710000  -137.01825      136.39121      285.97765    
  49720000  -122.25719      149.64839      313.77458    
  49730000  -131.34599      144.3103       302.58196    
  49740000  -138.31752      147.15026      308.53664    
  49750000  -137.41147      148.70505      311.79664    
  49760000  -129.84436      124.78787      261.6484     
  49770000  -163.98998      141.77675      297.26977    
  49780000  -150.50253      134.21623      281.41727    
  49790000  -148.15342      128.005        268.3939     
  49800000  -149.63335      137.66381      288.64597    
  49810000  -137.65041      153.16124      321.14013    
  49820000  -141.29914      138.79089      291.00917    
  49830000  -139.62542      157.58506      330.41576    
  49840000  -127.50662      146.69765      307.58763    
  49850000  -152.56762      148.32695      311.00385    
  49860000  -134.1279       127.5759       267.49419    
  49870000  -129.04063      143.64149      301.17965    
  49880000  -131.89685      149.58766      313.64725    
  49890000  -156.59705      144.2144       302.3809     
  49900000  -143.50212      140.61025      294.8239     
  49910000  -157.47489      148.3832       311.12181    
  49920000  -131.17703      138.07895      289.51641    
  49930000  -138.01392      151.16339      316.95115    
  49940000  -134.48994      137.47409      288.24818    
  49950000  -147.56898      136.02538      285.21059    
  49960000  -117.9692       134.90789      282.86751    
  49970000  -141.69189      140.38761      294.35708    
  49980000  -132.73583      148.6139       311.60552    
  49990000  -126.73975      140.56797      294.73526    
  50000000  -138.5117       132.53986      277.90235    
Loop time of 8494.65 on 1 procs for 50000000 steps with 161 atoms

Performance: 5085.554 ns/day, 0.005 hours/ns, 5886.058 timesteps/s, 947.655 katom-step/s
99.5% CPU use with 1 MPI tasks x 1 OpenMP threads

MPI task timing breakdown:
Section |  min time  |  avg time  |  max time  |%varavg| %total
---------------------------------------------------------------
Pair    | 7866.5     | 7866.5     | 7866.5     |   0.0 | 92.61
Bond    | 395.27     | 395.27     | 395.27     |   0.0 |  4.65
Neigh   | 34.345     | 34.345     | 34.345     |   0.0 |  0.40
Comm    | 24.293     | 24.293     | 24.293     |   0.0 |  0.29
Output  | 2.3619     | 2.3619     | 2.3619     |   0.0 |  0.03
Modify  | 160.98     | 160.98     | 160.98     |   0.0 |  1.90
Other   |            | 10.89      |            |       |  0.13

Nlocal:            161 ave         161 max         161 min
Histogram: 1 0 0 0 0 0 0 0 0 0
Nghost:              0 ave           0 max           0 min
Histogram: 1 0 0 0 0 0 0 0 0 0
Neighs:           2412 ave        2412 max        2412 min
Histogram: 1 0 0 0 0 0 0 0 0 0

Total # of neighbors = 2412
Ave neighs/atom = 14.981366
Ave special neighs/atom = 5.9254658
Neighbor list builds = 128340
Dangerous builds = 0
write_data outputs/${tag}_final.data
write_data outputs/config_4GXY_A.dat_final.data
System init for write_data ...
Generated 0 of 6 mixed pair_coeff terms from geometric mixing rule
Total wall time: 2:21:34
