
# sampling strides
variable dump_stride   equal 10000
variable thermo_stride equal 10000

# bonded terms
bond_style harmonic
bond_coeff 1 7.5 5.9

angle_style harmonic
angle_coeff 1 5.0 150.0

# nonbonded and base-pair terms
pair_style hybrid/overlay lj/cut 10.0 base/rna 18.0

# WCA-LJ (excluded volume)
pair_coeff * * lj/cut 2.0 8.9089871814
pair_modify shift yes

# Base-pair interactions (A-1, C-2, G-3, U-4)
pair_coeff 1 1 base/rna 0.00000 3.0 13.8 1.5 0.5 1.8326 0.9425 1.8326 1.1345 #AA
pair_coeff 1 2 base/rna 0.00000 3.0 13.8 1.5 0.5 1.8326 0.9425 1.8326 1.1345 #AC
pair_coeff 1 3 base/rna 0.00000 3.0 13.8 1.5 0.5 1.8326 0.9425 1.8326 1.1345 #AG
pair_coeff 1 4 base/rna 3.33333 3.0 13.8 1.5 0.5 1.8326 0.9425 1.8326 1.1345 #AU
pair_coeff 2 2 base/rna 0.00000 3.0 13.8 1.5 0.5 1.8326 0.9425 1.8326 1.1345 #CC
pair_coeff 2 3 base/rna 5.00000 3.0 13.8 1.5 0.5 1.8326 0.9425 1.8326 1.1345 #CG
pair_coeff 2 4 base/rna 0.00000 3.0 13.8 1.5 0.5 1.8326 0.9425 1.8326 1.1345 #CU
pair_coeff 3 3 base/rna 0.00000 3.0 13.8 1.5 0.5 1.8326 0.9425 1.8326 1.1345 #GG
pair_coeff 3 4 base/rna 3.33333 3.0 13.8 1.5 0.5 1.8326 0.9425 1.8326 1.1345 #GU
pair_coeff 4 4 base/rna 0.00000 3.0 13.8 1.5 0.5 1.8326 0.9425 1.8326 1.1345 #UU

special_bonds lj 0.0 0.0 1.0
Finding 1-2 1-3 1-4 neighbors ...
  special bond factors lj:    0        0        1       
  special bond factors coul:  0        0        0       
     2 = max # of 1-2 neighbors
     2 = max # of 1-3 neighbors
     4 = max # of 1-4 neighbors
     6 = max # of special neighbors
  special bonds CPU = 0.000 seconds

velocity        all create ${myTemp} ${randomSeed}
velocity        all create 298 ${randomSeed}
velocity        all create 298 2347

neighbor  15.0 bin
neigh_modify  every 10 delay 0
comm_style    tiled

timestep      10
timer timeout 00:05:00
New timer settings: style=normal  mode=nosync  timeout=00:05:00

fix           fxnve   all nve
fix           fxlange all langevin ${myTemp} ${myTemp} 100000.0 43165
fix           fxlange all langevin 298 ${myTemp} 100000.0 43165
fix           fxlange all langevin 298 298 100000.0 43165
fix           fxbal   all balance 1000 1.05 rcb

dump          1 all custom ${dump_stride} outputs/${tag}_${myTemp}_nvt.lammpstrj id mol type q xu yu zu
dump          1 all custom 10000 outputs/${tag}_${myTemp}_nvt.lammpstrj id mol type q xu yu zu
dump          1 all custom 10000 outputs/config_single.dat_${myTemp}_nvt.lammpstrj id mol type q xu yu zu
dump          1 all custom 10000 outputs/config_single.dat_298_nvt.lammpstrj id mol type q xu yu zu
dump_modify   1 sort id

thermo_style  custom step pe ke temp
thermo        ${thermo_stride}
thermo        10000
thermo_modify flush yes

# optional averaged thermo
variable       vpe equal pe
variable       vke equal ke
variable       vT  equal temp
variable       stride10 equal ${thermo_stride}*10
variable       stride10 equal 10000*10
fix            fa all ave/time ${thermo_stride} 10 ${stride10} v_vpe v_vke v_vT file outputs/thermo_${tag}_averaged.dat
fix            fa all ave/time 10000 10 ${stride10} v_vpe v_vke v_vT file outputs/thermo_${tag}_averaged.dat
fix            fa all ave/time 10000 10 100000 v_vpe v_vke v_vT file outputs/thermo_${tag}_averaged.dat
fix            fa all ave/time 10000 10 100000 v_vpe v_vke v_vT file outputs/thermo_config_single.dat_averaged.dat

run 50000000

CITE-CITE-CITE-CITE-CITE-CITE-CITE-CITE-CITE-CITE-CITE-CITE-CITE

Your simulation uses code contributions which should be cited:

- Type Label Framework: https://doi.org/10.1021/acs.jpcb.3c08419

@Article{Gissinger24,
 author = {Jacob R. Gissinger, Ilia Nikiforov, Yaser Afshar, Brendon Waters, Moon-ki Choi, Daniel S. Karls, Alexander Stukowski, Wonpil Im, Hendrik Heinz, Axel Kohlmeyer, and Ellad B. Tadmor},
 title = {Type Label Framework for Bonded Force Fields in LAMMPS},
 journal = {J. Phys. Chem. B},
 year =    2024,
 volume =  128,
 number =  13,
 pages =   {3282–-3297}
}

CITE-CITE-CITE-CITE-CITE-CITE-CITE-CITE-CITE-CITE-CITE-CITE-CITE

Generated 0 of 6 mixed pair_coeff terms from geometric mixing rule
Neighbor list info ...
  update: every = 10 steps, delay = 0 steps, check = yes
  max neighbors/atom: 2000, page size: 100000
  master list distance cutoff = 33
  ghost atom cutoff = 33
  binsize = 16.5, bins = 61 61 61
  2 neighbor lists, perpetual/occasional/extra = 2 0 0
  (1) pair lj/cut, perpetual, trim from (2)
      attributes: half, newton on, cut 25
      pair build: trim
      stencil: none
      bin: none
  (2) pair base/rna, perpetual
      attributes: half, newton on
      pair build: half/bin/newton
      stencil: half/bin/3d
      bin: standard
Per MPI rank memory allocation (min/avg/max) = 8.383 | 8.383 | 8.383 Mbytes
   Step         PotEng         KinEng          Temp     
         0   32.898681      22.207035      298          
     10000   21.160192      22.007187      295.31821    
     20000   17.480414      23.453716      314.72942    
     30000   16.218346      19.35857       259.77597    
     40000   21.104433      25.316994      339.73307    
     50000   17.477326      28.659886      384.59191    
     60000   14.624847      27.286275      366.15919    
     70000   15.78119       22.868682      306.87876    
     80000   7.2283363      28.137369      377.58017    
     90000   13.882455      22.873356      306.94148    
    100000   4.2203018      25.725453      345.21426    
    110000  -0.17192177     21.806168      292.6207     
    120000  -12.003767      24.182304      324.50647    
    130000  -12.055936      30.365855      407.4846     
    140000  -8.1324458      21.101153      283.15998    
    150000  -9.9775772      18.226562      244.58536    
    160000  -9.9179045      23.434251      314.46822    
    170000  -15.346383      20.866052      280.00512    
    180000  -10.62664       19.875059      266.70681    
    190000  -18.646261      22.337771      299.75437    
    200000  -5.8965012      21.894001      293.79935    
    210000  -12.84731       31.761631      426.21476    
    220000  -7.9528775      21.754811      291.93153    
    230000  -16.845996      25.206281      338.2474     
    240000  -19.61411       19.604463      263.07564    
    250000  -14.916095      23.095292      309.91968    
    260000  -6.5961563      17.862911      239.70546    
    270000  -8.9352388      20.923153      280.77136    
    280000  -6.0585782      22.382228      300.35094    
    290000  -15.674081      17.987304      241.37471    
    300000  -9.2548332      22.127418      296.93161    
    310000  -1.1252472      23.314757      312.86471    
    320000  -7.6561079      28.536161      382.93163    
    330000  -15.87834       27.56211       369.86068    
    340000  -15.24552       21.713623      291.37882    
    350000  -14.281447      29.037954      389.66527    
    360000  -12.622928      29.505309      395.93679    
    370000   0.24599041     20.690443      277.64859    
    380000  -12.434917      22.840877      306.50564    
    390000  -7.9079166      21.951537      294.57144    
    400000  -6.4763537      25.908219      347.66683    
    410000  -12.989573      24.933047      334.58083    
    420000  -4.7072353      25.424908      341.18119    
    430000  -4.6394599      23.243896      311.91382    
    440000  -9.7397074      28.028523      376.11954    
    450000   5.2499405      19.85398       266.42396    
    460000   0.23363415     20.232623      271.50503    
    470000  -17.077512      21.045766      282.41673    
    480000  -13.206376      21.051712      282.49653    
    490000  -15.13535       27.461129      368.50558    
    500000  -19.40098       27.005785      362.39525    
    510000  -15.443488      22.720314      304.88779    
    520000  -13.332598      23.060526      309.45315    
    530000  -4.382247       22.844122      306.54919    
    540000  -4.6636781      23.961173      321.53908    
    550000  -12.493816      23.271612      312.28574    
    560000  -11.011986      24.314446      326.27971    
    570000  -11.381359      24.932623      334.57514    
    580000  -12.094958      19.824348      266.02631    
    590000  -14.787544      21.518072      288.75469    
    600000  -11.586981      21.203718      284.53632    
    610000  -13.6941        23.126702      310.34117    
    620000  -13.781722      20.289335      272.26606    
    630000  -11.186477      27.721994      372.00618    
    640000  -13.085423      19.385271      260.13427    
    650000  -10.835213      18.826223      252.63231    
    660000  -8.4848899      22.428987      300.97841    
    670000  -2.3293779      20.668136      277.34926    
    680000  -11.612301      24.618913      330.36541    
    690000  -10.160171      26.460494      355.0779     
    700000  -4.7461761      17.998581      241.52604    
    710000  -10.037501      31.322284      420.31909    
    720000  -11.476115      23.353007      313.378      
    730000  -8.8239694      21.497635      288.48044    
    740000  -5.1279726      27.892598      374.29555    
    750000  -2.5077236      24.762333      332.28999    
    760000  -13.368725      26.283591      352.70401    
    770000  -14.896402      23.57004       316.2904     
    780000  -8.4654628      19.538889      262.1957     
    790000  -9.3450498      23.114347      310.17537    
    800000  -15.401645      17.899316      240.19399    
    810000  -15.370554      22.91827       307.54419    
    820000  -7.25889        21.782217      292.29929    
    830000  -9.3073243      27.223594      365.31806    
    840000  -13.594116      26.122432      350.54139    
    850000  -15.856769      22.262719      298.74723    
    860000  -14.702948      16.807381      225.54113    
    870000  -18.645304      19.800019      265.69984    
    880000  -10.841976      20.628409      276.81615    
    890000  -12.198156      24.195786      324.68739    
    900000  -1.0161315      25.048895      336.13541    
    910000  -1.0103696      28.020692      376.01446    
    920000  -6.3293008      28.077768      376.78038    
    930000  -13.56392       24.173746      324.39163    
    940000  -5.3185208      28.832343      386.90614    
    950000  -6.7646218      20.706333      277.86183    
    960000  -11.134689      26.201937      351.60828    
    970000  -7.2237217      22.135057      297.03411    
    980000  -12.746767      22.303159      299.28991    
    990000  -14.275991      23.326402      313.02098    
   1000000  -12.263833      17.288109      231.99209    
   1010000  -18.439032      23.19874       311.30786    
   1020000  -19.861298      26.847938      360.27707    
   1030000  -19.700627      25.800889      346.22655    
   1040000  -6.601301       22.84793       306.60028    
   1050000  -15.932558      24.672072      331.07875    
   1060000  -9.0270264      19.401215      260.34823    
   1070000  -9.1926117      28.523495      382.76166    
   1080000  -16.375235      27.967061      375.29478    
   1090000  -6.3810335      22.447284      301.22394    
   1100000  -12.636518      23.434497      314.47152    
   1110000  -18.795943      20.441363      274.30614    
   1120000  -18.377485      24.105218      323.47204    
   1130000  -18.636778      20.727424      278.14485    
   1140000  -21.475646      21.655825      290.60323    
   1150000  -13.842255      19.366388      259.88088    
   1160000  -18.821096      29.486926      395.6901     
   1170000  -9.1360866      20.339884      272.94438    
   1180000  -16.760701      23.334441      313.12885    
   1190000  -17.646168      23.081077      309.72891    
   1200000  -14.632318      21.293885      285.74628    
   1210000  -15.731642      21.970328      294.82359    
   1220000  -8.2143144      21.566379      289.40293    
   1230000  -6.9454527      28.495535      382.38646    
   1240000  -9.9646301      27.56963       369.96158    
   1250000  -9.93722        21.806831      292.6296     
   1260000  -14.990984      31.645432      424.65547    
   1270000  -8.8470077      21.055191      282.54321    
   1280000  -9.1569532      23.006194      308.72405    
   1290000  -4.5976551      19.262124      258.48174    
   1300000  -7.2185042      24.484276      328.55869    
   1310000  -2.2647973      24.313885      326.27219    
   1320000  -8.6738729      24.057415      322.83057    
   1330000  -8.8866957      25.697588      344.84034    
   1340000  -9.3918068      25.347372      340.14072    
   1350000  -12.466211      20.170709      270.67419    
   1360000  -13.041387      24.982743      335.24771    
   1370000  -14.175987      25.240103      338.70126    
   1380000  -12.049111      16.043401      215.28914    
   1390000  -12.274583      21.946617      294.50541    
   1400000  -17.666665      21.028525      282.18537    
   1410000  -19.451535      18.168693      243.80881    
   1420000  -11.017401      19.877018      266.7331     
   1430000  -10.906305      19.031837      255.39148    
   1440000  -14.36714       21.395393      287.10844    
   1450000  -5.8796392      24.47628       328.45139    
   1460000   2.1864214      23.983583      321.83981    
   1470000   7.6558726      24.396834      327.38528    
   1480000   0.53184154     22.122113      296.86042    
   1490000   5.6942443      21.154043      283.86973    
   1500000   5.5408977      25.249836      338.83187    
   1510000   7.465588       24.305299      326.15697    
   1520000  -0.83417625     19.744521      264.95511    
   1530000  -6.4192641      24.997149      335.44102    
   1540000  -7.7403975      16.665541      223.63774    
   1550000  -9.4266144      22.820328      306.22989    
   1560000  -12.074109      23.008908      308.76047    
   1570000  -15.67515       24.708994      331.57422    
   1580000  -12.753206      20.428484      274.13333    
   1590000  -13.876596      18.74059       251.48318    
   1600000  -10.041221      19.443011      260.90909    
   1610000  -7.7769673      23.652334      317.39471    
   1620000  -17.954436      28.682182      384.8911     
   1630000  -12.853613      26.126913      350.60152    
   1640000  -9.0553818      20.371778      273.37237    
   1650000  -12.647703      22.218266      298.15071    
   1660000  -15.894873      18.318877      245.82415    
   1670000  -19.100683      21.464385      288.03426    
   1680000  -12.913259      22.972074      308.26619    
   1690000  -10.733009      25.052723      336.18677    
   1700000  -21.45799       27.432025      368.11504    
   1710000  -6.8405556      22.266234      298.7944     
   1720000  -21.365701      24.13803       323.91235    
   1730000  -11.562545      20.859576      279.91821    
   1740000  -15.500483      23.805511      319.45023    
   1750000  -10.978904      17.134762      229.93431    
   1760000  -11.965922      21.037319      282.30338    
   1770000  -18.960633      18.236701      244.72142    
   1780000  -18.462414      21.614357      290.04676    
   1790000  -16.693741      22.653053      303.98519    
   1800000  -12.245083      25.928502      347.93901    
   1810000  -9.5420692      21.878361      293.58946    
   1820000  -12.801646      25.699468      344.86555    
   1830000  -9.2662168      27.648011      371.01339    
   1840000  -14.15105       25.238943      338.68569    
   1850000  -10.75731       21.205889      284.56546    
   1860000  -12.09423       14.256209      191.3065     
   1870000  -16.27689       16.678237      223.80811    
   1880000  -4.2660826      19.409642      260.46131    
   1890000  -14.837041      21.821147      292.8217     
   1900000  -8.3254145      23.000994      308.65428    
   1910000  -13.969032      22.208199      298.01563    
   1920000  -13.041485      21.201875      284.51158    
   1930000  -10.92128       22.201157      297.92113    
   1940000  -12.227442      24.416672      327.65151    
   1950000  -10.201174      28.154144      377.80528    
   1960000  -4.1446566      22.679685      304.34258    
   1970000  -9.8027948      20.946563      281.08551    
   1980000  -8.2166468      21.021668      282.09335    
   1990000  -18.317809      24.542977      329.34641    
   2000000  -11.468347      27.644346      370.96421    
   2010000  -8.6035959      20.829528      279.515      
   2020000  -12.927927      25.809714      346.34496    
   2030000  -11.427202      20.139177      270.25106    
   2040000  -13.017558      20.205696      271.14369    
   2050000  -13.722514      18.070904      242.49656    
   2060000  -11.569075      20.293788      272.32581    
   2070000  -16.574202      19.109877      256.43871    
   2080000  -13.360383      22.839963      306.49337    
   2090000  -16.042955      21.826438      292.89271    
   2100000  -17.825854      20.403635      273.79987    
   2110000  -13.32074       17.598537      236.15778    
   2120000  -13.386151      19.524619      262.0042     
   2130000  -18.115363      16.882228      226.54551    
   2140000  -14.650122      17.517489      235.07018    
   2150000  -14.210496      13.953409      187.24319    
   2160000  -16.123398      27.822316      373.35242    
   2170000  -16.833033      19.778691      265.41364    
   2180000  -10.057017      20.81835       279.36501    
   2190000  -8.9243222      22.086537      296.38301    
   2200000  -14.823707      30.41443       408.13644    
   2210000  -14.704654      24.211712      324.90111    
   2220000  -4.0751914      26.435673      354.74483    
   2230000   1.5843173      22.562804      302.77412    
   2240000   1.2283085      24.518907      329.0234     
   2250000  -4.6547171      26.833374      360.08164    
   2260000  -3.5623855      28.55894       383.23731    
   2270000  -16.413013      30.808717      413.42745    
   2280000  -12.788378      26.671775      357.91311    
   2290000  -9.6345363      23.867676      320.28443    
   2300000  -5.4948222      22.215195      298.1095     
   2310000  -10.390986      24.242249      325.31089    
   2320000  -8.024818       22.545749      302.54526    
   2330000  -15.963753      29.002816      389.19375    
   2340000  -10.25146       24.124459      323.73025    
   2350000  -11.797376      23.954036      321.44331    
   2360000  -14.317632      20.358743      273.19746    
   2370000  -19.768178      25.117135      337.05114    
   2380000  -20.405188      26.714365      358.48463    
   2390000  -10.804929      18.278379      245.2807     
   2400000  -10.369095      22.650208      303.94701    
   2410000  -13.315947      20.479078      274.81225    
   2420000  -19.110301      21.571765      289.4752     
   2430000  -16.156536      22.586799      303.09612    
   2440000  -12.020892      18.511591      248.41021    
   2450000  -15.058115      26.193261      351.49185    
   2460000  -8.1121064      22.866571      306.85042    
   2470000  -14.698028      25.984762      348.69397    
   2480000  -15.289208      22.597735      303.24288    
   2490000  -9.7999702      25.370092      340.44561    
   2500000  -6.3748999      20.91292       280.63405    
   2510000  -7.1521728      19.708091      264.46624    
   2520000  -14.287505      27.084411      363.45034    
   2530000  -11.241402      21.771972      292.16182    
   2540000  -10.303862      21.725167      291.53374    
   2550000  -15.709983      26.782165      359.39445    
   2560000  -6.7338894      23.471764      314.97161    
   2570000  -10.104335      31.132013      417.7658     
   2580000  -11.975717      18.315971      245.78514    
   2590000  -8.4214163      23.029028      309.03046    
   2600000  -9.2963704      18.343728      246.15762    
   2610000  -15.702083      20.822881      279.42581    
   2620000  -13.869965      23.335778      313.14679    
   2630000  -9.0982593      19.683813      264.14045    
   2640000  -15.253519      26.508794      355.72604    
   2650000  -13.401602      18.950663      254.30219    
   2660000  -10.378982      24.898175      334.11287    
   2670000  -3.4771622      17.320545      232.42735    
   2680000  -14.003238      24.703131      331.49554    
   2690000  -14.645905      19.588968      262.86771    
   2700000  -11.473892      22.23776       298.41231    
   2710000  -5.7611417      21.061216      282.62407    
   2720000  -3.8045356      22.756528      305.37375    
   2730000  -7.1959646      21.490317      288.38225    
   2740000  -7.1705278      25.284722      339.30001    
   2750000  -3.5119202      20.225355      271.40749    
   2760000  -15.511953      22.794321      305.8809     
   2770000  -16.898811      20.068321      269.30023    
   2780000  -11.330453      20.923118      280.7709     
   2790000  -20.509469      27.597292      370.33278    
   2800000  -12.490254      22.851098      306.64279    
   2810000  -15.132405      22.647829      303.9151     
   2820000  -20.820523      30.198121      405.23375    
   2830000  -2.5287448      18.98034       254.70043    
   2840000  -5.1280211      19.307137      259.08578    
   2850000  -14.478829      23.697834      318.00529    
   2860000  -20.803427      22.878975      307.01688    
   2870000  -20.646262      17.883069      239.97597    
   2880000  -16.068366      20.607228      276.53192    
   2890000  -15.33528       23.459687      314.80956    
   2900000  -9.120614       24.211732      324.90138    
   2910000  -13.450444      21.76248       292.03444    
   2920000  -3.5215229      17.471138      234.44819    
   2930000  -10.945505      26.764433      359.1565     
   2940000  -10.633076      23.573742      316.34007    
   2950000  -11.767089      26.920987      361.25733    
   2960000  -5.7466207      28.394276      381.02765    
   2970000  -2.3486811      18.529172      248.64613    
   2980000  -8.6398974      25.815719      346.42555    
   2990000  -7.5529326      21.687022      291.02186    
   3000000  -6.6013611      22.70156       304.63612    
   3010000  -4.0169356      20.282821      272.17865    
   3020000  -8.2804936      25.810403      346.35421    
   3030000  -2.5014522      27.265074      365.87469    
   3040000  -0.76138454     22.220875      298.18573    
   3050000  -15.245627      21.415403      287.37695    
   3060000  -13.04245       22.170068      297.50393    
   3070000  -10.216372      27.306838      366.43514    
   3080000  -8.1090019      30.36213       407.43462    
   3090000  -10.346258      25.949488      348.22061    
   3100000  -11.56675       26.240497      352.12571    
   3110000  -18.211411      28.442902      381.68017    
   3120000  -10.694391      22.929434      307.694      
   3130000  -14.215511      26.191261      351.46502    
   3140000  -14.400717      27.857096      373.81914    
   3150000  -4.5508177      20.702102      277.80505    
   3160000  -9.9591224      21.71017       291.33249    
   3170000  -14.791022      31.586106      423.85937    
   3180000  -8.0521645      21.892226      293.77553    
   3190000  -11.872789      14.694184      197.18377    
   3200000  -11.31413       26.096613      350.19491    
   3210000  -12.741602      24.192744      324.64657    
   3220000  -14.96748       23.312995      312.84107    
   3230000  -12.36274       24.766882      332.35103    
   3240000  -11.347501      23.717733      318.27232    
   3250000  -11.51317       22.699852      304.6132     
   3260000  -10.954273      20.567889      276.00402    
   3270000  -18.508023      28.124097      377.40207    
   3280000  -15.585157      25.838202      346.72725    
   3290000  -7.8861608      25.417308      341.07921    
   3300000  -8.354801       24.480453      328.50738    
   3310000  -13.269843      14.703122      197.30371    
   3320000  -9.3527022      23.97462       321.71953    
   3330000  -17.592474      28.710986      385.27763    
   3340000  -16.07612       23.915434      320.92529    
   3350000  -10.91582       27.02985       362.71818    
   3360000  -12.486291      22.916784      307.52424    
   3370000  -11.574155      19.597154      262.97756    
   3380000  -20.669257      22.078345      296.27309    
   3390000  -10.807758      17.671368      237.13511    
   3400000  -21.247391      26.380878      354.00952    
   3410000  -15.342822      21.042664      282.37511    
   3420000  -10.762892      24.860097      333.60189    
   3430000  -12.500865      21.093256      283.05402    
   3440000  -10.841644      24.288152      325.92687    
   3450000  -10.47709       19.627847      263.38944    
   3460000  -15.578888      21.390656      287.04487    
   3470000  -17.571762      23.739581      318.5655     
   3480000  -10.213829      24.281838      325.84214    
   3490000  -3.4370174      22.33901       299.771      
   3500000  -0.92306352     31.727881      425.76186    
   3510000  -4.9403508      20.967127      281.36146    
   3520000  -18.308569      21.370413      286.77323    
   3530000  -13.031029      20.576455      276.11897    
   3540000  -8.2001671      20.3502        273.08282    
   3550000  -9.6447337      22.53487       302.39927    
   3560000  -4.0380831      31.50069       422.71315    
   3570000  -12.95753       21.876956      293.57062    
   3580000  -15.400597      20.352659      273.11581    
   3590000  -11.118094      15.00294       201.32701    
   3600000  -15.427737      24.24734       325.3792     
   3610000  -5.7436147      17.811077      239.00989    
   3620000  -3.6150104      23.680898      317.77802    
   3630000  -12.352214      20.517262      275.32465    
   3640000  -10.048793      23.602888      316.73119    
   3650000  -14.794653      23.215957      311.53889    
   3660000  -14.917892      25.63974       344.06406    
   3670000  -14.501248      20.228123      271.44464    
   3680000  -10.129888      21.313792      286.01342    
   3690000  -10.817429      20.752343      278.47924    
   3700000  -15.255758      25.084607      336.61463    
   3710000  -5.6096275      19.080984      256.05099    
   3720000  -8.1407977      16.903044      226.82484    
   3730000  -17.194456      18.51776       248.49299    
   3740000  -12.258143      20.67634       277.45934    
   3750000  -13.125039      22.360598      300.06069    
   3760000  -3.2748248      17.987454      241.37673    
   3770000  -9.2118105      23.426782      314.368      
   3780000  -10.935742      24.931478      334.55977    
   3790000  -12.314917      22.009592      295.35049    
   3800000  -9.4088554      20.686254      277.59239    
   3810000  -2.8813804      21.412443      287.33724    
   3820000  -15.513393      25.929947      347.9584     
   3830000  -9.3044686      18.96632       254.51229    
   3840000  -10.511668      16.691403      223.98479    
   3850000  -9.6253284      22.583615      303.05339    
   3860000  -18.58329       24.760445      332.26465    
   3870000  -12.963148      19.30832       259.10165    
   3880000  -10.776425      21.244063      285.07771    
   3890000  -6.9983347      17.270161      231.75125    
   3900000  -7.610247       22.622233      303.57162    
   3910000  -3.3951695      24.904239      334.19425    
   3920000  -6.4828834      23.087017      309.80863    
   3930000  -6.1773162      23.070681      309.58942    
   3940000  -13.280329      18.364758      246.43983    
   3950000  -14.877821      20.581588      276.18785    
   3960000  -14.738342      27.821481      373.34122    
   3970000  -13.08738       22.792705      305.85921    
   3980000  -18.879841      26.500886      355.61993    
   3990000  -13.394479      21.564355      289.37576    
   4000000  -14.89435       26.447907      354.90899    
   4010000  -11.84912       22.245547      298.5168     
   4020000  -9.0704305      23.385634      313.81582    
   4030000  -16.889083      25.465249      341.72253    
   4040000  -5.4714118      18.929771      254.02183    
   4050000  -4.5645204      20.566617      275.98695    
   4060000   2.4248578      20.735786      278.25706    
   4070000  -0.1151318      24.467396      328.33217    
   4080000  -1.9624461      23.18717       311.1526     
   4090000   1.1052936      21.674808      290.85795    
   4100000   1.4039775      23.806735      319.46665    
   4110000   1.7581655      22.276566      298.93305    
   4120000  -11.492665      18.191378      244.11321    
   4130000  -14.971918      17.741081      238.0706     
   4140000  -19.75084       27.748021      372.35544    
   4150000  -11.318714      25.429852      341.24753    
   4160000  -14.473476      28.708781      385.24805    
   4170000  -15.059672      20.488488      274.93852    
   4180000  -17.037396      20.025439      268.72479    
   4190000  -20.133367      23.026987      309.00307    
   4200000  -20.550203      23.622504      316.99443    
   4210000  -10.488488      25.282264      339.26703    
   4220000  -14.912527      19.99813       268.35832    
   4230000  -16.223428      30.714486      412.16295    
   4240000   5.1518699      24.378593      327.14051    
   4250000   2.1696304      27.977377      375.43321    
   4260000   0.03944938     25.064654      336.34689    
   4270000  -3.2570034      20.808262      279.22963    
   4280000  -4.186775       28.227279      378.78669    
   4290000   3.7843825      18.408004      247.02015    
   4300000   0.21365891     33.620047      451.15316    
   4310000  -2.0177227      22.134941      297.03255    
   4320000  -6.0797456      28.099471      377.07161    
   4330000  -5.7843951      23.497491      315.31686    
   4340000  -9.112634       25.759844      345.67575    
   4350000  -17.598492      26.570833      356.55856    
   4360000  -16.164717      20.521341      275.37938    
   4370000  -11.324441      21.093641      283.05918    
   4380000  -15.192844      21.727961      291.57123    
   4390000  -9.0794681      21.917495      294.11462    
   4400000  -8.6230269      22.937828      307.80664    
   4410000  -10.335821      21.862054      293.37064    
   4420000  -13.499311      23.565805      316.23356    
   4430000  -4.2962764      21.721371      291.48279    
   4440000  -9.8552707      27.945584      375.00657    
   4450000  -6.2985116      28.049716      376.40394    
   4460000  -8.9221369      26.931231      361.39479    
   4470000  -11.680516      29.375765      394.19842    
   4480000  -2.6817593      22.662498      304.11194    
   4490000  -6.3611536      21.951965      294.57717    
   4500000  -16.524711      29.906643      401.32236    
   4510000  -12.834147      21.413387      287.3499     
   4520000  -12.717665      24.491504      328.65568    
   4530000  -13.490877      23.523406      315.66461    
   4540000  -17.196911      25.767753      345.78188    
   4550000  -3.3671463      17.435373      233.96825    
   4560000  -13.401493      28.388222      380.9464     
   4570000  -11.132033      23.862477      320.21466    
   4580000  -15.562412      19.403779      260.38263    
   4590000  -14.605612      16.59032       222.62834    
   4600000  -9.0676436      20.79105       278.99866    
   4610000  -17.975288      24.477483      328.46754    
   4620000  -15.528244      24.457751      328.20275    
   4630000  -15.581804      20.0834        269.50259    
   4640000  -13.011182      24.242934      325.32008    
   4650000  -12.990427      21.579424      289.57798    
   4660000  -12.119711      26.051597      349.59084    
   4670000  -15.721756      17.079613      229.19425    
   4680000  -21.272849      22.741711      305.1749     
   4690000  -20.999187      21.117712      283.3822     
   4700000  -10.868947      16.87035       226.38611    
   4710000  -13.073307      21.020952      282.08375    
   4720000  -9.0613288      16.892535      226.68382    
   4730000  -10.091448      25.354887      340.24156    
   4740000  -7.1181806      27.123596      363.97618    
   4750000  -15.424431      31.762251      426.22308    
   4760000  -7.0969018      20.182148      270.82769    
   4770000  -7.8622377      23.164419      310.8473     
   4780000  -11.270302      22.679377      304.33844    
   4790000  -9.3302129      25.939053      348.08059    
   4800000  -11.68451       23.296279      312.61676    
   4810000  -1.1157461      26.099021      350.22722    
   4820000  -10.721893      24.129685      323.80036    
   4830000  -12.106601      27.030063      362.72104    
   4840000  -1.4561567      21.682256      290.95791    
   4850000  -7.4590606      23.668335      317.60944    
   4860000  -10.183528      24.605788      330.18928    
   4870000  -14.199886      28.578787      383.50364    
   4880000  -8.6334564      17.561734      235.66392    
   4890000  -16.9188        20.745131      278.38246    
   4900000  -9.2472763      25.950408      348.23296    
   4910000  -2.7838008      23.643662      317.27834    
   4920000  -4.2957384      28.844184      387.06504    
   4930000  -9.3970078      17.146684      230.09429    
   4940000  -11.196019      23.212744      311.49578    
   4950000  -5.9068643      20.199464      271.06006    
   4960000  -7.0394574      24.222291      325.04306    
   4970000  -15.366483      23.309509      312.79429    
   4980000  -13.975072      26.93083       361.38942    
   4990000  -14.063637      26.380398      354.00308    
   5000000  -5.0901887      19.695829      264.3017     
   5010000  -13.270702      21.732011      291.62558    
   5020000  -10.421658      18.026274      241.89765    
   5030000  -7.5468817      19.611028      263.16374    
   5040000  -23.292743      25.415037      341.04873    
   5050000  -4.4046741      19.399411      260.32401    
   5060000  -15.019082      25.573788      343.17903    
   5070000  -15.110732      19.641613      263.57417    
   5080000  -10.042756      19.569024      262.60009    
   5090000  -14.969181      17.241305      231.36402    
   5100000  -18.210078      21.640361      290.3957     
   5110000  -15.575818      21.762315      292.03222    
   5120000  -12.232378      22.588438      303.11811    
   5130000  -2.2431036      22.262814      298.74851    
   5140000  -3.2175609      15.761593      211.50752    
   5150000  -8.6337536      21.156098      283.8973     
   5160000  -6.0010512      23.04631       309.26237    
   5170000  -7.105018       27.2952        366.27896    
   5180000  -7.7532662      19.41296       260.50583    
   5190000  -11.599307      18.555515      248.99962    
   5200000  -7.7404729      25.107396      336.92045    
   5210000  -8.1486641      20.109309      269.85026    
   5220000  -9.0685018      26.658512      357.73514    
   5230000   2.5548123      18.281169      245.31814    
   5240000  -2.7987768      25.684128      344.65971    
   5250000  -7.0498119      23.079235      309.70421    
   5260000  -5.642728       26.321385      353.21116    
   5270000  -11.261237      23.844759      319.97689    
   5280000  -16.098244      26.031692      349.32372    
   5290000  -10.624264      16.647996      223.40231    
   5300000  -13.577319      22.558279      302.7134     
   5310000  -12.489915      22.406018      300.67018    
   5320000  -8.5630399      17.108638      229.58374    
   5330000  -15.403459      25.071703      336.44147    
   5340000  -16.352539      16.264229      218.25247    
   5350000  -9.4774269      15.11995       202.89719    
   5360000  -11.287939      21.396675      287.12564    
   5370000  -8.6244169      25.364465      340.3701     
   5380000  -15.125134      28.326267      380.11502    
   5390000  -1.8491856      21.195675      284.42839    
   5400000  -3.9186059      31.118619      417.58607    
   5410000   1.6731562      22.112343      296.72932    
   5420000  -12.846382      25.57642       343.21436    
   5430000  -12.685948      20.721555      278.06609    
   5440000  -5.7105445      15.84181       212.58395    
   5450000  -13.235203      30.337647      407.10608    
   5460000  -10.882415      24.047626      322.69921    
   5470000  -12.231743      20.696279      277.72691    
   5480000  -19.711568      19.502912      261.71292    
   5490000  -21.663147      24.772535      332.42688    
   5500000  -13.228804      24.694665      331.38194    
   5510000  -10.290348      29.258037      392.61861    
   5520000  -11.429029      23.644956      317.29571    
   5530000  -18.196201      27.047506      362.95511    
   5540000  -11.61201       19.447911      260.97485    
   5550000  -11.786861      20.34061       272.95412    
   5560000  -15.964303      20.377427      273.44817    
   5570000  -10.819529      21.518145      288.75567    
   5580000  -15.278158      22.874178      306.9525     
   5590000  -12.745098      24.842747      333.36907    
   5600000  -13.224655      26.718101      358.53476    
   5610000  -9.2647375      21.6049        289.91985    
   5620000  -17.476655      22.534893      302.39959    
   5630000  -14.45607       22.121891      296.85744    
   5640000  -8.031294       24.566047      329.65599    
   5650000  -10.110759      25.86565       347.09558    
   5660000  -14.813037      19.094243      256.22892    
   5670000  -14.805631      24.688874      331.30423    
   5680000  -15.005667      22.87844       307.0097     
   5690000  -14.485738      23.07209       309.60833    
   5700000  -15.599784      23.614955      316.89312    
   5710000  -15.118265      19.128951      256.69467    
   5720000  -16.636347      21.289426      285.68645    
   5730000  -10.48784       24.034444      322.52232    
   5740000  -9.4962066      23.521406      315.63777    
   5750000  -19.666638      18.741911      251.50091    
   5760000  -20.798907      17.025345      228.46601    
   5770000  -12.681917      18.695827      250.8825     
   5780000  -13.514186      25.580261      343.26589    
   5790000  -15.400147      25.758359      345.65582    
   5800000  -17.78494       33.081473      443.92594    
   5810000  -12.992209      20.630202      276.8402     
   5820000  -10.225718      20.854802      279.85416    
   5830000  -15.707148      22.004341      295.28001    
   5840000  -17.163292      24.02769       322.43168    
   5850000  -12.83526       22.016768      295.44678    
   5860000  -11.893209      23.594927      316.62436    
   5870000  -14.017427      18.110843      243.03249    
   5880000  -9.5909073      24.084301      323.19136    
   5890000  -9.6743111      24.379078      327.14702    
   5900000  -9.9949598      27.267313      365.90474    
   5910000   2.8390791      18.328084      245.94769    
   5920000  -12.697719      26.23952       352.11261    
   5930000  -15.653778      23.036599      309.13207    
   5940000  -13.733923      21.097108      283.1057     
   5950000  -8.2951779      19.603671      263.06502    
   5960000  -14.885921      21.062216      282.63749    
   5970000  -12.217329      21.722838      291.50249    
   5980000  -20.604251      24.840152      333.33425    
   5990000  -14.937411      19.208259      257.75891    
   6000000  -12.262834      24.664132      330.97221    
   6010000  -11.761455      19.782801      265.4688     
   6020000  -19.693269      22.644465      303.86995    
   6030000  -15.155589      22.861496      306.78233    
   6040000  -15.119423      18.75793       251.71587    
   6050000  -10.230568      16.303768      218.78306    
   6060000  -11.430397      27.085739      363.46816    
   6070000  -5.9720168      18.809012      252.40135    
   6080000  -18.244256      27.18634       364.81815    
   6090000  -12.89759       16.823889      225.76264    
   6100000  -7.0667119      23.561419      316.17471    
   6110000   6.9302018      24.231138      325.16178    
   6120000   4.2243057      18.156438      243.64435    
   6130000  -2.4234401      25.300676      339.51409    
   6140000  -10.816255      25.066562      336.37248    
   6150000  -11.690454      22.765257      305.49088    
   6160000  -8.0491213      20.241573      271.62514    
   6170000  -12.795534      27.801495      373.07302    
   6180000  -12.037175      18.907678      253.72536    
   6190000  -15.180846      24.405795      327.50553    
   6200000  -15.953039      26.852333      360.33606    
   6210000  -13.124532      19.19329       257.55804    
   6220000  -7.157212       22.799419      305.9493     
   6230000  -3.9278682      15.041155      201.83983    
   6240000  -11.200285      21.534669      288.97741    
   6250000  -12.279381      26.972822      361.95291    
   6260000  -9.3719592      23.487278      315.1798     
   6270000  -13.341361      24.123485      323.71717    
   6280000  -9.4031162      19.70363       264.40638    
   6290000  -10.321205      15.515853      208.20989    
   6300000  -13.961792      17.570024      235.77516    
   6310000  -15.639546      18.295037      245.50424    
   6320000  -9.835839       23.974796      321.72189    
   6330000  -8.5387861      30.595967      410.57252    
   6340000   0.12101366     23.63238       317.12696    
   6350000   1.0859316      23.233228      311.77067    
   6360000  -5.6421162      26.739618      358.82351    
   6370000  -5.6436317      22.350245      299.92177    
   6380000   6.2903354      20.057239      269.15152    
   6390000  -11.889717      23.295907      312.61176    
   6400000  -16.651426      22.830471      306.36599    
   6410000  -15.770472      19.501568      261.69487    
   6420000  -10.974322      16.047795      215.34811    
   6430000  -11.074762      23.443659      314.59448    
   6440000  -12.94974       22.678761      304.33018    
   6450000  -17.985527      25.898052      347.53039    
   6460000  -1.7960581      20.147632      270.36452    
   6470000  -2.056559       17.091608      229.35521    
   6480000  -15.597188      19.708434      264.47084    
   6490000  -13.69926       22.210969      298.05279    
   6500000  -15.439553      19.716657      264.5812     
   6510000  -20.114326      20.955045      281.19934    
   6520000  -15.714806      17.009252      228.25006    
   6530000  -11.468782      23.00456       308.70213    
   6540000  -14.613157      22.697775      304.58532    
   6550000  -15.786489      25.807248      346.31187    
   6560000  -18.235663      23.761578      318.86068    
   6570000  -7.7326014      20.168059      270.63863    
   6580000  -6.8552287      23.574813      316.35444    
   6590000   0.39396462     25.527119      342.55278    
   6600000  -1.7073205      24.777896      332.49882    
   6610000   0.96382511     19.935443      267.51711    
   6620000  -3.1472191      26.071218      349.85413    
   6630000  -8.4285273      26.932436      361.41097    
   6640000  -14.445826      26.477036      355.29988    
   6650000  -15.576575      21.66767       290.76217    
   6660000  -13.396823      19.993191      268.29205    
   6670000  -13.458293      25.238469      338.67934    
   6680000  -12.147388      20.565022      275.96555    
   6690000  -20.238185      24.410282      327.56575    
   6700000  -13.236149      26.725813      358.63826    
   6710000  -13.849902      22.352488      299.95186    
   6720000  -16.931185      28.058229      376.51817    
   6730000  -10.097559      13.54425       181.75261    
   6740000  -14.625977      23.945373      321.32705    
   6750000  -5.8262604      21.920139      294.15009    
   6760000  -10.549307      20.137004      270.2219     
   6770000  -4.8024033      23.128841      310.36987    
   6780000  -14.247919      30.738607      412.48662    
   6790000  -21.52179       25.46905       341.77355    
   6800000  -18.101842      28.329072      380.15266    
   6810000  -12.664743      25.776132      345.89432    
   6820000  -10.982822      25.172058      337.78815    
   6830000  -12.753645      26.019164      349.15561    
   6840000   1.4169511      23.279934      312.39741    
   6850000  -2.6241969      16.777701      225.14283    
   6860000  -16.512725      21.626127      290.2047     
   6870000  -13.114358      21.061169      282.62342    
   6880000  -17.397847      19.693448      264.26975    
   6890000  -20.198908      23.278477      312.37786    
   6900000  -11.881646      21.738244      291.70922    
   6910000  -15.951189      20.653374      277.15116    
   6920000  -5.4829871      25.318084      339.7477     
   6930000  -2.5085265      25.629298      343.92393    
   6940000  -10.011037      25.759835      345.67563    
   6950000  -2.7977988      28.506623      382.53525    
   6960000  -0.092913799    21.155851      283.89398    
   6970000  -3.8509883      23.385222      313.81029    
   6980000  -7.9686118      19.670764      263.96535    
   6990000  -17.441125      21.732636      291.63396    
   7000000  -20.795598      21.884299      293.66915    
   7010000  -19.817712      26.663464      357.80159    
   7020000  -14.277752      26.33454       353.3877     
   7030000  -4.7597583      23.840278      319.91677    
   7040000  -1.9860098      27.215382      365.20787    
   7050000   6.3746219      27.182022      364.7602     
   7060000   8.0139924      23.663094      317.53911    
   7070000   2.8261873      25.742546      345.44363    
   7080000   10.215614      21.422315      287.46972    
   7090000   9.9613891      23.024339      308.96755    
   7100000   0.058395547    20.185316      270.87021    
   7110000  -4.2556497      21.886454      293.69807    
   7120000  -14.397486      28.485819      382.25608    
   7130000  -10.886223      17.987011      241.37078    
   7140000  -13.576713      20.765825      278.66016    
   7150000  -10.525575      18.848479      252.93097    
   7160000  -7.9750122      26.97221       361.9447     
   7170000   0.33334109     25.525389      342.52956    
   7180000  -7.3474005      22.766697      305.5102     
   7190000  -7.0339954      25.715359      345.07881    
   7200000  -11.345194      25.88711       347.38356    
   7210000  -2.8494813      24.50585       328.84819    
   7220000  -0.61217607     25.506992      342.28269    
   7230000  -8.6051149      26.025663      349.24283    
   7240000  -16.347687      22.793486      305.86969    
   7250000  -22.40931       22.722726      304.92015    
   7260000  -10.015874      22.067715      296.13044    
   7270000  -12.331519      18.927171      253.98695    
   7280000  -17.125312      25.081999      336.57963    
   7290000  -12.702651      25.884539      347.34905    
   7300000  -15.531536      18.617724      249.83443    
   7310000  -14.787984      19.184906      257.44554    
   7320000  -10.884215      25.276604      339.19107    
   7330000  -15.723343      18.936176      254.10778    
   7340000  -11.556914      21.075986      282.82227    
   7350000  -13.028948      22.662689      304.1145     
   7360000  -12.004203      19.993167      268.29172    
   7370000  -17.325431      24.202516      324.77771    
   7380000  -16.472388      18.490984      248.13368    
   7390000  -11.97886       17.714319      237.71147    
   7400000  -13.886214      24.389848      327.29154    
   7410000  -12.964747      26.671197      357.90535    
   7420000  -9.7994455      23.716469      318.25535    
   7430000  -11.986485      25.299896      339.50364    
   7440000  -9.322965       24.720623      331.73027    
   7450000  -10.122536      22.326296      299.60038    
   7460000  -11.286135      22.817899      306.19729    
   7470000  -9.8009573      21.253459      285.2038     
   7480000  -7.4238381      23.798845      319.36077    
   7490000  -2.7907331      24.572055      329.73662    
   7500000  -10.648289      23.039857      309.17578    
   7510000  -10.490681      20.102927      269.76461    
   7520000  -10.987967      24.126758      323.76109    
   7530000  -7.0163005      23.491905      315.24189    
   7540000  -16.791861      23.105211      310.05278    
   7550000  -16.930149      22.539329      302.45911    
   7560000  -14.973272      25.50143       342.20805    
   7570000   0.18332689     21.983391      294.99889    
   7580000  -2.0094237      16.781626      225.19551    
   7590000  -9.3344676      21.037512      282.30598    
   7600000  -15.855906      23.406108      314.09057    
   7610000  -6.4456676      30.948972      415.30954    
   7620000  -4.9228402      22.229438      298.30063    
   7630000  -9.5963707      20.511262      275.24413    
   7640000  -13.247023      25.914409      347.74989    
   7650000  -10.942485      28.018964      375.99127    
   7660000  -4.6595162      24.478362      328.47933    
   7670000  -8.665408       25.716409      345.0929     
   7680000  -4.9709629      22.180072      297.63818    
   7690000  -10.52092       25.919126      347.81318    
   7700000  -12.968006      24.462439      328.26566    
   7710000  -15.054094      19.948194      267.68823    
   7720000  -15.348369      20.330011      272.81189    
   7730000  -13.759076      27.744999      372.31489    
   7740000  -3.8586118      29.360767      393.99716    
   7750000  -3.1542816      23.028687      309.02589    
   7760000  -3.5144243      22.113316      296.74237    
   7770000  -14.756373      23.814979      319.57728    
   7780000  -13.202912      23.97796       321.76435    
   7790000  -10.374991      28.036423      376.22556    
   7800000  -12.697213      24.088772      323.25135    
   7810000  -9.5375749      19.085282      256.10867    
   7820000  -6.5269357      23.460646      314.82242    
   7830000  -12.668978      27.024197      362.64232    
   7840000  -15.070934      29.644299      397.80192    
   7850000  -10.995676      20.872847      280.09631    
   7860000  -8.6808131      20.001609      268.40501    
   7870000  -16.705362      20.46584       274.6346     
   7880000  -12.496906      18.503472      248.30125    
   7890000  -16.257291      20.359358      273.20571    
   7900000  -11.84615       22.811443      306.11066    
   7910000  -7.3809551      28.10258       377.11333    
   7920000  -10.144042      23.353269      313.38152    
   7930000  -14.587258      18.089507      242.74619    
   7940000  -20.265941      21.411254      287.32129    
   7950000  -12.9206        20.132356      270.15954    
   7960000  -11.239367      20.639079      276.95933    
   7970000  -6.3286588      25.013522      335.66073    
   7980000  -17.584219      31.667819      424.95587    
   7990000  -12.757859      23.099823      309.98048    
   8000000  -16.149763      25.115337      337.027      
   8010000  -13.158947      30.596655      410.58174    
   8020000  -2.6832319      23.589645      316.55349    
   8030000  -9.2232601      26.048057      349.54334    
   8040000  -5.562744       27.756571      372.47017    
   8050000  -5.8865561      19.807386      265.79871    
   8060000  -3.5183368      16.673165      223.74005    
   8070000  -12.827202      19.534867      262.14172    
   8080000  -13.518978      27.839702      373.58572    
   8090000  -4.5607842      29.993756      402.49134    
   8100000  -9.2451681      33.114218      444.36536    
   8110000  -3.9344026      27.932881      374.8361     
   8120000  -1.4358589      17.714887      237.7191     
   8130000  -14.713247      25.388665      340.69483    
   8140000  -16.039265      21.685393      291          
   8150000  -9.5918778      19.991459      268.26881    
   8160000  -18.266601      19.2853        258.79274    
   8170000  -11.760458      18.368722      246.49303    
   8180000  -12.128547      22.476946      301.62199    
   8190000  -13.425872      20.40812       273.86005    
   8200000  -14.1254        21.609587      289.98274    
   8210000  -16.16674       21.594923      289.78597    
   8220000  -12.823186      19.461816      261.16144    
   8230000  -13.265524      25.474631      341.84844    
   8240000  -16.532199      18.610438      249.73665    
   8250000  -15.447777      19.601385      263.03434    
   8260000  -17.274518      21.36837       286.74581    
   8270000  -15.65709       23.834067      319.83342    
   8280000  -7.3285266      21.534563      288.97598    
   8290000  -8.7661936      23.770187      318.97621    
   8300000  -6.5153501      16.112428      216.21543    
   8310000  -9.4745783      17.411398      233.64654    
   8320000  -16.937806      23.467432      314.91348    
   8330000  -14.17387       25.495765      342.13204    
   8340000  -14.822544      24.332206      326.51804    
   8350000  -13.032969      21.490664      288.3869     
   8360000  -9.796474       22.086901      296.38791    
   8370000  -16.655275      21.796772      292.49461    
   8380000  -16.689823      17.516955      235.06301    
   8390000  -12.48264       22.898694      307.28149    
   8400000  -13.582345      23.887324      320.54809    
   8410000  -13.455464      29.826895      400.2522     
   8420000  -10.736888      18.320009      245.83933    
   8430000  -5.2880655      24.752564      332.15889    
   8440000  -12.683384      22.969149      308.22694    
   8450000  -16.387738      24.998375      335.45747    
   8460000  -11.568033      20.107556      269.82673    
   8470000  -23.089075      23.683255      317.80966    
   8480000  -15.145168      21.169331      284.07488    
   8490000  -15.400089      23.003092      308.68242    
   8500000  -12.364911      21.272266      285.45618    
   8510000  -14.29795       26.324301      353.2503     
   8520000  -5.0087745      23.532612      315.78815    
   8530000  -1.8602877      24.722824      331.7598     
   8540000   1.0494834      25.675557      344.54469    
   8550000  -5.5550591      31.501904      422.72944    
   8560000  -6.8215914      28.503037      382.48713    
   8570000  -3.9265647      25.31797       339.74616    
   8580000  -7.0608725      30.512358      409.45056    
   8590000  -10.443517      30.728015      412.34449    
   8600000  -10.249507      25.97006       348.49667    
   8610000  -13.49984       27.087671      363.49409    
   8620000  -10.101215      28.408517      381.21875    
   8630000  -5.3748615      23.351566      313.35865    
   8640000  -4.148018       27.543579      369.612      
   8650000  -10.094987      22.769023      305.54142    
   8660000  -2.1967988      21.32243       286.12934    
   8670000  -10.432407      26.272197      352.55111    
   8680000  -4.4439596      16.876379      226.46702    
   8690000  -6.284711       24.78476       332.59093    
   8700000  -3.2906812      23.771839      318.99837    
   8710000  -12.005857      31.790057      426.59621    
   8720000  -8.7646345      24.571864      329.73404    
   8730000  -4.7893908      23.857653      320.14993    
   8740000  -4.8844366      24.649109      330.77061    
   8750000  -9.046585       22.1678        297.4735     
   8760000  -13.709731      24.141371      323.95719    
   8770000  -15.460174      22.875547      306.97088    
   8780000  -10.819701      25.633782      343.98411    
   8790000  -6.2669801      23.650646      317.37207    
   8800000  -7.5995248      25.931814      347.98345    
   8810000   0.5766102      21.51515       288.71547    
   8820000  -5.3459307      21.854373      293.26756    
   8830000   3.8470355      18.570455      249.20011    
   8840000  -0.46695876     19.621243      263.30081    
   8850000   5.2420167      25.583246      343.30596    
   8860000  -1.7907261      21.154525      283.8762     
   8870000  -9.2823599      27.054011      363.0424     
   8880000  -5.5451259      20.548507      275.74394    
   8890000  -11.778614      23.459122      314.80197    
   8900000  -8.7411795      23.017433      308.87487    
   8910000  -5.2618993      22.708059      304.72333    
   8920000  -12.601049      20.906206      280.54395    
   8930000  -12.326795      22.788132      305.79785    
   8940000  -13.436338      28.103338      377.1235     
   8950000  -17.994539      20.008183      268.49323    
   8960000  -10.451312      18.520897      248.53508    
   8970000  -13.551699      17.595001      236.11033    
   8980000  -5.8443958      24.260753      325.5592     
   8990000  -14.181055      18.038963      242.06793    
   9000000  -14.863444      19.276658      258.67677    
   9010000  -17.703485      21.281579      285.58115    
   9020000  -8.5918729      23.953302      321.43345    
   9030000  -2.2331204      22.236672      298.39771    
   9040000  -10.133467      27.021619      362.60773    
   9050000  -1.7361236      20.765498      278.65577    
   9060000   0.13817289     20.636099      276.91935    
   9070000  -4.006636       23.433434      314.45725    
   9080000  -12.731775      23.904076      320.77288    
   9090000  -12.478989      26.297848      352.89532    
   9100000  -10.055921      26.854732      360.36824    
   9110000  -9.4928772      27.522757      369.33258    
   9120000  -1.1576482      22.030413      295.62988    
   9130000  -12.880675      22.549446      302.59488    
   9140000  -12.405069      20.74073       278.3234     
   9150000  -3.5418512      22.726554      304.97152    
   9160000  -8.9533144      23.104522      310.04353    
   9170000  -14.930889      22.9862        308.45575    
   9180000  -13.505035      20.499492      275.08619    
   9190000  -10.831934      19.781231      265.44772    
   9200000  -20.612282      22.721668      304.90595    
   9210000  -18.721719      25.054699      336.21329    
   9220000  -15.852344      20.949819      281.12921    
   9230000  -9.097825       19.563284      262.52305    
   9240000  -12.782652      24.344245      326.67958    
   9250000  -10.251511      25.709564      345.00104    
   9260000  -2.7713777      20.193925      270.98573    
   9270000  -13.281416      20.549457      275.75668    
   9280000  -17.577147      19.497418      261.63918    
   9290000  -15.774393      20.878258      280.16892    
   9300000  -11.499129      23.105311      310.05412    
   9310000  -14.779743      26.045364      349.50719    
   9320000  -13.339974      33.764839      453.09615    
   9330000  -13.663492      27.319988      366.6116     
   9340000  -12.872704      24.483342      328.54615    
   9350000  -16.990552      23.118115      310.22594    
   9360000  -17.483872      18.030475      241.95403    
   9370000  -17.708625      23.505716      315.42722    
   9380000  -10.209367      23.934573      321.18213    
   9390000  -6.6278434      19.854533      266.43138    
   9400000  -6.7158716      24.059458      322.85799    
   9410000  -0.7238629      24.15889       324.19228    
   9420000   2.5182106      19.182094      257.4078     
   9430000  -8.9718882      24.581301      329.86068    
   9440000  -15.207839      14.06926       188.79781    
   9450000  -16.820868      19.444969      260.93536    
   9460000  -14.460915      17.977488      241.24299    
   9470000  -11.426008      22.076471      296.24794    
   9480000  -0.071663203    17.227787      231.18262    
   9490000  -11.230434      30.660908      411.44397    
   9500000  -7.7576845      20.460264      274.55978    
   9510000  -10.497102      22.754794      305.35047    
   9520000  -11.871035      20.502931      275.13234    
   9530000  -15.260938      21.58421       289.6422     
   9540000  -14.465342      18.836331      252.76795    
   9550000  -12.398751      17.990635      241.4194     
   9560000  -14.922589      27.754051      372.43636    
   9570000  -10.141204      21.563981      289.37076    
   9580000  -10.799511      20.504901      275.15878    
   9590000  -8.3094172      21.60343       289.90012    
   9600000  -14.328988      29.029583      389.55294    
   9610000  -15.252206      25.606468      343.61757    
   9620000  -12.173114      29.084382      390.28829    
   9630000  -11.38509       20.045782      268.99778    
   9640000   3.0978136      18.669984      250.53571    
   9650000  -9.1857187      21.424743      287.50229    
   9660000  -9.6567155      21.321394      286.11544    
   9670000  -11.72442       19.864278      266.56214    
   9680000  -11.956026      17.94961       240.86888    
   9690000  -18.249079      21.669744      290.79001    
   9700000  -17.097558      21.49959       288.50667    
   9710000  -5.9178011      23.785622      319.18332    
   9720000  -11.557628      30.312095      406.76319    
   9730000  -9.8787695      27.416805      367.91079    
   9740000  -16.352377      25.657861      344.30723    
   9750000  -10.493739      23.865765      320.25879    
   9760000   0.28342561     27.132945      364.10163    
   9770000   0.41297252     22.547403      302.56745    
   9780000  -10.80248       24.225825      325.09048    
   9790000  -16.780915      21.726891      291.55687    
   9800000  -19.641341      18.356659      246.33114    
   9810000  -15.863002      17.659161      236.9713     
   9820000  -9.9586331      17.453567      234.2124     
   9830000  -12.822596      26.82608       359.98376    
   9840000  -5.9595805      22.723958      304.93669    
   9850000  -13.430376      25.504796      342.25322    
   9860000  -14.842025      19.659636      263.81602    
   9870000  -11.499633      27.084469      363.45112    
   9880000  -15.04895       24.365551      326.9655     
   9890000  -14.737226      21.095585      283.08526    
   9900000  -18.621659      21.99346       295.134      
   9910000  -21.442028      26.779478      359.3584     
   9920000  -14.456379      26.384355      354.05618    
   9930000  -12.852912      21.029699      282.20112    
   9940000  -13.964036      19.939518      267.5718     
   9950000  -18.22442       22.940772      307.84614    
   9960000  -18.753757      21.013528      281.98412    
   9970000  -18.349557      22.180395      297.64252    
   9980000  -10.225175      17.829         239.2504     
   9990000  -14.68355       21.23538       284.9612     
  10000000  -8.1845428      21.902624      293.91505    
  10010000  -5.7990603      26.751892      358.98822    
  10020000   1.1591386      28.584231      383.57669    
  10030000   5.4595148      23.472127      314.97648    
  10040000   13.010209      22.532092      302.36199    
  10050000   5.8417901      18.692713      250.84071    
  10060000  -4.3803625      27.742232      372.27775    
  10070000  -1.9172436      22.036629      295.71329    
  10080000   5.5317953      21.751138      291.88225    
  10090000   0.98504667     22.803939      306.00996    
  10100000   1.2984315      25.191461      338.04852    
  10110000   2.4343641      28.331918      380.19085    
  10120000  -2.9040007      21.593591      289.7681     
  10130000  -6.4041435      25.81716       346.44488    
  10140000  -7.8622126      24.28679       325.90859    
  10150000  -13.919323      22.070023      296.16142    
  10160000  -6.4941723      20.48415       274.88031    
  10170000  -15.061313      28.449164      381.7642     
  10180000  -10.435915      28.311293      379.91409    
  10190000  -4.0411823      17.681195      237.26698    
  10200000  -6.7352461      20.996906      281.76108    
  10210000  -7.963957       22.086076      296.37683    
  10220000  -10.299106      29.235635      392.31799    
  10230000  -13.021805      25.072929      336.45793    
  10240000  -12.308417      20.633714      276.88734    
  10250000  -13.217198      16.491747      221.30557    
  10260000  -12.22986       20.801108      279.13362    
  10270000  -8.4660336      23.223485      311.63992    
  10280000  -3.707916       25.995502      348.83809    
  10290000  -7.0293982      28.126105      377.42901    
  10300000  -10.235683      20.915491      280.66855    
  10310000  -10.204571      18.292719      245.47313    
  10320000  -14.32172       21.919235      294.13796    
  10330000  -5.0312073      22.599946      303.27254    
  10340000  -5.7331393      20.392042      273.6443     
  10350000  -13.014238      22.608892      303.39259    
  10360000  -13.675372      23.522539      315.65297    
  10370000  -16.351566      23.234642      311.78963    
  10380000  -10.668545      18.197553      244.19607    
  10390000  -16.863801      26.459806      355.06867    
  10400000  -11.348021      21.505472      288.58561    
  10410000  -16.889796      21.873442      293.52346    
  10420000  -16.080604      23.462447      314.84659    
  10430000  -16.761977      18.851081      252.96588    
  10440000  -16.916692      18.237752      244.73552    
  10450000  -16.855697      25.19969       338.15895    
  10460000  -6.2288456      23.14468       310.58242    
  10470000  -4.8921546      23.04751       309.27848    
  10480000  -1.1840772      23.175144      310.99123    
  10490000   3.9831703      25.562741      343.0308     
  10500000  -12.568914      23.045537      309.252      
  10510000  -18.011882      30.193534      405.1722     
  10520000  -6.5018195      22.107161      296.65978    
  10530000  -19.344601      26.772056      359.2588     
  10540000  -9.4926518      17.565739      235.71765    
  10550000  -8.0472028      23.226589      311.68157    
  10560000  -13.954795      26.421893      354.5599     
  10570000  -13.416882      22.885694      307.10704    
  10580000  -17.881021      33.318915      447.11221    
  10590000  -10.099929      26.301647      352.9463     
  10600000  -16.287557      25.517098      342.41831    
  10610000  -13.898319      22.56564       302.81218    
  10620000  -14.751425      29.689326      398.40614    
  10630000  -4.9605455      23.934384      321.17959    
  10640000  -5.3234742      29.163679      391.3524     
  10650000  -9.4993089      26.08766       350.07478    
  10660000  -4.2566729      19.276167      258.67018    
  10670000  -8.4114847      25.622775      343.8364     
  10680000  -9.3352705      24.881159      333.88453    
  10690000  -6.4799404      27.284253      366.13206    
  10700000  -8.2325777      19.791625      265.58721    
  10710000  -9.6776933      24.239011      325.26743    
  10720000   8.8165386      22.537046      302.42848    
  10730000  -5.3505951      28.204513      378.48118    
  10740000   2.6095476      25.171224      337.77697    
  10750000  -0.32991174     24.957105      334.90366    
  10760000  -0.78159332     23.39433       313.93251    
  10770000  -6.8245095      26.603661      356.99908    
  10780000  -4.464775       28.846459      387.09557    
  10790000  -4.7886082      24.324013      326.4081     
  10800000  -11.285089      23.56075       316.16573    
  10810000  -11.50783       19.753405      265.07432    
  10820000  -8.5183447      30.164159      404.77801    
  10830000  -6.8293525      27.909838      374.52689    
  10840000  -7.7143436      19.270117      258.589      
  10850000  -11.661716      26.224287      351.90819    
  10860000  -6.6328432      22.145344      297.17216    
  10870000  -14.625219      22.656127      304.02644    
  10880000  -13.313371      18.614841      249.79573    
  10890000  -20.12109       21.490899      288.39005    
  10900000  -15.874175      23.53327       315.79698    
  10910000  -9.366912       21.288489      285.67388    
  10920000  -13.229287      18.907689      253.72551    
  10930000  -1.7182038      17.061904      228.95661    
  10940000  -2.0242955      26.447507      354.90362    
  10950000  -2.9374299      26.840891      360.18251    
  10960000  -2.8607428      26.020377      349.17189    
  10970000  -5.5492755      23.574142      316.34545    
  10980000  -14.164315      20.351002      273.09358    
  10990000  -13.88678       20.832638      279.55674    
  11000000  -11.813281      19.577162      262.70929    
  11010000  -15.410154      19.810693      265.84308    
  11020000  -19.654379      22.824749      306.28922    
  11030000  -13.936194      23.678791      317.74975    
  11040000  -15.861706      26.45455       354.99813    
  11050000  -15.564165      21.565315      289.38865    
  11060000  -16.828522      28.716768      385.35522    
  11070000  -18.211997      25.653504      344.24876    
  11080000  -10.866489      19.121586      256.59584    
  11090000  -16.461782      30.578487      410.33795    
  11100000  -11.709064      22.940094      307.83705    
  11110000  -5.8145616      28.798856      386.45678    
  11120000  -12.012072      27.612443      370.53609    
  11130000  -9.7422322      32.607879      437.5707     
  11140000  -12.023288      29.715263      398.7542     
  11150000  -10.001307      25.61167       343.68738    
  11160000  -4.1180203      20.256582      271.82654    
  11170000  -14.167972      18.996958      254.92343    
  11180000  -10.613074      19.890312      266.9115     
  11190000  -15.297936      16.977098      227.81858    
  11200000  -14.239825      17.561717      235.66369    
  11210000  -15.626776      18.818175      252.52431    
  11220000  -4.0112189      17.781839      238.61754    
  11230000  -9.8405959      22.466579      301.48287    
  11240000  -13.821656      25.51497       342.38975    
  11250000  -13.77387       23.050305      309.31598    
  11260000  -11.869551      27.313419      366.52345    
  11270000  -9.2343572      25.164465      337.68626    
  11280000  -12.315217      24.312152      326.24893    
  11290000  -9.902431       22.021809      295.51443    
  11300000  -14.663576      23.353967      313.39088    
  11310000  -3.6051122      20.046862      269.01228    
  11320000  -8.3628378      20.996445      281.75489    
  11330000   2.7357694      17.199771      230.80667    
  11340000  -6.3660129      19.152246      257.00727    
  11350000  -7.4514445      24.420689      327.7054     
  11360000  -0.32114774     25.938205      348.06921    
  11370000  -9.2770521      27.582345      370.1322     
  11380000  -10.704949      23.600111      316.69393    
  11390000  -7.0243209      23.518719      315.60172    
  11400000   0.23203716     16.73521       224.57265    
  11410000  -9.7973157      22.614434      303.46696    
  11420000  -10.179345      27.639006      370.89254    
  11430000  -4.7728798      27.420278      367.9574     
  11440000  -0.82270985     28.743043      385.70781    
  11450000   0.25569251     23.103193      310.0257     
  11460000  -5.9281941      23.408469      314.12224    
  11470000  -11.447403      27.899363      374.38633    
  11480000  -3.8780809      27.091435      363.5446     
  11490000  -8.3598394      23.306717      312.75682    
  11500000  -10.426051      33.481926      449.2997     
  11510000  -9.3089096      32.854398      440.87879    
  11520000   0.5206347      30.657926      411.40396    
  11530000  -7.1254783      30.722001      412.26379    
  11540000  -4.3884203      21.657141      290.62088    
  11550000  -8.5953829      23.363087      313.51326    
  11560000  -3.9955308      20.310557      272.55084    
  11570000  -18.434375      27.623828      370.68887    
  11580000  -11.449894      26.368093      353.83795    
  11590000  -15.881497      19.748316      265.00603    
  11600000  -8.1314955      20.738245      278.29006    
  11610000  -9.7721575      20.740037      278.31411    
  11620000  -10.74196       24.535545      329.24668    
  11630000  -11.435765      23.271799      312.28826    
  11640000  -15.828174      25.251221      338.85046    
  11650000  -5.579814       22.323062      299.55698    
  11660000  -8.0046987      18.670484      250.54242    
  11670000  -7.9598433      23.593009      316.59863    
  11680000  -12.230375      18.029794      241.94489    
  11690000  -13.51824       26.626393      357.30413    
  11700000  -13.658778      21.377652      286.87038    
  11710000  -15.179627      17.277032      231.84345    
  11720000  -12.845865      23.060488      309.45263    
  11730000  -17.765573      21.023074      282.11223    
  11740000  -13.505164      21.483487      288.29058    
  11750000  -18.457591      20.261052      271.88652    
  11760000  -12.058378      28.184318      378.21018    
  11770000  -13.301424      22.90077       307.30935    
  11780000  -9.8502421      20.699267      277.76701    
  11790000   0.023657865    20.979309      281.52494    
  11800000  -0.022857655    21.629722      290.25294    
  11810000  -2.1010234      18.949331      254.28431    
  11820000  -10.127778      27.168473      364.57839    
  11830000  -9.2394851      23.372931      313.64537    
  11840000  -3.9431701      23.40076       314.01881    
  11850000  -5.5349574      28.005323      375.80823    
  11860000  -6.5211243      29.649727      397.87475    
  11870000  -11.414137      33.627556      451.25393    
  11880000  -11.571705      23.187609      311.15849    
  11890000  -6.9925059      16.345543      219.34363    
  11900000  -9.953977       25.798603      346.19586    
  11910000   0.51758095     11.804806      158.41071    
  11920000  -12.460114      23.252774      312.03295    
  11930000  -12.334214      30.419352      408.20249    
  11940000  -6.540015       20.380217      273.48561    
  11950000  -4.2967285      20.789167      278.97339    
  11960000  -15.634609      23.576545      316.3777     
  11970000  -4.7113536      23.989709      321.92201    
  11980000  -3.1877742      20.826382      279.47278    
  11990000  -3.8618354      19.802581      265.73423    
  12000000   4.8469535      23.165257      310.85854    
  12010000   9.3235303      26.211027      351.73025    
  12020000  -10.021119      23.024381      308.96811    
  12030000  -8.8480196      26.870787      360.58369    
  12040000  -8.972952       25.216451      338.38388    
  12050000  -13.595679      30.677089      411.66111    
  12060000  -13.601342      24.467662      328.33575    
  12070000  -6.966907       18.718314      251.18426    
  12080000  -11.904938      23.026252      308.99321    
  12090000  -2.912863       20.858138      279.89892    
  12100000  -8.9633511      18.343738      246.15775    
  12110000  -6.6226549      27.627462      370.73765    
  12120000  -4.5293627      21.738635      291.71446    
  12130000  -5.8068287      25.29287       339.40934    
  12140000  -4.7603167      24.61716       330.34188    
  12150000  -7.8619524      22.156243      297.31841    
  12160000  -1.7866299      19.49658       261.62794    
  12170000   0.69389942     15.632878      209.78026    
  12180000   5.8617239      21.015064      282.00474    
  12190000   4.5122835      24.255164      325.48419    
  12200000  -0.92807825     26.157861      351.01681    
  12210000  -2.9150708      24.665286      330.98769    
  12220000   0.32311597     20.85799       279.89694    
  12230000  -2.2109153      15.734642      211.14585    
  12240000  -6.1515648      26.3265        353.2798     
  12250000  -2.637226       18.67035       250.54062    
  12260000  -13.749666      20.077892      269.42867    
  12270000  -16.493765      21.26508       285.35974    
  12280000  -9.4835415      18.203503      244.27592    
  12290000  -1.1610004      27.239962      365.53771    
  12300000  -0.65986412     27.157328      364.42884    
  12310000   4.7865325      24.444831      328.02937    
  12320000  -8.3287044      19.856284      266.45487    
  12330000  -9.6048085      18.768352      251.85572    
  12340000  -10.706325      22.912841      307.47133    
  12350000  -12.745552      26.476389      355.29119    
  12360000  -9.5767204      23.11752       310.21795    
  12370000  -8.8107936      18.392909      246.81759    
  12380000  -8.4717604      22.573286      302.91479    
  12390000  -9.6947405      21.271209      285.44199    
  12400000  -17.3005        21.295516      285.76817    
  12410000  -11.312693      19.982573      268.14956    
  12420000  -12.246223      27.12712       364.02347    
  12430000  -12.52168       24.740784      332.00081    
  12440000  -10.855895      28.245375      379.02951    
  12450000  -13.314605      20.626883      276.79568    
  12460000  -9.1528073      25.890598      347.43036    
  12470000  -10.266835      28.388749      380.95348    
  12480000  -8.795619       23.752149      318.73416    
  12490000  -0.1213957      23.238346      311.83934    
  12500000   1.9751905      23.697256      317.99753    
  12510000   1.6483199      27.421525      367.97413    
  12520000  -2.16472        19.796839      265.65717    
  12530000   1.3564905      21.296517      285.7816     
  12540000  -4.496614       23.930284      321.12458    
  12550000   0.045145976    22.612215      303.43718    
  12560000   3.2213424      24.971451      335.09617    
  12570000   0.67823072     24.79586       332.73989    
  12580000   9.5465708      22.989139      308.49518    
  12590000   12.662608      26.621379      357.23683    
  12600000   11.719406      25.452011      341.54489    
  12610000   10.090462      26.246994      352.2129     
  12620000   12.58814       21.190237      284.35541    
  12630000   2.1308288      28.925814      388.16045    
  12640000   6.880824       27.290499      366.21588    
  12650000   12.390893      20.236747      271.56037    
  12660000   10.981727      19.024382      255.29144    
  12670000   15.702622      22.218392      298.1524     
  12680000   10.730159      24.929463      334.53273    
  12690000   18.862035      23.537732      315.85686    
  12700000   15.529872      21.295177      285.76362    
  12710000   11.606569      24.717628      331.69008    
  12720000   15.514751      24.026199      322.41167    
  12730000   13.045074      28.069258      376.66618    
  12740000   23.633844      24.207457      324.84401    
  12750000   14.155983      27.766984      372.6099     
  12760000   16.462401      22.628753      303.6591     
  12770000   15.399665      29.87774       400.9345     
  12780000   16.141588      32.509598      436.25186    
  12790000   17.284291      21.651518      290.54543    
  12800000   16.663348      26.538601      356.12603    
  12810000   13.742001      22.286994      299.07298    
  12820000   17.574982      18.051007      242.22955    
  12830000   19.173323      19.368091      259.90372    
  12840000   14.844739      25.188018      338.00232    
  12850000   10.552075      26.503363      355.65317    
  12860000   13.250304      24.608236      330.22213    
  12870000   20.974318      25.592134      343.42523    
  12880000   17.589041      18.543173      248.83401    
  12890000   15.509945      21.555967      289.26321    
  12900000   14.486088      21.366831      286.72516    
  12910000   17.431158      18.14761       243.52589    
  12920000   11.489042      22.360593      300.06063    
  12930000   16.440106      23.996765      322.0167     
  12940000   18.415353      22.959885      308.10263    
  12950000   18.517506      19.422422      260.6328     
  12960000   14.222852      19.212848      257.82049    
  12970000   9.0422603      20.981114      281.54916    
  12980000   13.645827      27.179099      364.72098    
  12990000   20.785418      23.69025       317.90352    
  13000000   9.1055266      24.646905      330.74103    
  13010000   11.857425      26.767383      359.19609    
  13020000   13.168051      24.504452      328.82944    
  13030000   10.670949      24.139996      323.93874    
  13040000   10.888775      24.186375      324.56111    
  13050000   17.903364      27.933662      374.84659    
  13060000   11.222645      25.949344      348.21868    
  13070000   14.687733      18.736976      251.43469    
  13080000   12.495129      25.773289      345.85618    
  13090000   17.222894      19.765015      265.23011    
  13100000   13.602386      26.516063      355.82359    
  13110000   13.221318      17.588746      236.0264     
  13120000   10.506071      18.935478      254.09842    
  13130000   10.769538      28.094727      377.00795    
  13140000   16.621507      20.933539      280.91074    
  13150000   11.127192      21.800673      292.54696    
  13160000   12.827861      21.762304      292.03209    
  13170000   16.003893      24.428259      327.80698    
  13180000   14.267891      24.031061      322.47692    
[...]
  23330000  -7.7118329      26.066333      349.78858    
  23340000  -15.505979      25.071576      336.43976    
  23350000  -11.943241      22.302631      299.28282    
  23360000  -13.034598      13.358803      179.26406    
  23370000  -13.687326      24.8224        333.09603    
  23380000  -7.0238362      22.096592      296.51795    
  23390000  -7.3841785      17.87354       239.8481     
  23400000  -14.722687      24.396797      327.3848     
  23410000  -14.147362      24.959031      334.9295     
  23420000  -8.5726054      27.572952      370.00616    
  23430000  -8.8297908      21.444892      287.77268    
  23440000  -11.714322      23.454653      314.742      
  23450000  -10.496611      27.151543      364.35121    
  23460000  -12.932148      25.37216       340.47336    
  23470000  -10.173605      22.934315      307.75949    
  23480000  -18.098775      23.259862      312.12806    
  23490000  -17.071965      21.808408      292.65075    
  23500000  -14.069323      19.033123      255.40874    
  23510000  -17.312836      25.113444      337.0016     
  23520000  -9.5397008      25.207139      338.25891    
  23530000  -10.273265      28.483319      382.22253    
  23540000  -13.246696      15.911636      213.52096    
  23550000  -16.562837      19.677381      264.05414    
  23560000  -10.198069      19.900727      267.05126    
  23570000  -10.80103       24.014202      322.25068    
  23580000  -2.6038962      19.596594      262.97005    
  23590000  -2.4636671      16.286485      218.55113    
  23600000  -5.1554508      21.182747      284.25491    
  23610000  -6.7648399      22.281562      299.0001     
  23620000  -10.401668      27.680597      371.45066    
  23630000  -11.358224      23.009345      308.76634    
  23640000  -17.100733      30.475887      408.96114    
  23650000  -6.4271929      22.650469      303.95052    
  23660000  -3.243883       22.259651      298.70606    
  23670000  -8.2527491      17.581793      235.93309    
  23680000  -12.234154      24.937564      334.64144    
  23690000  -11.336396      32.392585      434.68164    
  23700000  -9.9074241      23.903585      320.7663     
  23710000  -6.4261894      27.13816       364.17162    
  23720000  -5.1960948      25.481718      341.94354    
  23730000  -7.3729731      27.444989      368.289      
  23740000  -5.4812031      26.543192      356.18763    
  23750000  -9.9866413      27.553746      369.74843    
  23760000  -12.406592      28.10807       377.18701    
  23770000  -13.849419      18.951411      254.31222    
  23780000  -19.567835      24.49345       328.6818     
  23790000  -14.935177      16.504415      221.47557    
  23800000  -17.976391      18.038888      242.06692    
  23810000  -13.431816      16.62596       223.10661    
  23820000  -14.648619      19.779457      265.42391    
  23830000  -12.747444      20.401737      273.7744     
  23840000  -15.581238      22.563257      302.7802     
  23850000  -13.745446      22.345364      299.85626    
  23860000  -11.039937      15.603862      209.3909     
  23870000  -16.792129      16.88677       226.60646    
  23880000  -18.987422      18.504199      248.31102    
  23890000  -18.220863      17.993487      241.45769    
  23900000  -18.512579      20.49001       274.95896    
  23910000  -16.003403      17.012595      228.29492    
  23920000  -7.172083       15.652855      210.04834    
  23930000  -12.999868      21.338581      286.34607    
  23940000  -14.435302      21.926022      294.22904    
  23950000  -14.694359      24.379661      327.15485    
  23960000  -0.85021426     19.102524      256.34003    
  23970000  -10.920001      26.078727      349.95489    
  23980000  -7.5077404      20.173208      270.70773    
  23990000  -12.857034      20.702661      277.81254    
  24000000  -13.328492      26.356725      353.6854     
  24010000  -8.6919772      17.962958      241.048      
  24020000  -10.583111      20.407493      273.85165    
  24030000  -8.4500975      25.579478      343.25539    
  24040000  -4.2912609      25.752507      345.57729    
  24050000  -0.40743737     24.753076      332.16576    
  24060000  -4.8346941      28.067158      376.638      
  24070000  -8.7252034      26.784136      359.4209     
  24080000  -11.791961      29.769832      399.48647    
  24090000  -14.600988      21.554915      289.24909    
  24100000  -8.1595616      18.949749      254.28993    
  24110000  -10.702267      18.102085      242.91497    
  24120000  -16.145657      23.924206      321.04302    
  24130000  -11.733515      18.911454      253.77604    
  24140000  -13.160314      18.481708      248.0092     
  24150000  -16.21386       18.097325      242.8511     
  24160000  -16.67245       21.630035      290.25714    
  24170000  -14.658285      23.55751       316.12226    
  24180000  -14.410849      29.655473      397.95186    
  24190000  -11.052767      20.908016      280.56824    
  24200000  -14.833282      20.276744      272.09709    
  24210000  -11.840912      21.580955      289.59853    
  24220000  -6.9735422      24.285578      325.89233    
  24230000  -7.4496218      23.071327      309.59808    
  24240000  -12.445155      27.120494      363.93455    
  24250000  -7.8004608      26.942718      361.54895    
  24260000  -3.8292927      30.114383      404.11005    
  24270000  -16.304612      26.565888      356.4922     
  24280000  -5.0679463      27.963381      375.24539    
  24290000  -12.906285      28.893054      387.72083    
  24300000  -12.152845      24.191491      324.62976    
  24310000  -11.962735      29.674164      398.20269    
  24320000  -3.082156       20.222419      271.36811    
  24330000  -4.8835838      28.52745       382.81474    
  24340000  -7.8029033      20.793433      279.03064    
  24350000  -7.1108304      18.537715      248.76077    
  24360000   0.22675592     21.048462      282.45292    
  24370000   6.5357001      16.264178      218.25178    
  24380000  -5.3846447      23.272016      312.29117    
  24390000  -5.3623489      26.228085      351.95915    
  24400000   7.8226185      20.077283      269.4205     
  24410000   1.0791371      28.727945      385.5052     
  24420000  -2.3812966      26.670812      357.90019    
  24430000   1.9689544      21.4429        287.74595    
  24440000   6.9921146      24.529632      329.16732    
  24450000  -1.8355448      25.420584      341.12316    
  24460000   7.4730574      22.572399      302.90288    
  24470000   2.5900833      24.099842      323.3999     
  24480000  -5.7189436      27.813416      373.23299    
  24490000   3.9590496      20.637092      276.93266    
  24500000  -0.86832463     24.629845      330.5121     
  24510000  -4.3089821      28.21699       378.64861    
  24520000  -0.80315792     22.140138      297.1023     
  24530000  -15.379246      29.329011      393.57102    
  24540000  -17.164821      27.485321      368.83023    
  24550000  -11.540185      19.320293      259.26231    
  24560000  -12.800441      22.746727      305.24223    
  24570000  -15.558305      26.814399      359.82701    
  24580000  -7.8460028      18.589379      249.45405    
  24590000  -10.482534      21.82106       292.82053    
  24600000  -14.478076      24.129635      323.79969    
  24610000  -5.9734139      27.547209      369.66071    
  24620000  -8.5564366      24.826113      333.14586    
  24630000  -2.3271499      19.660266      263.82448    
  24640000  -5.2305685      24.755216      332.19448    
  24650000  -9.2994286      17.901812      240.22748    
  24660000  -15.440385      22.883676      307.07997    
  24670000  -10.470977      26.746532      358.91629    
  24680000  -8.1287823      18.741244      251.49196    
  24690000  -14.259605      22.212304      298.07071    
  24700000  -9.7599404      17.74493       238.12226    
  24710000  -14.743206      26.769918      359.23011    
  24720000  -14.019812      27.988055      375.5765     
  24730000  -14.507096      29.809349      400.01675    
  24740000  -11.135107      28.587806      383.62466    
  24750000  -5.6995001      19.056348      255.72039    
  24760000  -7.8090774      23.656564      317.45148    
  24770000  -12.475645      18.027722      241.91708    
  24780000  -15.246304      15.903294      213.40903    
  24790000  -18.023753      21.508308      288.62366    
  24800000  -12.585045      26.401494      354.28616    
  24810000  -6.9298189      22.730228      305.02082    
  24820000  -13.066025      23.174218      310.97879    
  24830000  -13.488671      24.662698      330.95296    
  24840000  -9.4919129      18.014562      241.74049    
  24850000  -7.5043554      16.519024      221.67162    
  24860000  -14.298447      30.660232      411.4349     
  24870000  -10.107979      27.874427      374.05171    
  24880000  -10.513686      23.476902      315.04056    
  24890000  -16.895989      22.39915       300.57803    
  24900000  -12.922583      20.358311      273.19166    
  24910000  -12.669673      24.806834      332.88715    
  24920000  -15.516022      17.625576      236.52062    
  24930000  -19.814488      16.990148      227.9937     
  24940000  -12.983179      16.511735      221.57379    
  24950000  -9.1959207      24.470355      328.37188    
  24960000  -5.2637686      24.104969      323.46871    
  24970000  -1.9690448      28.578724      383.50279    
  24980000  -8.4408371      24.403432      327.47383    
  24990000  -12.889519      19.767637      265.26531    
  25000000  -9.2684878      26.701797      358.31598    
  25010000  -10.957025      23.318919      312.92057    
  25020000  -13.972974      27.075622      363.3324     
  25030000  -7.7291795      23.392465      313.90749    
  25040000  -8.2977205      31.426574      421.71857    
  25050000   0.075801189    16.794382      225.36668    
  25060000  -1.1640198      27.064042      363.17701    
  25070000  -8.9146154      22.057839      295.99791    
  25080000  -14.247499      24.000196      322.06274    
  25090000  -7.3959052      20.967177      281.36214    
  25100000  -7.7426516      19.566207      262.56229    
  25110000  -9.9303068      26.838166      360.14594    
  25120000  -8.6540673      25.302261      339.53538    
  25130000   0.5561473      23.900883      320.73004    
  25140000   7.7893137      25.120678      337.09867    
  25150000  -4.7346561      25.547063      342.82041    
  25160000  -4.746679       22.553858      302.65408    
  25170000  -6.4851882      20.061736      269.21187    
  25180000  -15.281191      21.929574      294.27671    
  25190000  -17.963071      23.429554      314.40519    
  25200000  -9.5598715      20.281187      272.15672    
  25210000  -8.4988141      19.845563      266.31101    
  25220000  -10.802353      25.549944      342.85907    
  25230000  -12.272396      28.260893      379.23775    
  25240000  -12.17736       26.933124      361.42019    
  25250000  -7.7761772      23.236934      311.82039    
  25260000  -13.59813       25.323535      339.82085    
  25270000  -8.7693588      16.076791      215.7372     
  25280000  -16.569135      20.358865      273.19909    
  25290000  -13.751424      23.003933      308.69371    
  25300000  -13.543058      22.672722      304.24914    
  25310000  -9.7296931      20.445482      274.36142    
  25320000  -12.337523      20.080903      269.46907    
  25330000  -4.9937767      22.118252      296.80861    
  25340000  -10.602054      25.482232      341.95044    
  25350000  -5.9565828      27.96217       375.22915    
  25360000  -7.7937868      23.50973       315.48109    
  25370000  -9.7934809      23.765918      318.91892    
  25380000  -11.288212      20.145529      270.33631    
  25390000  -10.462437      17.749642      238.18549    
  25400000  -15.596342      21.197238      284.44936    
  25410000  -17.591423      26.540543      356.15208    
  25420000  -10.893475      24.19147       324.62948    
  25430000  -15.650661      29.588594      397.05441    
  25440000  -2.4536592      22.521767      302.22345    
  25450000  -1.349417       34.530546      463.3713     
  25460000   2.1875041      19.884064      266.82766    
  25470000  -4.5819933      21.216257      284.70458    
  25480000  -13.595773      27.025503      362.65985    
  25490000  -12.288582      21.381107      286.91673    
  25500000  -13.922113      23.196966      311.28406    
  25510000  -21.45587       28.126425      377.43332    
  25520000  -17.267965      27.128199      364.03794    
  25530000  -15.23719       27.125864      364.00661    
  25540000  -11.738523      17.957034      240.96851    
  25550000  -9.7059693      14.836546      199.09415    
  25560000  -16.09874       22.063065      296.06804    
  25570000  -9.3305759      25.514952      342.3895     
  25580000  -6.0271132      17.284616      231.94522    
  25590000  -17.393086      18.996851      254.922      
  25600000  -15.55508       20.311626      272.56519    
  25610000  -12.902664      21.07027       282.74556    
  25620000  -15.551487      21.007387      281.90172    
  25630000  -17.475327      26.375012      353.9308     
  25640000  -19.725162      27.1466        364.28487    
  25650000  -12.140626      27.953707      375.11558    
  25660000  -7.4322634      18.875989      253.30013    
  25670000  -11.980756      18.797525      252.24721    
  25680000   0.73904262     18.475354      247.92394    
  25690000  -7.7287085      23.562774      316.19289    
  25700000  -14.529019      28.611751      383.94598    
  25710000  -17.96237       19.657856      263.79214    
  25720000  -13.200637      19.140186      256.84543    
  25730000  -10.014457      18.740401      251.48065    
  25740000  -22.847945      27.813395      373.23271    
  25750000  -7.8304926      20.188447      270.91222    
  25760000  -16.240288      24.189223      324.59933    
  25770000  -14.692038      23.669362      317.62322    
  25780000  -9.8821713      23.46025       314.81711    
  25790000  -12.332027      35.873508      481.39275    
  25800000  -2.9328366      28.253065      379.13271    
  25810000   3.1193882      30.293518      406.51391    
  25820000  -1.6701645      27.229682      365.39976    
  25830000   4.6122785      23.413968      314.19604    
  25840000   7.6926389      24.358754      326.87429    
  25850000   11.066312      29.385381      394.32746    
  25860000   13.239381      25.882289      347.31886    
  25870000   11.816757      17.659738      236.97905    
  25880000   14.774344      21.293338      285.73894    
  25890000   19.771678      25.992228      348.79416    
  25900000   15.468081      21.744064      291.78731    
  25910000   15.17177       19.663277      263.86487    
  25920000   16.06463       18.395201      246.84835    
  25930000   14.237908      20.552567      275.79841    
  25940000   15.028984      20.671825      277.39875    
  25950000   15.566812      25.42131       341.1329     
  25960000   17.727062      25.15273       337.52879    
  25970000   14.907173      23.334463      313.12915    
  25980000   14.031151      22.714618      304.81135    
  25990000   6.3881523      26.142578      350.81173    
  26000000   12.071697      28.268812      379.34402    
  26010000   8.2645081      22.483746      301.71324    
  26020000   11.046479      27.633675      370.82101    
  26030000   8.8566567      19.494032      261.59375    
  26040000  -1.9879037      22.180321      297.64152    
  26050000   4.2291298      23.878407      320.42843    
  26060000  -0.96886173     23.097562      309.95013    
  26070000   1.1088792      25.016705      335.70345    
  26080000  -7.3161808      20.534383      275.5544     
  26090000   0.88719597     25.295849      339.44933    
  26100000   1.4239339      20.984715      281.59748    
  26110000  -1.7871418      22.52051       302.20658    
  26120000  -4.8792027      23.44107       314.55974    
  26130000  -4.9410521      19.513984      261.86149    
  26140000  -8.571953       21.247511      285.12399    
  26150000  -0.60549918     12.72062       170.70017    
  26160000   0.93827961     19.152593      257.01192    
  26170000  -9.0288536      20.778861      278.83509    
  26180000  -8.2245817      24.365252      326.96148    
  26190000  -1.8604029      23.194217      311.24717    
  26200000  -4.3498071      23.262288      312.16062    
  26210000  -17.728895      32.122761      431.06083    
  26220000  -16.000074      23.121828      310.27576    
  26230000  -18.647775      22.466         301.47509    
  26240000  -21.269451      21.460948      287.98814    
  26250000  -17.409303      20.638459      276.95101    
  26260000  -13.925276      31.414408      421.55532    
  26270000  -4.5006395      24.464965      328.29955    
  26280000  -12.675161      22.535993      302.41435    
  26290000  -17.241262      16.431474      220.49676    
  26300000  -11.278508      24.160704      324.21662    
  26310000  -7.7337038      17.298112      232.12633    
  26320000  -14.9688        27.07901       363.37786    
  26330000  -12.763564      20.086196      269.5401     
  26340000  -14.671437      22.306441      299.33395    
  26350000  -6.9865958      22.333889      299.70228    
  26360000  -3.8031999      21.527565      288.88208    
  26370000  -13.927916      23.216696      311.54881    
  26380000  -10.017097      18.793133      252.18826    
  26390000  -8.0423115      22.320226      299.51893    
  26400000  -7.4701961      22.786851      305.78065    
  26410000  -13.96196       21.453433      287.88728    
  26420000  -13.295355      21.464465      288.03533    
  26430000  -6.2033081      24.236766      325.23731    
  26440000  -10.517505      20.123856      270.04547    
  26450000  -14.664129      20.258742      271.85553    
  26460000  -11.161612      25.183388      337.94019    
  26470000  -17.619935      21.201157      284.50195    
  26480000  -10.61065       23.979817      321.78926    
  26490000  -6.6609714      19.992277      268.27978    
  26500000  -16.989089      25.723161      345.1835     
  26510000  -10.293854      24.299658      326.08126    
  26520000  -7.7267358      23.253194      312.03859    
  26530000  -18.067418      23.147931      310.62604    
  26540000  -13.2237        18.032441      241.98041    
  26550000  -7.5651686      30.878381      414.36228    
  26560000  -5.1936293      24.008982      322.18064    
  26570000   3.6838833      27.446286      368.3064     
  26580000  -8.5173143      22.023105      295.53181    
  26590000  -11.964071      22.046572      295.84672    
  26600000  -6.5789943      23.994325      321.98395    
WARNING: Wall time limit reached (src/timer.cpp:194)
Loop time of 299.996 on 1 procs for 26601050 steps with 26 atoms

Performance: 76612.115 ns/day, 0.000 hours/ns, 88671.429 timesteps/s, 2.305 Matom-step/s
99.1% CPU use with 1 MPI tasks x 1 OpenMP threads

MPI task timing breakdown:
Section |  min time  |  avg time  |  max time  |%varavg| %total
---------------------------------------------------------------
Pair    | 224.95     | 224.95     | 224.95     |   0.0 | 74.99
Bond    | 32.201     | 32.201     | 32.201     |   0.0 | 10.73
Neigh   | 8.6581     | 8.6581     | 8.6581     |   0.0 |  2.89
Comm    | 11.495     | 11.495     | 11.495     |   0.0 |  3.83
Output  | 0.79397    | 0.79397    | 0.79397    |   0.0 |  0.26
Modify  | 18.141     | 18.141     | 18.141     |   0.0 |  6.05
Other   |            | 3.752      |            |       |  1.25

Nlocal:             26 ave          26 max          26 min
Histogram: 1 0 0 0 0 0 0 0 0 0
Nghost:              0 ave           0 max           0 min
Histogram: 1 0 0 0 0 0 0 0 0 0
Neighs:            142 ave         142 max         142 min
Histogram: 1 0 0 0 0 0 0 0 0 0

Total # of neighbors = 142
Ave neighs/atom = 5.4615385
Ave special neighs/atom = 5.5384615
Neighbor list builds = 57836
Dangerous builds = 0
