LAMMPS data file — Week 13 combined RNA+ASO | target=1P5O | aso=CUGCGUGAAG | n_aso=50 | box=±300.0

577 atoms
526 bonds
475 angles

4 atom types
1 bond types
1 angle types

-300.000000  300.000000  xlo xhi
-300.000000  300.000000  ylo yhi
-300.000000  300.000000  zlo zhi

Masses

1 329.20
2 305.20
3 345.20
4 306.20

Atoms

1 1 2 0.000000 20.000000 0.000000 0.000000
2 1 4 0.000000 25.900000 0.000000 0.000000
3 1 3 0.000000 31.800000 0.000000 0.000000
4 1 2 0.000000 37.700000 0.000000 0.000000
5 1 3 0.000000 43.600000 0.000000 0.000000
6 1 4 0.000000 49.500000 0.000000 0.000000
7 1 3 0.000000 55.400000 0.000000 0.000000
8 1 1 0.000000 61.300000 0.000000 0.000000
9 1 1 0.000000 67.200000 0.000000 0.000000
10 1 3 0.000000 73.100000 0.000000 0.000000
11 2 3 0.000000 37.431896 -5.608065 -9.133909
12 2 3 0.000000 32.450896 -2.996065 -9.410909
13 2 2 0.000000 27.778896 -2.544065 -6.456909
14 2 4 0.000000 24.989896 -2.254065 -1.347909
15 2 3 0.000000 25.065896 -2.850065 4.318091
16 2 4 0.000000 24.955896 -2.910065 9.374091
17 2 3 0.000000 27.122896 1.276935 9.658091
18 2 1 0.000000 29.938896 5.307935 12.109091
19 2 3 0.000000 31.417896 10.754935 11.553091
20 2 3 0.000000 30.298896 16.038935 9.339091
21 2 1 0.000000 27.646896 19.056935 5.227091
22 2 1 0.000000 23.312896 18.920935 1.746091
23 2 2 0.000000 17.963896 17.439935 2.087091
24 2 4 0.000000 14.485896 21.395935 -0.726909
25 2 1 0.000000 15.310896 21.839935 -5.269909
26 2 2 0.000000 15.354896 18.031935 -9.055909
27 2 4 0.000000 13.518896 12.822935 -9.582909
28 2 3 0.000000 10.466896 8.152935 -7.447909
29 2 4 0.000000 8.004896 6.299935 -2.944909
30 2 2 0.000000 5.377896 7.088935 2.131091
31 2 4 0.000000 0.934896 9.334935 4.549091
32 2 4 0.000000 -2.945104 13.469935 4.632091
33 2 2 0.000000 -6.538104 17.124935 2.067091
34 2 1 0.000000 -10.870104 17.298935 -1.750909
35 2 2 0.000000 -12.642104 15.443935 -6.872909
36 2 3 0.000000 -13.105104 10.803935 -9.777909
37 2 2 0.000000 -13.851104 5.057935 -11.738909
38 2 1 0.000000 -14.688104 -0.843065 -9.480909
39 2 3 0.000000 -15.854104 -5.216065 -6.601909
40 2 1 0.000000 -17.771104 -8.602065 -2.048909
41 2 1 0.000000 -18.404104 -12.127065 1.680091
42 2 1 0.000000 -20.116104 -14.156065 7.006091
43 2 3 0.000000 -25.057104 -13.558065 9.018091
44 2 2 0.000000 -30.433104 -12.458065 8.109091
45 2 3 0.000000 -35.176104 -13.978065 5.306091
46 2 4 0.000000 -38.105104 -17.732065 2.309091
47 2 2 0.000000 -39.092104 -22.004065 -1.876909
48 2 4 0.000000 -38.266104 -26.931065 -4.333909
49 2 1 0.000000 -36.737104 -31.944065 -2.845909
50 2 3 0.000000 -39.079104 -34.504065 1.100091
51 2 2 0.000000 -35.326104 -35.268065 6.192091
52 2 2 0.000000 -30.822104 -31.966065 7.493091
53 2 1 0.000000 -28.387104 -26.590065 4.610091
54 2 4 0.000000 -24.324104 -27.217065 0.192091
55 2 3 0.000000 -26.167104 -25.859065 -4.428909
56 2 3 0.000000 -28.514104 -21.092065 -6.749909
57 2 2 0.000000 -30.667104 -15.794065 -6.607909
58 2 3 0.000000 -30.645104 -10.053065 -4.998909
59 2 4 0.000000 -29.906104 -6.447065 -0.794909
60 2 4 0.000000 -26.204104 -4.844065 2.811091
61 2 1 0.000000 -26.273104 -0.715065 -0.400909
62 2 3 0.000000 -22.621104 2.826935 -3.445909
63 2 4 0.000000 -20.495104 2.208935 2.188091
64 2 1 0.000000 -15.608104 0.767935 5.088091
65 2 4 0.000000 -10.687104 0.382935 3.176091
66 2 3 0.000000 -6.724104 0.426935 -1.034909
67 2 1 0.000000 -4.576104 2.396935 -5.925909
68 2 3 0.000000 -2.306104 6.608935 -9.165909
69 2 4 0.000000 -1.807104 12.177935 -10.836909
70 2 3 0.000000 0.440896 17.019935 -9.679909
71 2 4 0.000000 1.612896 19.816935 -4.812909
72 2 2 0.000000 3.339896 20.076935 0.660091
73 2 3 0.000000 7.279896 20.880935 5.115091
74 2 4 0.000000 12.889896 21.505935 6.628091
75 2 3 0.000000 12.503896 15.471935 5.556091
76 2 2 0.000000 14.662896 10.366935 5.662091
77 2 1 0.000000 17.715896 7.386935 2.235091
78 2 3 0.000000 21.744896 7.707935 -1.529909
79 2 2 0.000000 26.949896 10.337935 -2.730909
80 2 2 0.000000 32.366896 11.042935 -2.076909
81 2 4 0.000000 36.322896 9.321935 1.248091
82 2 2 0.000000 38.678896 5.314935 5.168091
83 2 2 0.000000 37.957896 0.363935 7.404091
84 2 1 0.000000 35.259896 -4.564065 7.099091
85 2 3 0.000000 32.322896 -9.011065 4.833091
86 2 2 0.000000 27.905896 -11.350065 1.170091
87 2 2 0.000000 27.004896 -13.390065 -3.920909
88 3 2 0.000000 54.317543 -275.493762 -130.482995
89 3 4 0.000000 60.217543 -275.493762 -130.482995
90 3 3 0.000000 66.117543 -275.493762 -130.482995
91 3 2 0.000000 72.017543 -275.493762 -130.482995
92 3 3 0.000000 77.917543 -275.493762 -130.482995
93 3 4 0.000000 83.817543 -275.493762 -130.482995
94 3 3 0.000000 89.717543 -275.493762 -130.482995
95 3 1 0.000000 95.617543 -275.493762 -130.482995
96 3 1 0.000000 101.517543 -275.493762 -130.482995
97 3 3 0.000000 107.417543 -275.493762 -130.482995
98 4 2 0.000000 -187.087772 137.153304 102.485703
99 4 4 0.000000 -181.187772 137.153304 102.485703
100 4 3 0.000000 -175.287772 137.153304 102.485703
101 4 2 0.000000 -169.387772 137.153304 102.485703
102 4 3 0.000000 -163.487772 137.153304 102.485703
103 4 4 0.000000 -157.587772 137.153304 102.485703
104 4 3 0.000000 -151.687772 137.153304 102.485703
105 4 1 0.000000 -145.787772 137.153304 102.485703
106 4 1 0.000000 -139.887772 137.153304 102.485703
107 4 3 0.000000 -133.987772 137.153304 102.485703
108 5 2 0.000000 200.914149 -239.575477 -45.285345
109 5 4 0.000000 206.814149 -239.575477 -45.285345
110 5 3 0.000000 212.714149 -239.575477 -45.285345
111 5 2 0.000000 218.614149 -239.575477 -45.285345
112 5 3 0.000000 224.514149 -239.575477 -45.285345
113 5 4 0.000000 230.414149 -239.575477 -45.285345
114 5 3 0.000000 236.314149 -239.575477 -45.285345
115 5 1 0.000000 242.214149 -239.575477 -45.285345
116 5 1 0.000000 248.114149 -239.575477 -45.285345
117 5 3 0.000000 254.014149 -239.575477 -45.285345
118 6 2 0.000000 -299.267613 -163.189975 3.106067
119 6 4 0.000000 -293.367613 -163.189975 3.106067
120 6 3 0.000000 -287.467613 -163.189975 3.106067
121 6 2 0.000000 -281.567613 -163.189975 3.106067
122 6 3 0.000000 -275.667613 -163.189975 3.106067
123 6 4 0.000000 -269.767613 -163.189975 3.106067
124 6 3 0.000000 -263.867613 -163.189975 3.106067
125 6 1 0.000000 -257.967613 -163.189975 3.106067
126 6 1 0.000000 -252.067613 -163.189975 3.106067
127 6 3 0.000000 -246.167613 -163.189975 3.106067
128 7 2 0.000000 -301.159138 -174.674163 86.932974
129 7 4 0.000000 -295.259138 -174.674163 86.932974
130 7 3 0.000000 -289.359138 -174.674163 86.932974
131 7 2 0.000000 -283.459138 -174.674163 86.932974
132 7 3 0.000000 -277.559138 -174.674163 86.932974
133 7 4 0.000000 -271.659138 -174.674163 86.932974
134 7 3 0.000000 -265.759138 -174.674163 86.932974
135 7 1 0.000000 -259.859138 -174.674163 86.932974
136 7 1 0.000000 -253.959138 -174.674163 86.932974
137 7 3 0.000000 -248.059138 -174.674163 86.932974
138 8 2 0.000000 -0.483941 -162.144439 51.774097
139 8 4 0.000000 5.416059 -162.144439 51.774097
140 8 3 0.000000 11.316059 -162.144439 51.774097
141 8 2 0.000000 17.216059 -162.144439 51.774097
142 8 3 0.000000 23.116059 -162.144439 51.774097
143 8 4 0.000000 29.016059 -162.144439 51.774097
144 8 3 0.000000 34.916059 -162.144439 51.774097
145 8 1 0.000000 40.816059 -162.144439 51.774097
146 8 1 0.000000 46.716059 -162.144439 51.774097
147 8 3 0.000000 52.616059 -162.144439 51.774097
148 9 2 0.000000 152.919665 -286.230719 177.375166
149 9 4 0.000000 158.819665 -286.230719 177.375166
150 9 3 0.000000 164.719665 -286.230719 177.375166
151 9 2 0.000000 170.619665 -286.230719 177.375166
152 9 3 0.000000 176.519665 -286.230719 177.375166
153 9 4 0.000000 182.419665 -286.230719 177.375166
154 9 3 0.000000 188.319665 -286.230719 177.375166
155 9 1 0.000000 194.219665 -286.230719 177.375166
156 9 1 0.000000 200.119665 -286.230719 177.375166
157 9 3 0.000000 206.019665 -286.230719 177.375166
158 10 2 0.000000 88.370849 -92.654700 -199.821890
159 10 4 0.000000 94.270849 -92.654700 -199.821890
160 10 3 0.000000 100.170849 -92.654700 -199.821890
161 10 2 0.000000 106.070849 -92.654700 -199.821890
162 10 3 0.000000 111.970849 -92.654700 -199.821890
163 10 4 0.000000 117.870849 -92.654700 -199.821890
164 10 3 0.000000 123.770849 -92.654700 -199.821890
165 10 1 0.000000 129.670849 -92.654700 -199.821890
166 10 1 0.000000 135.570849 -92.654700 -199.821890
167 10 3 0.000000 141.470849 -92.654700 -199.821890
168 11 2 0.000000 238.633582 -94.775164 -236.207411
169 11 4 0.000000 244.533582 -94.775164 -236.207411
170 11 3 0.000000 250.433582 -94.775164 -236.207411
171 11 2 0.000000 256.333582 -94.775164 -236.207411
172 11 3 0.000000 262.233582 -94.775164 -236.207411
173 11 4 0.000000 268.133582 -94.775164 -236.207411
174 11 3 0.000000 274.033582 -94.775164 -236.207411
175 11 1 0.000000 279.933582 -94.775164 -236.207411
176 11 1 0.000000 285.833582 -94.775164 -236.207411
177 11 3 0.000000 291.733582 -94.775164 -236.207411
178 12 2 0.000000 -260.454501 201.546732 60.161098
179 12 4 0.000000 -254.554501 201.546732 60.161098
180 12 3 0.000000 -248.654501 201.546732 60.161098
181 12 2 0.000000 -242.754501 201.546732 60.161098
182 12 3 0.000000 -236.854501 201.546732 60.161098
183 12 4 0.000000 -230.954501 201.546732 60.161098
184 12 3 0.000000 -225.054501 201.546732 60.161098
185 12 1 0.000000 -219.154501 201.546732 60.161098
186 12 1 0.000000 -213.254501 201.546732 60.161098
187 12 3 0.000000 -207.354501 201.546732 60.161098
188 13 2 0.000000 151.584398 133.244436 21.012293
189 13 4 0.000000 157.484398 133.244436 21.012293
190 13 3 0.000000 163.384398 133.244436 21.012293
191 13 2 0.000000 169.284398 133.244436 21.012293
192 13 3 0.000000 175.184398 133.244436 21.012293
193 13 4 0.000000 181.084398 133.244436 21.012293
194 13 3 0.000000 186.984398 133.244436 21.012293
195 13 1 0.000000 192.884398 133.244436 21.012293
196 13 1 0.000000 198.784398 133.244436 21.012293
197 13 3 0.000000 204.684398 133.244436 21.012293
198 14 2 0.000000 247.857143 -70.450061 30.183566
199 14 4 0.000000 253.757143 -70.450061 30.183566
200 14 3 0.000000 259.657143 -70.450061 30.183566
201 14 2 0.000000 265.557143 -70.450061 30.183566
202 14 3 0.000000 271.457143 -70.450061 30.183566
203 14 4 0.000000 277.357143 -70.450061 30.183566
204 14 3 0.000000 283.257143 -70.450061 30.183566
205 14 1 0.000000 289.157143 -70.450061 30.183566
206 14 1 0.000000 295.057143 -70.450061 30.183566
207 14 3 0.000000 300.957143 -70.450061 30.183566
208 15 2 0.000000 164.504705 68.741456 209.790002
209 15 4 0.000000 170.404705 68.741456 209.790002
210 15 3 0.000000 176.304705 68.741456 209.790002
211 15 2 0.000000 182.204705 68.741456 209.790002
212 15 3 0.000000 188.104705 68.741456 209.790002
213 15 4 0.000000 194.004705 68.741456 209.790002
214 15 3 0.000000 199.904705 68.741456 209.790002
215 15 1 0.000000 205.804705 68.741456 209.790002
216 15 1 0.000000 211.704705 68.741456 209.790002
217 15 3 0.000000 217.604705 68.741456 209.790002
218 16 2 0.000000 18.314244 118.651665 -263.421857
219 16 4 0.000000 24.214244 118.651665 -263.421857
220 16 3 0.000000 30.114244 118.651665 -263.421857
221 16 2 0.000000 36.014244 118.651665 -263.421857
222 16 3 0.000000 41.914244 118.651665 -263.421857
223 16 4 0.000000 47.814244 118.651665 -263.421857
224 16 3 0.000000 53.714244 118.651665 -263.421857
225 16 1 0.000000 59.614244 118.651665 -263.421857
226 16 1 0.000000 65.514244 118.651665 -263.421857
227 16 3 0.000000 71.414244 118.651665 -263.421857
228 17 2 0.000000 -184.369000 -122.154981 -243.720653
229 17 4 0.000000 -178.469000 -122.154981 -243.720653
230 17 3 0.000000 -172.569000 -122.154981 -243.720653
231 17 2 0.000000 -166.669000 -122.154981 -243.720653
232 17 3 0.000000 -160.769000 -122.154981 -243.720653
233 17 4 0.000000 -154.869000 -122.154981 -243.720653
234 17 3 0.000000 -148.969000 -122.154981 -243.720653
235 17 1 0.000000 -143.069000 -122.154981 -243.720653
236 17 1 0.000000 -137.169000 -122.154981 -243.720653
237 17 3 0.000000 -131.269000 -122.154981 -243.720653
238 18 2 0.000000 -181.531286 -231.419171 -128.775310
239 18 4 0.000000 -175.631286 -231.419171 -128.775310
240 18 3 0.000000 -169.731286 -231.419171 -128.775310
241 18 2 0.000000 -163.831286 -231.419171 -128.775310
242 18 3 0.000000 -157.931286 -231.419171 -128.775310
243 18 4 0.000000 -152.031286 -231.419171 -128.775310
244 18 3 0.000000 -146.131286 -231.419171 -128.775310
245 18 1 0.000000 -140.231286 -231.419171 -128.775310
246 18 1 0.000000 -134.331286 -231.419171 -128.775310
247 18 3 0.000000 -128.431286 -231.419171 -128.775310
248 19 2 0.000000 52.146978 -78.397336 -75.295039
249 19 4 0.000000 58.046978 -78.397336 -75.295039
250 19 3 0.000000 63.946978 -78.397336 -75.295039
251 19 2 0.000000 69.846978 -78.397336 -75.295039
252 19 3 0.000000 75.746978 -78.397336 -75.295039
253 19 4 0.000000 81.646978 -78.397336 -75.295039
254 19 3 0.000000 87.546978 -78.397336 -75.295039
255 19 1 0.000000 93.446978 -78.397336 -75.295039
256 19 1 0.000000 99.346978 -78.397336 -75.295039
257 19 3 0.000000 105.246978 -78.397336 -75.295039
258 20 2 0.000000 -195.035922 -135.152863 253.259661
259 20 4 0.000000 -189.135922 -135.152863 253.259661
260 20 3 0.000000 -183.235922 -135.152863 253.259661
261 20 2 0.000000 -177.335922 -135.152863 253.259661
262 20 3 0.000000 -171.435922 -135.152863 253.259661
263 20 4 0.000000 -165.535922 -135.152863 253.259661
264 20 3 0.000000 -159.635922 -135.152863 253.259661
265 20 1 0.000000 -153.735922 -135.152863 253.259661
266 20 1 0.000000 -147.835922 -135.152863 253.259661
267 20 3 0.000000 -141.935922 -135.152863 253.259661
268 21 2 0.000000 59.310523 63.295983 -190.739584
269 21 4 0.000000 65.210523 63.295983 -190.739584
270 21 3 0.000000 71.110523 63.295983 -190.739584
271 21 2 0.000000 77.010523 63.295983 -190.739584
272 21 3 0.000000 82.910523 63.295983 -190.739584
273 21 4 0.000000 88.810523 63.295983 -190.739584
274 21 3 0.000000 94.710523 63.295983 -190.739584
275 21 1 0.000000 100.610523 63.295983 -190.739584
276 21 1 0.000000 106.510523 63.295983 -190.739584
277 21 3 0.000000 112.410523 63.295983 -190.739584
278 22 2 0.000000 106.343543 -195.226554 -69.915844
279 22 4 0.000000 112.243543 -195.226554 -69.915844
280 22 3 0.000000 118.143543 -195.226554 -69.915844
281 22 2 0.000000 124.043543 -195.226554 -69.915844
282 22 3 0.000000 129.943543 -195.226554 -69.915844
283 22 4 0.000000 135.843543 -195.226554 -69.915844
284 22 3 0.000000 141.743543 -195.226554 -69.915844
285 22 1 0.000000 147.643543 -195.226554 -69.915844
286 22 1 0.000000 153.543543 -195.226554 -69.915844
287 22 3 0.000000 159.443543 -195.226554 -69.915844
288 23 2 0.000000 257.373543 81.199861 33.030851
289 23 4 0.000000 263.273543 81.199861 33.030851
290 23 3 0.000000 269.173543 81.199861 33.030851
291 23 2 0.000000 275.073543 81.199861 33.030851
292 23 3 0.000000 280.973543 81.199861 33.030851
293 23 4 0.000000 286.873543 81.199861 33.030851
294 23 3 0.000000 292.773543 81.199861 33.030851
295 23 1 0.000000 298.673543 81.199861 33.030851
296 23 1 0.000000 304.573543 81.199861 33.030851
297 23 3 0.000000 310.473543 81.199861 33.030851
298 24 2 0.000000 80.526266 198.854114 160.079949
299 24 4 0.000000 86.426266 198.854114 160.079949
300 24 3 0.000000 92.326266 198.854114 160.079949
301 24 2 0.000000 98.226266 198.854114 160.079949
302 24 3 0.000000 104.126266 198.854114 160.079949
303 24 4 0.000000 110.026266 198.854114 160.079949
304 24 3 0.000000 115.926266 198.854114 160.079949
305 24 1 0.000000 121.826266 198.854114 160.079949
306 24 1 0.000000 127.726266 198.854114 160.079949
307 24 3 0.000000 133.626266 198.854114 160.079949
308 25 2 0.000000 -183.702118 -271.381859 -107.037232
309 25 4 0.000000 -177.802118 -271.381859 -107.037232
310 25 3 0.000000 -171.902118 -271.381859 -107.037232
311 25 2 0.000000 -166.002118 -271.381859 -107.037232
312 25 3 0.000000 -160.102118 -271.381859 -107.037232
313 25 4 0.000000 -154.202118 -271.381859 -107.037232
314 25 3 0.000000 -148.302118 -271.381859 -107.037232
315 25 1 0.000000 -142.402118 -271.381859 -107.037232
316 25 1 0.000000 -136.502118 -271.381859 -107.037232
317 25 3 0.000000 -130.602118 -271.381859 -107.037232
318 26 2 0.000000 -161.260292 -167.629951 256.887634
319 26 4 0.000000 -155.360292 -167.629951 256.887634
320 26 3 0.000000 -149.460292 -167.629951 256.887634
321 26 2 0.000000 -143.560292 -167.629951 256.887634
322 26 3 0.000000 -137.660292 -167.629951 256.887634
323 26 4 0.000000 -131.760292 -167.629951 256.887634
324 26 3 0.000000 -125.860292 -167.629951 256.887634
325 26 1 0.000000 -119.960292 -167.629951 256.887634
326 26 1 0.000000 -114.060292 -167.629951 256.887634
327 26 3 0.000000 -108.160292 -167.629951 256.887634
328 27 2 0.000000 191.743223 -107.486829 90.154426
329 27 4 0.000000 197.643223 -107.486829 90.154426
330 27 3 0.000000 203.543223 -107.486829 90.154426
331 27 2 0.000000 209.443223 -107.486829 90.154426
332 27 3 0.000000 215.343223 -107.486829 90.154426
333 27 4 0.000000 221.243223 -107.486829 90.154426
334 27 3 0.000000 227.143223 -107.486829 90.154426
335 27 1 0.000000 233.043223 -107.486829 90.154426
336 27 1 0.000000 238.943223 -107.486829 90.154426
337 27 3 0.000000 244.843223 -107.486829 90.154426
338 28 2 0.000000 -87.083497 240.437602 -23.865925
339 28 4 0.000000 -81.183497 240.437602 -23.865925
340 28 3 0.000000 -75.283497 240.437602 -23.865925
341 28 2 0.000000 -69.383497 240.437602 -23.865925
342 28 3 0.000000 -63.483497 240.437602 -23.865925
343 28 4 0.000000 -57.583497 240.437602 -23.865925
344 28 3 0.000000 -51.683497 240.437602 -23.865925
345 28 1 0.000000 -45.783497 240.437602 -23.865925
346 28 1 0.000000 -39.883497 240.437602 -23.865925
347 28 3 0.000000 -33.983497 240.437602 -23.865925
348 29 2 0.000000 -162.919503 -146.956046 35.593518
349 29 4 0.000000 -157.019503 -146.956046 35.593518
350 29 3 0.000000 -151.119503 -146.956046 35.593518
351 29 2 0.000000 -145.219503 -146.956046 35.593518
352 29 3 0.000000 -139.319503 -146.956046 35.593518
353 29 4 0.000000 -133.419503 -146.956046 35.593518
354 29 3 0.000000 -127.519503 -146.956046 35.593518
355 29 1 0.000000 -121.619503 -146.956046 35.593518
356 29 1 0.000000 -115.719503 -146.956046 35.593518
357 29 3 0.000000 -109.819503 -146.956046 35.593518
358 30 2 0.000000 -164.159867 49.059874 230.737272
359 30 4 0.000000 -158.259867 49.059874 230.737272
360 30 3 0.000000 -152.359867 49.059874 230.737272
361 30 2 0.000000 -146.459867 49.059874 230.737272
362 30 3 0.000000 -140.559867 49.059874 230.737272
363 30 4 0.000000 -134.659867 49.059874 230.737272
364 30 3 0.000000 -128.759867 49.059874 230.737272
365 30 1 0.000000 -122.859867 49.059874 230.737272
366 30 1 0.000000 -116.959867 49.059874 230.737272
367 30 3 0.000000 -111.059867 49.059874 230.737272
368 31 2 0.000000 -84.897707 -162.793960 288.571812
369 31 4 0.000000 -78.997707 -162.793960 288.571812
370 31 3 0.000000 -73.097707 -162.793960 288.571812
371 31 2 0.000000 -67.197707 -162.793960 288.571812
372 31 3 0.000000 -61.297707 -162.793960 288.571812
373 31 4 0.000000 -55.397707 -162.793960 288.571812
374 31 3 0.000000 -49.497707 -162.793960 288.571812
375 31 1 0.000000 -43.597707 -162.793960 288.571812
376 31 1 0.000000 -37.697707 -162.793960 288.571812
377 31 3 0.000000 -31.797707 -162.793960 288.571812
378 32 2 0.000000 -21.024750 -237.272541 -262.672502
379 32 4 0.000000 -15.124750 -237.272541 -262.672502
380 32 3 0.000000 -9.224750 -237.272541 -262.672502
381 32 2 0.000000 -3.324750 -237.272541 -262.672502
382 32 3 0.000000 2.575250 -237.272541 -262.672502
383 32 4 0.000000 8.475250 -237.272541 -262.672502
384 32 3 0.000000 14.375250 -237.272541 -262.672502
385 32 1 0.000000 20.275250 -237.272541 -262.672502
386 32 1 0.000000 26.175250 -237.272541 -262.672502
387 32 3 0.000000 32.075250 -237.272541 -262.672502
388 33 2 0.000000 -252.953504 73.918704 169.406031
389 33 4 0.000000 -247.053504 73.918704 169.406031
390 33 3 0.000000 -241.153504 73.918704 169.406031
391 33 2 0.000000 -235.253504 73.918704 169.406031
392 33 3 0.000000 -229.353504 73.918704 169.406031
393 33 4 0.000000 -223.453504 73.918704 169.406031
394 33 3 0.000000 -217.553504 73.918704 169.406031
395 33 1 0.000000 -211.653504 73.918704 169.406031
396 33 1 0.000000 -205.753504 73.918704 169.406031
397 33 3 0.000000 -199.853504 73.918704 169.406031
398 34 2 0.000000 -71.697219 -253.153930 -68.660814
399 34 4 0.000000 -65.797219 -253.153930 -68.660814
400 34 3 0.000000 -59.897219 -253.153930 -68.660814
401 34 2 0.000000 -53.997219 -253.153930 -68.660814
402 34 3 0.000000 -48.097219 -253.153930 -68.660814
403 34 4 0.000000 -42.197219 -253.153930 -68.660814
404 34 3 0.000000 -36.297219 -253.153930 -68.660814
405 34 1 0.000000 -30.397219 -253.153930 -68.660814
406 34 1 0.000000 -24.497219 -253.153930 -68.660814
407 34 3 0.000000 -18.597219 -253.153930 -68.660814
408 35 2 0.000000 261.200401 16.886320 273.225459
409 35 4 0.000000 267.100401 16.886320 273.225459
410 35 3 0.000000 273.000401 16.886320 273.225459
411 35 2 0.000000 278.900401 16.886320 273.225459
412 35 3 0.000000 284.800401 16.886320 273.225459
413 35 4 0.000000 290.700401 16.886320 273.225459
414 35 3 0.000000 296.600401 16.886320 273.225459
415 35 1 0.000000 302.500401 16.886320 273.225459
416 35 1 0.000000 308.400401 16.886320 273.225459
417 35 3 0.000000 314.300401 16.886320 273.225459
418 36 2 0.000000 182.702227 -283.341007 128.018655
419 36 4 0.000000 188.602227 -283.341007 128.018655
420 36 3 0.000000 194.502227 -283.341007 128.018655
421 36 2 0.000000 200.402227 -283.341007 128.018655
422 36 3 0.000000 206.302227 -283.341007 128.018655
423 36 4 0.000000 212.202227 -283.341007 128.018655
424 36 3 0.000000 218.102227 -283.341007 128.018655
425 36 1 0.000000 224.002227 -283.341007 128.018655
426 36 1 0.000000 229.902227 -283.341007 128.018655
427 36 3 0.000000 235.802227 -283.341007 128.018655
428 37 2 0.000000 78.842014 21.442792 -135.241390
429 37 4 0.000000 84.742014 21.442792 -135.241390
430 37 3 0.000000 90.642014 21.442792 -135.241390
431 37 2 0.000000 96.542014 21.442792 -135.241390
432 37 3 0.000000 102.442014 21.442792 -135.241390
433 37 4 0.000000 108.342014 21.442792 -135.241390
434 37 3 0.000000 114.242014 21.442792 -135.241390
435 37 1 0.000000 120.142014 21.442792 -135.241390
436 37 1 0.000000 126.042014 21.442792 -135.241390
437 37 3 0.000000 131.942014 21.442792 -135.241390
438 38 2 0.000000 55.207843 -225.299739 -37.836155
439 38 4 0.000000 61.107843 -225.299739 -37.836155
440 38 3 0.000000 67.007843 -225.299739 -37.836155
441 38 2 0.000000 72.907843 -225.299739 -37.836155
442 38 3 0.000000 78.807843 -225.299739 -37.836155
443 38 4 0.000000 84.707843 -225.299739 -37.836155
444 38 3 0.000000 90.607843 -225.299739 -37.836155
445 38 1 0.000000 96.507843 -225.299739 -37.836155
446 38 1 0.000000 102.407843 -225.299739 -37.836155
447 38 3 0.000000 108.307843 -225.299739 -37.836155
448 39 2 0.000000 -53.390250 263.213238 217.994705
449 39 4 0.000000 -47.490250 263.213238 217.994705
450 39 3 0.000000 -41.590250 263.213238 217.994705
451 39 2 0.000000 -35.690250 263.213238 217.994705
452 39 3 0.000000 -29.790250 263.213238 217.994705
453 39 4 0.000000 -23.890250 263.213238 217.994705
454 39 3 0.000000 -17.990250 263.213238 217.994705
455 39 1 0.000000 -12.090250 263.213238 217.994705
456 39 1 0.000000 -6.190250 263.213238 217.994705
457 39 3 0.000000 -0.290250 263.213238 217.994705
458 40 2 0.000000 -163.784351 0.339946 -186.381909
459 40 4 0.000000 -157.884351 0.339946 -186.381909
460 40 3 0.000000 -151.984351 0.339946 -186.381909
461 40 2 0.000000 -146.084351 0.339946 -186.381909
462 40 3 0.000000 -140.184351 0.339946 -186.381909
463 40 4 0.000000 -134.284351 0.339946 -186.381909
464 40 3 0.000000 -128.384351 0.339946 -186.381909
465 40 1 0.000000 -122.484351 0.339946 -186.381909
466 40 1 0.000000 -116.584351 0.339946 -186.381909
467 40 3 0.000000 -110.684351 0.339946 -186.381909
468 41 2 0.000000 212.774147 214.900771 -116.902021
469 41 4 0.000000 218.674147 214.900771 -116.902021
470 41 3 0.000000 224.574147 214.900771 -116.902021
471 41 2 0.000000 230.474147 214.900771 -116.902021
472 41 3 0.000000 236.374147 214.900771 -116.902021
473 41 4 0.000000 242.274147 214.900771 -116.902021
474 41 3 0.000000 248.174147 214.900771 -116.902021
475 41 1 0.000000 254.074147 214.900771 -116.902021
476 41 1 0.000000 259.974147 214.900771 -116.902021
477 41 3 0.000000 265.874147 214.900771 -116.902021
478 42 2 0.000000 125.706264 22.839837 161.603358
479 42 4 0.000000 131.606264 22.839837 161.603358
480 42 3 0.000000 137.506264 22.839837 161.603358
481 42 2 0.000000 143.406264 22.839837 161.603358
482 42 3 0.000000 149.306264 22.839837 161.603358
483 42 4 0.000000 155.206264 22.839837 161.603358
484 42 3 0.000000 161.106264 22.839837 161.603358
485 42 1 0.000000 167.006264 22.839837 161.603358
486 42 1 0.000000 172.906264 22.839837 161.603358
487 42 3 0.000000 178.806264 22.839837 161.603358
488 43 2 0.000000 -8.944870 -289.668300 -101.989487
489 43 4 0.000000 -3.044870 -289.668300 -101.989487
490 43 3 0.000000 2.855130 -289.668300 -101.989487
491 43 2 0.000000 8.755130 -289.668300 -101.989487
492 43 3 0.000000 14.655130 -289.668300 -101.989487
493 43 4 0.000000 20.555130 -289.668300 -101.989487
494 43 3 0.000000 26.455130 -289.668300 -101.989487
495 43 1 0.000000 32.355130 -289.668300 -101.989487
496 43 1 0.000000 38.255130 -289.668300 -101.989487
497 43 3 0.000000 44.155130 -289.668300 -101.989487
498 44 2 0.000000 -305.253489 248.877197 219.658689
499 44 4 0.000000 -299.353489 248.877197 219.658689
500 44 3 0.000000 -293.453489 248.877197 219.658689
501 44 2 0.000000 -287.553489 248.877197 219.658689
502 44 3 0.000000 -281.653489 248.877197 219.658689
503 44 4 0.000000 -275.753489 248.877197 219.658689
504 44 3 0.000000 -269.853489 248.877197 219.658689
505 44 1 0.000000 -263.953489 248.877197 219.658689
506 44 1 0.000000 -258.053489 248.877197 219.658689
507 44 3 0.000000 -252.153489 248.877197 219.658689
508 45 2 0.000000 165.816007 -111.641807 -256.403403
509 45 4 0.000000 171.716007 -111.641807 -256.403403
510 45 3 0.000000 177.616007 -111.641807 -256.403403
511 45 2 0.000000 183.516007 -111.641807 -256.403403
512 45 3 0.000000 189.416007 -111.641807 -256.403403
513 45 4 0.000000 195.316007 -111.641807 -256.403403
514 45 3 0.000000 201.216007 -111.641807 -256.403403
515 45 1 0.000000 207.116007 -111.641807 -256.403403
516 45 1 0.000000 213.016007 -111.641807 -256.403403
517 45 3 0.000000 218.916007 -111.641807 -256.403403
518 46 2 0.000000 192.695568 259.230678 -240.320998
519 46 4 0.000000 198.595568 259.230678 -240.320998
520 46 3 0.000000 204.495568 259.230678 -240.320998
521 46 2 0.000000 210.395568 259.230678 -240.320998
522 46 3 0.000000 216.295568 259.230678 -240.320998
523 46 4 0.000000 222.195568 259.230678 -240.320998
524 46 3 0.000000 228.095568 259.230678 -240.320998
525 46 1 0.000000 233.995568 259.230678 -240.320998
526 46 1 0.000000 239.895568 259.230678 -240.320998
527 46 3 0.000000 245.795568 259.230678 -240.320998
528 47 2 0.000000 -34.675531 -249.856739 151.149256
529 47 4 0.000000 -28.775531 -249.856739 151.149256
530 47 3 0.000000 -22.875531 -249.856739 151.149256
531 47 2 0.000000 -16.975531 -249.856739 151.149256
532 47 3 0.000000 -11.075531 -249.856739 151.149256
533 47 4 0.000000 -5.175531 -249.856739 151.149256
534 47 3 0.000000 0.724469 -249.856739 151.149256
535 47 1 0.000000 6.624469 -249.856739 151.149256
536 47 1 0.000000 12.524469 -249.856739 151.149256
537 47 3 0.000000 18.424469 -249.856739 151.149256
538 48 2 0.000000 127.633969 -215.532951 -14.336221
539 48 4 0.000000 133.533969 -215.532951 -14.336221
540 48 3 0.000000 139.433969 -215.532951 -14.336221
541 48 2 0.000000 145.333969 -215.532951 -14.336221
542 48 3 0.000000 151.233969 -215.532951 -14.336221
543 48 4 0.000000 157.133969 -215.532951 -14.336221
544 48 3 0.000000 163.033969 -215.532951 -14.336221
545 48 1 0.000000 168.933969 -215.532951 -14.336221
546 48 1 0.000000 174.833969 -215.532951 -14.336221
547 48 3 0.000000 180.733969 -215.532951 -14.336221
548 49 2 0.000000 2.336084 -136.267155 216.011164
549 49 4 0.000000 8.236084 -136.267155 216.011164
550 49 3 0.000000 14.136084 -136.267155 216.011164
551 49 2 0.000000 20.036084 -136.267155 216.011164
552 49 3 0.000000 25.936084 -136.267155 216.011164
553 49 4 0.000000 31.836084 -136.267155 216.011164
554 49 3 0.000000 37.736084 -136.267155 216.011164
555 49 1 0.000000 43.636084 -136.267155 216.011164
556 49 1 0.000000 49.536084 -136.267155 216.011164
557 49 3 0.000000 55.436084 -136.267155 216.011164
558 50 2 0.000000 -71.129995 -167.157041 22.791731
559 50 4 0.000000 -65.229995 -167.157041 22.791731
560 50 3 0.000000 -59.329995 -167.157041 22.791731
561 50 2 0.000000 -53.429995 -167.157041 22.791731
562 50 3 0.000000 -47.529995 -167.157041 22.791731
563 50 4 0.000000 -41.629995 -167.157041 22.791731
564 50 3 0.000000 -35.729995 -167.157041 22.791731
565 50 1 0.000000 -29.829995 -167.157041 22.791731
566 50 1 0.000000 -23.929995 -167.157041 22.791731
567 50 3 0.000000 -18.029995 -167.157041 22.791731
568 51 2 0.000000 106.810020 -173.332383 -109.204551
569 51 4 0.000000 112.710020 -173.332383 -109.204551
570 51 3 0.000000 118.610020 -173.332383 -109.204551
571 51 2 0.000000 124.510020 -173.332383 -109.204551
572 51 3 0.000000 130.410020 -173.332383 -109.204551
573 51 4 0.000000 136.310020 -173.332383 -109.204551
574 51 3 0.000000 142.210020 -173.332383 -109.204551
575 51 1 0.000000 148.110020 -173.332383 -109.204551
576 51 1 0.000000 154.010020 -173.332383 -109.204551
577 51 3 0.000000 159.910020 -173.332383 -109.204551

Bonds

1 1 1 2
2 1 2 3
3 1 3 4
4 1 4 5
5 1 5 6
6 1 6 7
7 1 7 8
8 1 8 9
9 1 9 10
10 1 11 12
11 1 12 13
12 1 13 14
13 1 14 15
14 1 15 16
15 1 16 17
16 1 17 18
17 1 18 19
18 1 19 20
19 1 20 21
20 1 21 22
21 1 22 23
22 1 23 24
23 1 24 25
24 1 25 26
25 1 26 27
26 1 27 28
27 1 28 29
28 1 29 30
29 1 30 31
30 1 31 32
31 1 32 33
32 1 33 34
33 1 34 35
34 1 35 36
35 1 36 37
36 1 37 38
37 1 38 39
38 1 39 40
39 1 40 41
40 1 41 42
41 1 42 43
42 1 43 44
43 1 44 45
44 1 45 46
45 1 46 47
46 1 47 48
47 1 48 49
48 1 49 50
49 1 50 51
50 1 51 52
51 1 52 53
52 1 53 54