LAMMPS data file — Week 13 combined RNA+ASO | target=1RNK | aso=AGUGGCGCUA | n_aso=50 | box=±300.0

534 atoms
483 bonds
432 angles

4 atom types
1 bond types
1 angle types

-300.000000  300.000000  xlo xhi
-300.000000  300.000000  ylo yhi
-300.000000  300.000000  zlo zhi

Masses

1 329.20
2 305.20
3 345.20
4 306.20

Atoms

1 1 1 0.000000 20.000000 0.000000 0.000000
2 1 3 0.000000 25.900000 0.000000 0.000000
3 1 4 0.000000 31.800000 0.000000 0.000000
4 1 3 0.000000 37.700000 0.000000 0.000000
5 1 3 0.000000 43.600000 0.000000 0.000000
6 1 2 0.000000 49.500000 0.000000 0.000000
7 1 3 0.000000 55.400000 0.000000 0.000000
8 1 2 0.000000 61.300000 0.000000 0.000000
9 1 4 0.000000 67.200000 0.000000 0.000000
10 1 1 0.000000 73.100000 0.000000 0.000000
11 2 3 0.000000 15.581088 7.919382 -5.941529
12 2 3 0.000000 10.136088 8.921382 -4.477529
13 2 2 0.000000 4.620088 7.073382 -3.834529
14 2 3 0.000000 0.982088 2.851382 -2.758529
15 2 2 0.000000 -1.080912 -1.806618 -0.225529
16 2 1 0.000000 -5.469912 -0.841618 3.201471
17 2 3 0.000000 -8.809912 4.332382 3.557471
18 2 4 0.000000 -9.415912 5.687382 8.565471
19 2 3 0.000000 -5.276912 4.040382 12.520471
20 2 3 0.000000 -2.797912 0.170382 15.846471
21 2 3 0.000000 -1.058912 -5.306618 16.918471
22 2 2 0.000000 2.267088 -8.843618 13.786471
23 2 4 0.000000 6.245088 -7.888618 9.762471
24 2 1 0.000000 10.399088 -7.927618 5.571471
25 2 3 0.000000 11.050088 -8.682618 -0.099529
26 2 2 0.000000 9.786088 -7.453618 -5.442529
27 2 3 0.000000 6.801088 -5.160618 -10.033529
28 2 2 0.000000 5.398088 -0.621618 -13.142529
29 2 2 0.000000 5.434088 4.913382 -14.760529
30 2 1 0.000000 7.841088 9.992382 -14.355529
31 2 2 0.000000 12.506088 12.856382 -15.567529
32 2 4 0.000000 8.924088 13.438382 -19.123529
33 2 2 0.000000 2.925088 10.172382 -19.505529
34 2 1 0.000000 -1.407912 7.238382 -16.625529
35 2 1 0.000000 -3.122912 1.551382 -14.401529
36 2 1 0.000000 -4.606912 -3.017618 -10.851529
37 2 1 0.000000 -3.800912 -5.149618 -5.096529
38 2 3 0.000000 -5.119912 -6.829618 0.832471
39 2 3 0.000000 -8.798912 -9.758618 4.188471
40 2 2 0.000000 -10.771912 -11.162618 9.352471
41 2 2 0.000000 -11.506912 -9.884618 14.869471
42 2 2 0.000000 -11.640912 -6.120618 19.403471
43 2 1 0.000000 -12.856912 -0.164618 20.241471
44 2 4 0.000000 -13.351912 5.462382 17.625471
45 3 1 0.000000 54.317543 -275.493762 -130.482995
46 3 3 0.000000 60.217543 -275.493762 -130.482995
47 3 4 0.000000 66.117543 -275.493762 -130.482995
48 3 3 0.000000 72.017543 -275.493762 -130.482995
49 3 3 0.000000 77.917543 -275.493762 -130.482995
50 3 2 0.000000 83.817543 -275.493762 -130.482995
51 3 3 0.000000 89.717543 -275.493762 -130.482995
52 3 2 0.000000 95.617543 -275.493762 -130.482995
53 3 4 0.000000 101.517543 -275.493762 -130.482995
54 3 1 0.000000 107.417543 -275.493762 -130.482995
55 4 1 0.000000 -187.087772 137.153304 102.485703
56 4 3 0.000000 -181.187772 137.153304 102.485703
57 4 4 0.000000 -175.287772 137.153304 102.485703
58 4 3 0.000000 -169.387772 137.153304 102.485703
59 4 3 0.000000 -163.487772 137.153304 102.485703
60 4 2 0.000000 -157.587772 137.153304 102.485703
61 4 3 0.000000 -151.687772 137.153304 102.485703
62 4 2 0.000000 -145.787772 137.153304 102.485703
63 4 4 0.000000 -139.887772 137.153304 102.485703
64 4 1 0.000000 -133.987772 137.153304 102.485703
65 5 1 0.000000 200.914149 -239.575477 -45.285345
66 5 3 0.000000 206.814149 -239.575477 -45.285345
67 5 4 0.000000 212.714149 -239.575477 -45.285345
68 5 3 0.000000 218.614149 -239.575477 -45.285345
69 5 3 0.000000 224.514149 -239.575477 -45.285345
70 5 2 0.000000 230.414149 -239.575477 -45.285345
71 5 3 0.000000 236.314149 -239.575477 -45.285345
72 5 2 0.000000 242.214149 -239.575477 -45.285345
73 5 4 0.000000 248.114149 -239.575477 -45.285345
74 5 1 0.000000 254.014149 -239.575477 -45.285345
75 6 1 0.000000 -299.267613 -163.189975 3.106067
76 6 3 0.000000 -293.367613 -163.189975 3.106067
77 6 4 0.000000 -287.467613 -163.189975 3.106067
78 6 3 0.000000 -281.567613 -163.189975 3.106067
79 6 3 0.000000 -275.667613 -163.189975 3.106067
80 6 2 0.000000 -269.767613 -163.189975 3.106067
81 6 3 0.000000 -263.867613 -163.189975 3.106067
82 6 2 0.000000 -257.967613 -163.189975 3.106067
83 6 4 0.000000 -252.067613 -163.189975 3.106067
84 6 1 0.000000 -246.167613 -163.189975 3.106067
85 7 1 0.000000 -301.159138 -174.674163 86.932974
86 7 3 0.000000 -295.259138 -174.674163 86.932974
87 7 4 0.000000 -289.359138 -174.674163 86.932974
88 7 3 0.000000 -283.459138 -174.674163 86.932974
89 7 3 0.000000 -277.559138 -174.674163 86.932974
90 7 2 0.000000 -271.659138 -174.674163 86.932974
91 7 3 0.000000 -265.759138 -174.674163 86.932974
92 7 2 0.000000 -259.859138 -174.674163 86.932974
93 7 4 0.000000 -253.959138 -174.674163 86.932974
94 7 1 0.000000 -248.059138 -174.674163 86.932974
95 8 1 0.000000 -0.483941 -162.144439 51.774097
96 8 3 0.000000 5.416059 -162.144439 51.774097
97 8 4 0.000000 11.316059 -162.144439 51.774097
98 8 3 0.000000 17.216059 -162.144439 51.774097
99 8 3 0.000000 23.116059 -162.144439 51.774097
100 8 2 0.000000 29.016059 -162.144439 51.774097
101 8 3 0.000000 34.916059 -162.144439 51.774097
102 8 2 0.000000 40.816059 -162.144439 51.774097
103 8 4 0.000000 46.716059 -162.144439 51.774097
104 8 1 0.000000 52.616059 -162.144439 51.774097
105 9 1 0.000000 152.919665 -286.230719 177.375166
106 9 3 0.000000 158.819665 -286.230719 177.375166
107 9 4 0.000000 164.719665 -286.230719 177.375166
108 9 3 0.000000 170.619665 -286.230719 177.375166
109 9 3 0.000000 176.519665 -286.230719 177.375166
110 9 2 0.000000 182.419665 -286.230719 177.375166
111 9 3 0.000000 188.319665 -286.230719 177.375166
112 9 2 0.000000 194.219665 -286.230719 177.375166
113 9 4 0.000000 200.119665 -286.230719 177.375166
114 9 1 0.000000 206.019665 -286.230719 177.375166
115 10 1 0.000000 88.370849 -92.654700 -199.821890
116 10 3 0.000000 94.270849 -92.654700 -199.821890
117 10 4 0.000000 100.170849 -92.654700 -199.821890
118 10 3 0.000000 106.070849 -92.654700 -199.821890
119 10 3 0.000000 111.970849 -92.654700 -199.821890
120 10 2 0.000000 117.870849 -92.654700 -199.821890
121 10 3 0.000000 123.770849 -92.654700 -199.821890
122 10 2 0.000000 129.670849 -92.654700 -199.821890
123 10 4 0.000000 135.570849 -92.654700 -199.821890
124 10 1 0.000000 141.470849 -92.654700 -199.821890
125 11 1 0.000000 238.633582 -94.775164 -236.207411
126 11 3 0.000000 244.533582 -94.775164 -236.207411
127 11 4 0.000000 250.433582 -94.775164 -236.207411
128 11 3 0.000000 256.333582 -94.775164 -236.207411
129 11 3 0.000000 262.233582 -94.775164 -236.207411
130 11 2 0.000000 268.133582 -94.775164 -236.207411
131 11 3 0.000000 274.033582 -94.775164 -236.207411
132 11 2 0.000000 279.933582 -94.775164 -236.207411
133 11 4 0.000000 285.833582 -94.775164 -236.207411
134 11 1 0.000000 291.733582 -94.775164 -236.207411
135 12 1 0.000000 -260.454501 201.546732 60.161098
136 12 3 0.000000 -254.554501 201.546732 60.161098
137 12 4 0.000000 -248.654501 201.546732 60.161098
138 12 3 0.000000 -242.754501 201.546732 60.161098
139 12 3 0.000000 -236.854501 201.546732 60.161098
140 12 2 0.000000 -230.954501 201.546732 60.161098
141 12 3 0.000000 -225.054501 201.546732 60.161098
142 12 2 0.000000 -219.154501 201.546732 60.161098
143 12 4 0.000000 -213.254501 201.546732 60.161098
144 12 1 0.000000 -207.354501 201.546732 60.161098
145 13 1 0.000000 151.584398 133.244436 21.012293
146 13 3 0.000000 157.484398 133.244436 21.012293
147 13 4 0.000000 163.384398 133.244436 21.012293
148 13 3 0.000000 169.284398 133.244436 21.012293
149 13 3 0.000000 175.184398 133.244436 21.012293
150 13 2 0.000000 181.084398 133.244436 21.012293
151 13 3 0.000000 186.984398 133.244436 21.012293
152 13 2 0.000000 192.884398 133.244436 21.012293
153 13 4 0.000000 198.784398 133.244436 21.012293
154 13 1 0.000000 204.684398 133.244436 21.012293
155 14 1 0.000000 247.857143 -70.450061 30.183566
156 14 3 0.000000 253.757143 -70.450061 30.183566
157 14 4 0.000000 259.657143 -70.450061 30.183566
158 14 3 0.000000 265.557143 -70.450061 30.183566
159 14 3 0.000000 271.457143 -70.450061 30.183566
160 14 2 0.000000 277.357143 -70.450061 30.183566
161 14 3 0.000000 283.257143 -70.450061 30.183566
162 14 2 0.000000 289.157143 -70.450061 30.183566
163 14 4 0.000000 295.057143 -70.450061 30.183566
164 14 1 0.000000 300.957143 -70.450061 30.183566
165 15 1 0.000000 164.504705 68.741456 209.790002
166 15 3 0.000000 170.404705 68.741456 209.790002
167 15 4 0.000000 176.304705 68.741456 209.790002
168 15 3 0.000000 182.204705 68.741456 209.790002
169 15 3 0.000000 188.104705 68.741456 209.790002
170 15 2 0.000000 194.004705 68.741456 209.790002
171 15 3 0.000000 199.904705 68.741456 209.790002
172 15 2 0.000000 205.804705 68.741456 209.790002
173 15 4 0.000000 211.704705 68.741456 209.790002
174 15 1 0.000000 217.604705 68.741456 209.790002
175 16 1 0.000000 18.314244 118.651665 -263.421857
176 16 3 0.000000 24.214244 118.651665 -263.421857
177 16 4 0.000000 30.114244 118.651665 -263.421857
178 16 3 0.000000 36.014244 118.651665 -263.421857
179 16 3 0.000000 41.914244 118.651665 -263.421857
180 16 2 0.000000 47.814244 118.651665 -263.421857
181 16 3 0.000000 53.714244 118.651665 -263.421857
182 16 2 0.000000 59.614244 118.651665 -263.421857
183 16 4 0.000000 65.514244 118.651665 -263.421857
184 16 1 0.000000 71.414244 118.651665 -263.421857
185 17 1 0.000000 -184.369000 -122.154981 -243.720653
186 17 3 0.000000 -178.469000 -122.154981 -243.720653
187 17 4 0.000000 -172.569000 -122.154981 -243.720653
188 17 3 0.000000 -166.669000 -122.154981 -243.720653
189 17 3 0.000000 -160.769000 -122.154981 -243.720653
190 17 2 0.000000 -154.869000 -122.154981 -243.720653
191 17 3 0.000000 -148.969000 -122.154981 -243.720653
192 17 2 0.000000 -143.069000 -122.154981 -243.720653
193 17 4 0.000000 -137.169000 -122.154981 -243.720653
194 17 1 0.000000 -131.269000 -122.154981 -243.720653
195 18 1 0.000000 -181.531286 -231.419171 -128.775310
196 18 3 0.000000 -175.631286 -231.419171 -128.775310
197 18 4 0.000000 -169.731286 -231.419171 -128.775310
198 18 3 0.000000 -163.831286 -231.419171 -128.775310
199 18 3 0.000000 -157.931286 -231.419171 -128.775310
200 18 2 0.000000 -152.031286 -231.419171 -128.775310
201 18 3 0.000000 -146.131286 -231.419171 -128.775310
202 18 2 0.000000 -140.231286 -231.419171 -128.775310
203 18 4 0.000000 -134.331286 -231.419171 -128.775310
204 18 1 0.000000 -128.431286 -231.419171 -128.775310
205 19 1 0.000000 52.146978 -78.397336 -75.295039
206 19 3 0.000000 58.046978 -78.397336 -75.295039
207 19 4 0.000000 63.946978 -78.397336 -75.295039
208 19 3 0.000000 69.846978 -78.397336 -75.295039
209 19 3 0.000000 75.746978 -78.397336 -75.295039
210 19 2 0.000000 81.646978 -78.397336 -75.295039
211 19 3 0.000000 87.546978 -78.397336 -75.295039
212 19 2 0.000000 93.446978 -78.397336 -75.295039
213 19 4 0.000000 99.346978 -78.397336 -75.295039
214 19 1 0.000000 105.246978 -78.397336 -75.295039
215 20 1 0.000000 -195.035922 -135.152863 253.259661
216 20 3 0.000000 -189.135922 -135.152863 253.259661
217 20 4 0.000000 -183.235922 -135.152863 253.259661
218 20 3 0.000000 -177.335922 -135.152863 253.259661
219 20 3 0.000000 -171.435922 -135.152863 253.259661
220 20 2 0.000000 -165.535922 -135.152863 253.259661
221 20 3 0.000000 -159.635922 -135.152863 253.259661
222 20 2 0.000000 -153.735922 -135.152863 253.259661
223 20 4 0.000000 -147.835922 -135.152863 253.259661
224 20 1 0.000000 -141.935922 -135.152863 253.259661
225 21 1 0.000000 59.310523 63.295983 -190.739584
226 21 3 0.000000 65.210523 63.295983 -190.739584
227 21 4 0.000000 71.110523 63.295983 -190.739584
228 21 3 0.000000 77.010523 63.295983 -190.739584
229 21 3 0.000000 82.910523 63.295983 -190.739584
230 21 2 0.000000 88.810523 63.295983 -190.739584
231 21 3 0.000000 94.710523 63.295983 -190.739584
232 21 2 0.000000 100.610523 63.295983 -190.739584
233 21 4 0.000000 106.510523 63.295983 -190.739584
234 21 1 0.000000 112.410523 63.295983 -190.739584
235 22 1 0.000000 106.343543 -195.226554 -69.915844
236 22 3 0.000000 112.243543 -195.226554 -69.915844
237 22 4 0.000000 118.143543 -195.226554 -69.915844
238 22 3 0.000000 124.043543 -195.226554 -69.915844
239 22 3 0.000000 129.943543 -195.226554 -69.915844
240 22 2 0.000000 135.843543 -195.226554 -69.915844
241 22 3 0.000000 141.743543 -195.226554 -69.915844
242 22 2 0.000000 147.643543 -195.226554 -69.915844
243 22 4 0.000000 153.543543 -195.226554 -69.915844
244 22 1 0.000000 159.443543 -195.226554 -69.915844
245 23 1 0.000000 257.373543 81.199861 33.030851
246 23 3 0.000000 263.273543 81.199861 33.030851
247 23 4 0.000000 269.173543 81.199861 33.030851
248 23 3 0.000000 275.073543 81.199861 33.030851
249 23 3 0.000000 280.973543 81.199861 33.030851
250 23 2 0.000000 286.873543 81.199861 33.030851
251 23 3 0.000000 292.773543 81.199861 33.030851
252 23 2 0.000000 298.673543 81.199861 33.030851
253 23 4 0.000000 304.573543 81.199861 33.030851
254 23 1 0.000000 310.473543 81.199861 33.030851
255 24 1 0.000000 80.526266 198.854114 160.079949
256 24 3 0.000000 86.426266 198.854114 160.079949
257 24 4 0.000000 92.326266 198.854114 160.079949
258 24 3 0.000000 98.226266 198.854114 160.079949
259 24 3 0.000000 104.126266 198.854114 160.079949
260 24 2 0.000000 110.026266 198.854114 160.079949
261 24 3 0.000000 115.926266 198.854114 160.079949
262 24 2 0.000000 121.826266 198.854114 160.079949
263 24 4 0.000000 127.726266 198.854114 160.079949
264 24 1 0.000000 133.626266 198.854114 160.079949
265 25 1 0.000000 -183.702118 -271.381859 -107.037232
266 25 3 0.000000 -177.802118 -271.381859 -107.037232
267 25 4 0.000000 -171.902118 -271.381859 -107.037232
268 25 3 0.000000 -166.002118 -271.381859 -107.037232
269 25 3 0.000000 -160.102118 -271.381859 -107.037232
270 25 2 0.000000 -154.202118 -271.381859 -107.037232
271 25 3 0.000000 -148.302118 -271.381859 -107.037232
272 25 2 0.000000 -142.402118 -271.381859 -107.037232
273 25 4 0.000000 -136.502118 -271.381859 -107.037232
274 25 1 0.000000 -130.602118 -271.381859 -107.037232
275 26 1 0.000000 -161.260292 -167.629951 256.887634
276 26 3 0.000000 -155.360292 -167.629951 256.887634
277 26 4 0.000000 -149.460292 -167.629951 256.887634
278 26 3 0.000000 -143.560292 -167.629951 256.887634
279 26 3 0.000000 -137.660292 -167.629951 256.887634
280 26 2 0.000000 -131.760292 -167.629951 256.887634
281 26 3 0.000000 -125.860292 -167.629951 256.887634
282 26 2 0.000000 -119.960292 -167.629951 256.887634
283 26 4 0.000000 -114.060292 -167.629951 256.887634
284 26 1 0.000000 -108.160292 -167.629951 256.887634
285 27 1 0.000000 191.743223 -107.486829 90.154426
286 27 3 0.000000 197.643223 -107.486829 90.154426
287 27 4 0.000000 203.543223 -107.486829 90.154426
288 27 3 0.000000 209.443223 -107.486829 90.154426
289 27 3 0.000000 215.343223 -107.486829 90.154426
290 27 2 0.000000 221.243223 -107.486829 90.154426
291 27 3 0.000000 227.143223 -107.486829 90.154426
292 27 2 0.000000 233.043223 -107.486829 90.154426
293 27 4 0.000000 238.943223 -107.486829 90.154426
294 27 1 0.000000 244.843223 -107.486829 90.154426
295 28 1 0.000000 -87.083497 240.437602 -23.865925
296 28 3 0.000000 -81.183497 240.437602 -23.865925
297 28 4 0.000000 -75.283497 240.437602 -23.865925
298 28 3 0.000000 -69.383497 240.437602 -23.865925
299 28 3 0.000000 -63.483497 240.437602 -23.865925
300 28 2 0.000000 -57.583497 240.437602 -23.865925
301 28 3 0.000000 -51.683497 240.437602 -23.865925
302 28 2 0.000000 -45.783497 240.437602 -23.865925
303 28 4 0.000000 -39.883497 240.437602 -23.865925
304 28 1 0.000000 -33.983497 240.437602 -23.865925
305 29 1 0.000000 -162.919503 -146.956046 35.593518
306 29 3 0.000000 -157.019503 -146.956046 35.593518
307 29 4 0.000000 -151.119503 -146.956046 35.593518
308 29 3 0.000000 -145.219503 -146.956046 35.593518
309 29 3 0.000000 -139.319503 -146.956046 35.593518
310 29 2 0.000000 -133.419503 -146.956046 35.593518
311 29 3 0.000000 -127.519503 -146.956046 35.593518
312 29 2 0.000000 -121.619503 -146.956046 35.593518
313 29 4 0.000000 -115.719503 -146.956046 35.593518
314 29 1 0.000000 -109.819503 -146.956046 35.593518
315 30 1 0.000000 -164.159867 49.059874 230.737272
316 30 3 0.000000 -158.259867 49.059874 230.737272
317 30 4 0.000000 -152.359867 49.059874 230.737272
318 30 3 0.000000 -146.459867 49.059874 230.737272
319 30 3 0.000000 -140.559867 49.059874 230.737272
320 30 2 0.000000 -134.659867 49.059874 230.737272
321 30 3 0.000000 -128.759867 49.059874 230.737272
322 30 2 0.000000 -122.859867 49.059874 230.737272
323 30 4 0.000000 -116.959867 49.059874 230.737272
324 30 1 0.000000 -111.059867 49.059874 230.737272
325 31 1 0.000000 -84.897707 -162.793960 288.571812
326 31 3 0.000000 -78.997707 -162.793960 288.571812
327 31 4 0.000000 -73.097707 -162.793960 288.571812
328 31 3 0.000000 -67.197707 -162.793960 288.571812
329 31 3 0.000000 -61.297707 -162.793960 288.571812
330 31 2 0.000000 -55.397707 -162.793960 288.571812
331 31 3 0.000000 -49.497707 -162.793960 288.571812
332 31 2 0.000000 -43.597707 -162.793960 288.571812
333 31 4 0.000000 -37.697707 -162.793960 288.571812
334 31 1 0.000000 -31.797707 -162.793960 288.571812
335 32 1 0.000000 -21.024750 -237.272541 -262.672502
336 32 3 0.000000 -15.124750 -237.272541 -262.672502
337 32 4 0.000000 -9.224750 -237.272541 -262.672502
338 32 3 0.000000 -3.324750 -237.272541 -262.672502
339 32 3 0.000000 2.575250 -237.272541 -262.672502
340 32 2 0.000000 8.475250 -237.272541 -262.672502
341 32 3 0.000000 14.375250 -237.272541 -262.672502
342 32 2 0.000000 20.275250 -237.272541 -262.672502
343 32 4 0.000000 26.175250 -237.272541 -262.672502
344 32 1 0.000000 32.075250 -237.272541 -262.672502
345 33 1 0.000000 -252.953504 73.918704 169.406031
346 33 3 0.000000 -247.053504 73.918704 169.406031
347 33 4 0.000000 -241.153504 73.918704 169.406031
348 33 3 0.000000 -235.253504 73.918704 169.406031
349 33 3 0.000000 -229.353504 73.918704 169.406031
350 33 2 0.000000 -223.453504 73.918704 169.406031
351 33 3 0.000000 -217.553504 73.918704 169.406031
352 33 2 0.000000 -211.653504 73.918704 169.406031
353 33 4 0.000000 -205.753504 73.918704 169.406031
354 33 1 0.000000 -199.853504 73.918704 169.406031
355 34 1 0.000000 -71.697219 -253.153930 -68.660814
356 34 3 0.000000 -65.797219 -253.153930 -68.660814
357 34 4 0.000000 -59.897219 -253.153930 -68.660814
358 34 3 0.000000 -53.997219 -253.153930 -68.660814
359 34 3 0.000000 -48.097219 -253.153930 -68.660814
360 34 2 0.000000 -42.197219 -253.153930 -68.660814
361 34 3 0.000000 -36.297219 -253.153930 -68.660814
362 34 2 0.000000 -30.397219 -253.153930 -68.660814
363 34 4 0.000000 -24.497219 -253.153930 -68.660814
364 34 1 0.000000 -18.597219 -253.153930 -68.660814
365 35 1 0.000000 261.200401 16.886320 273.225459
366 35 3 0.000000 267.100401 16.886320 273.225459
367 35 4 0.000000 273.000401 16.886320 273.225459
368 35 3 0.000000 278.900401 16.886320 273.225459
369 35 3 0.000000 284.800401 16.886320 273.225459
370 35 2 0.000000 290.700401 16.886320 273.225459
371 35 3 0.000000 296.600401 16.886320 273.225459
372 35 2 0.000000 302.500401 16.886320 273.225459
373 35 4 0.000000 308.400401 16.886320 273.225459
374 35 1 0.000000 314.300401 16.886320 273.225459
375 36 1 0.000000 182.702227 -283.341007 128.018655
376 36 3 0.000000 188.602227 -283.341007 128.018655
377 36 4 0.000000 194.502227 -283.341007 128.018655
378 36 3 0.000000 200.402227 -283.341007 128.018655
379 36 3 0.000000 206.302227 -283.341007 128.018655
380 36 2 0.000000 212.202227 -283.341007 128.018655
381 36 3 0.000000 218.102227 -283.341007 128.018655
382 36 2 0.000000 224.002227 -283.341007 128.018655
383 36 4 0.000000 229.902227 -283.341007 128.018655
384 36 1 0.000000 235.802227 -283.341007 128.018655
385 37 1 0.000000 78.842014 21.442792 -135.241390
386 37 3 0.000000 84.742014 21.442792 -135.241390
387 37 4 0.000000 90.642014 21.442792 -135.241390
388 37 3 0.000000 96.542014 21.442792 -135.241390
389 37 3 0.000000 102.442014 21.442792 -135.241390
390 37 2 0.000000 108.342014 21.442792 -135.241390
391 37 3 0.000000 114.242014 21.442792 -135.241390
392 37 2 0.000000 120.142014 21.442792 -135.241390
393 37 4 0.000000 126.042014 21.442792 -135.241390
394 37 1 0.000000 131.942014 21.442792 -135.241390
395 38 1 0.000000 55.207843 -225.299739 -37.836155
396 38 3 0.000000 61.107843 -225.299739 -37.836155
397 38 4 0.000000 67.007843 -225.299739 -37.836155
398 38 3 0.000000 72.907843 -225.299739 -37.836155
399 38 3 0.000000 78.807843 -225.299739 -37.836155
400 38 2 0.000000 84.707843 -225.299739 -37.836155
401 38 3 0.000000 90.607843 -225.299739 -37.836155
402 38 2 0.000000 96.507843 -225.299739 -37.836155
403 38 4 0.000000 102.407843 -225.299739 -37.836155
404 38 1 0.000000 108.307843 -225.299739 -37.836155
405 39 1 0.000000 -53.390250 263.213238 217.994705
406 39 3 0.000000 -47.490250 263.213238 217.994705
407 39 4 0.000000 -41.590250 263.213238 217.994705
408 39 3 0.000000 -35.690250 263.213238 217.994705
409 39 3 0.000000 -29.790250 263.213238 217.994705
410 39 2 0.000000 -23.890250 263.213238 217.994705
411 39 3 0.000000 -17.990250 263.213238 217.994705
412 39 2 0.000000 -12.090250 263.213238 217.994705
413 39 4 0.000000 -6.190250 263.213238 217.994705
414 39 1 0.000000 -0.290250 263.213238 217.994705
415 40 1 0.000000 -163.784351 0.339946 -186.381909
416 40 3 0.000000 -157.884351 0.339946 -186.381909
417 40 4 0.000000 -151.984351 0.339946 -186.381909
418 40 3 0.000000 -146.084351 0.339946 -186.381909
419 40 3 0.000000 -140.184351 0.339946 -186.381909
420 40 2 0.000000 -134.284351 0.339946 -186.381909
421 40 3 0.000000 -128.384351 0.339946 -186.381909
422 40 2 0.000000 -122.484351 0.339946 -186.381909
423 40 4 0.000000 -116.584351 0.339946 -186.381909
424 40 1 0.000000 -110.684351 0.339946 -186.381909
425 41 1 0.000000 212.774147 214.900771 -116.902021
426 41 3 0.000000 218.674147 214.900771 -116.902021
427 41 4 0.000000 224.574147 214.900771 -116.902021
428 41 3 0.000000 230.474147 214.900771 -116.902021
429 41 3 0.000000 236.374147 214.900771 -116.902021
430 41 2 0.000000 242.274147 214.900771 -116.902021
431 41 3 0.000000 248.174147 214.900771 -116.902021
432 41 2 0.000000 254.074147 214.900771 -116.902021
433 41 4 0.000000 259.974147 214.900771 -116.902021
434 41 1 0.000000 265.874147 214.900771 -116.902021
435 42 1 0.000000 125.706264 22.839837 161.603358
436 42 3 0.000000 131.606264 22.839837 161.603358
437 42 4 0.000000 137.506264 22.839837 161.603358
438 42 3 0.000000 143.406264 22.839837 161.603358
439 42 3 0.000000 149.306264 22.839837 161.603358
440 42 2 0.000000 155.206264 22.839837 161.603358
441 42 3 0.000000 161.106264 22.839837 161.603358
442 42 2 0.000000 167.006264 22.839837 161.603358
443 42 4 0.000000 172.906264 22.839837 161.603358
444 42 1 0.000000 178.806264 22.839837 161.603358
445 43 1 0.000000 -8.944870 -289.668300 -101.989487
446 43 3 0.000000 -3.044870 -289.668300 -101.989487
447 43 4 0.000000 2.855130 -289.668300 -101.989487
448 43 3 0.000000 8.755130 -289.668300 -101.989487
449 43 3 0.000000 14.655130 -289.668300 -101.989487
450 43 2 0.000000 20.555130 -289.668300 -101.989487
451 43 3 0.000000 26.455130 -289.668300 -101.989487
452 43 2 0.000000 32.355130 -289.668300 -101.989487
453 43 4 0.000000 38.255130 -289.668300 -101.989487
454 43 1 0.000000 44.155130 -289.668300 -101.989487
455 44 1 0.000000 -305.253489 248.877197 219.658689
456 44 3 0.000000 -299.353489 248.877197 219.658689
457 44 4 0.000000 -293.453489 248.877197 219.658689
458 44 3 0.000000 -287.553489 248.877197 219.658689
459 44 3 0.000000 -281.653489 248.877197 219.658689
460 44 2 0.000000 -275.753489 248.877197 219.658689
461 44 3 0.000000 -269.853489 248.877197 219.658689
462 44 2 0.000000 -263.953489 248.877197 219.658689
463 44 4 0.000000 -258.053489 248.877197 219.658689
464 44 1 0.000000 -252.153489 248.877197 219.658689
465 45 1 0.000000 165.816007 -111.641807 -256.403403
466 45 3 0.000000 171.716007 -111.641807 -256.403403
467 45 4 0.000000 177.616007 -111.641807 -256.403403
468 45 3 0.000000 183.516007 -111.641807 -256.403403
469 45 3 0.000000 189.416007 -111.641807 -256.403403
470 45 2 0.000000 195.316007 -111.641807 -256.403403
471 45 3 0.000000 201.216007 -111.641807 -256.403403
472 45 2 0.000000 207.116007 -111.641807 -256.403403
473 45 4 0.000000 213.016007 -111.641807 -256.403403
474 45 1 0.000000 218.916007 -111.641807 -256.403403
475 46 1 0.000000 192.695568 259.230678 -240.320998
476 46 3 0.000000 198.595568 259.230678 -240.320998
477 46 4 0.000000 204.495568 259.230678 -240.320998
478 46 3 0.000000 210.395568 259.230678 -240.320998
479 46 3 0.000000 216.295568 259.230678 -240.320998
480 46 2 0.000000 222.195568 259.230678 -240.320998
481 46 3 0.000000 228.095568 259.230678 -240.320998
482 46 2 0.000000 233.995568 259.230678 -240.320998
483 46 4 0.000000 239.895568 259.230678 -240.320998
484 46 1 0.000000 245.795568 259.230678 -240.320998
485 47 1 0.000000 -34.675531 -249.856739 151.149256
486 47 3 0.000000 -28.775531 -249.856739 151.149256
487 47 4 0.000000 -22.875531 -249.856739 151.149256
488 47 3 0.000000 -16.975531 -249.856739 151.149256
489 47 3 0.000000 -11.075531 -249.856739 151.149256
490 47 2 0.000000 -5.175531 -249.856739 151.149256
491 47 3 0.000000 0.724469 -249.856739 151.149256
492 47 2 0.000000 6.624469 -249.856739 151.149256
493 47 4 0.000000 12.524469 -249.856739 151.149256
494 47 1 0.000000 18.424469 -249.856739 151.149256
495 48 1 0.000000 127.633969 -215.532951 -14.336221
496 48 3 0.000000 133.533969 -215.532951 -14.336221
497 48 4 0.000000 139.433969 -215.532951 -14.336221
498 48 3 0.000000 145.333969 -215.532951 -14.336221
499 48 3 0.000000 151.233969 -215.532951 -14.336221
500 48 2 0.000000 157.133969 -215.532951 -14.336221
501 48 3 0.000000 163.033969 -215.532951 -14.336221
502 48 2 0.000000 168.933969 -215.532951 -14.336221
503 48 4 0.000000 174.833969 -215.532951 -14.336221
504 48 1 0.000000 180.733969 -215.532951 -14.336221
505 49 1 0.000000 2.336084 -136.267155 216.011164
506 49 3 0.000000 8.236084 -136.267155 216.011164
507 49 4 0.000000 14.136084 -136.267155 216.011164
508 49 3 0.000000 20.036084 -136.267155 216.011164
509 49 3 0.000000 25.936084 -136.267155 216.011164
510 49 2 0.000000 31.836084 -136.267155 216.011164
511 49 3 0.000000 37.736084 -136.267155 216.011164
512 49 2 0.000000 43.636084 -136.267155 216.011164
513 49 4 0.000000 49.536084 -136.267155 216.011164
514 49 1 0.000000 55.436084 -136.267155 216.011164
515 50 1 0.000000 -71.129995 -167.157041 22.791731
516 50 3 0.000000 -65.229995 -167.157041 22.791731
517 50 4 0.000000 -59.329995 -167.157041 22.791731
518 50 3 0.000000 -53.429995 -167.157041 22.791731
519 50 3 0.000000 -47.529995 -167.157041 22.791731
520 50 2 0.000000 -41.629995 -167.157041 22.791731
521 50 3 0.000000 -35.729995 -167.157041 22.791731
522 50 2 0.000000 -29.829995 -167.157041 22.791731
523 50 4 0.000000 -23.929995 -167.157041 22.791731
524 50 1 0.000000 -18.029995 -167.157041 22.791731
525 51 1 0.000000 106.810020 -173.332383 -109.204551
526 51 3 0.000000 112.710020 -173.332383 -109.204551
527 51 4 0.000000 118.610020 -173.332383 -109.204551
528 51 3 0.000000 124.510020 -173.332383 -109.204551
529 51 3 0.000000 130.410020 -173.332383 -109.204551
530 51 2 0.000000 136.310020 -173.332383 -109.204551
531 51 3 0.000000 142.210020 -173.332383 -109.204551
532 51 2 0.000000 148.110020 -173.332383 -109.204551
533 51 4 0.000000 154.010020 -173.332383 -109.204551
534 51 1 0.000000 159.910020 -173.332383 -109.204551

Bonds

1 1 1 2
2 1 2 3
3 1 3 4
4 1 4 5
5 1 5 6
6 1 6 7
7 1 7 8
8 1 8 9
9 1 9 10
10 1 11 12
11 1 12 13
12 1 13 14
13 1 14 15
14 1 15 16
15 1 16 17
16 1 17 18
17 1 18 19
18 1 19 20
19 1 20 21
20 1 21 22
21 1 22 23
22 1 23 24
23 1 24 25
24 1 25 26
25 1 26 27
26 1 27 28
27 1 28 29
28 1 29 30
29 1 30 31
30 1 31 32
31 1 32 33
32 1 33 34
33 1 34 35
34 1 35 36
35 1 36 37
36 1 37 38
37 1 38 39
38 1 39 40
39 1 40 41
40 1 41 42
41 1 42 43
42 1 43 44
43 1 45 46
44 1 46 47
45 1 47 48
46 1 48 49
47 1 49 50
48 1 50 51
49 1 51 52
50 1 52 53
51 1 53 54
52 1 55 56
53 1 56 57
54 1 57 58
55 1 58 59
56 1 59 60
57 1 60 61
58 1 61 62
59 1 62 63
60 1 63 64
61 1 65 66
62 1 66 67
63 1 67 68
64 1 68 69
65 1 69 70
66 1 70 71
67 1 71 72
68 1 72 73
69 1 73 74
70 1 75 76
71 1 76 77
72 1 77 78
73 1 78 79
74 1 79 80
75 1 80 81
76 1 81 82
77 1 82 83
78 1 83 84
79 1 85 86
80 1 86 87
81 1 87 88
82 1 88 89
83 1 89 90
84 1 90 91
85 1 91 92
86 1 92 93
87 1 93 94
88 1 95 96
89 1 96 97
90 1 97 98
91 1 98 99
92 1 99 100
93 1 100 101
94 1 101 102
95 1 102 103
96 1 103 104
97 1 105 106
98 1 106 107
99 1 107 108
100 1 108 109
101 1 109 110
102 1 110 111
103 1 111 112
104 1 112 113
105 1 113 114
106 1 115 116
107 1 116 117
108 1 117 118
109 1 118 119
110 1 119 120
111 1 120 121
112 1 121 122
113 1 122 123
114 1 123 124
115 1 125 126
116 1 126 127
117 1 127 128
118 1 128 129
119 1 129 130
120 1 130 131
121 1 131 132
122 1 132 133
123 1 133 134
124 1 135 136
125 1 136 137
126 1 137 138
127 1 138 139
128 1 139 140
129 1 140 141
130 1 141 142
131 1 142 143
132 1 143 144
133 1 145 146
134 1 146 147
135 1 147 148
136 1 148 149
137 1 149 150
138 1 150 151
139 1 151 152
140 1 152 153
141 1 153 154
142 1 155 156
143 1 156 157
144 1 157 158
145 1 158 159
146 1 159 160
147 1 160 161
148 1 161 162
149 1 162 163
150 1 163 164
151 1 165 166
152 1 166 167
153 1 167 168
154 1 168 169
155 1 169 170
156 1 170 171
157 1 171 172
158 1 172 173
159 1 173 174
160 1 175 176
161 1 176 177
162 1 177 178
163 1 178 179
164 1 179 180
165 1 180 181
166 1 181 182
167 1 182 183
168 1 183 184
169 1 185 186
170 1 186 187
171 1 187 188
172 1 188 189
173 1 189 190
174 1 190 191
175 1 191 192
176 1 192 193
177 1 193 194
178 1 195 196
179 1 196 197
180 1 197 198
181 1 198 199
182 1 199 200
183 1 200 201
184 1 201 202
185 1 202 203
186 1 203 204
187 1 205 206
188 1 206 207
189 1 207 208
190 1 208 209
191 1 209 210
192 1 210 211
193 1 211 212
194 1 212 213
195 1 213 214
196 1 215 216
197 1 216 217
198 1 217 218
199 1 218 219
200 1 219 220
201 1 220 221
202 1 221 222
203 1 222 223
204 1 223 224
205 1 225 226
206 1 226 227