LAMMPS data file — single RNA C3' beads: GGCGCAGUGGGCUAGCGCCACUCAAAAGGCCCAU

34 atoms
33 bonds
32 angles

4 atom types
1 bond types
1 angle types

-500.600000     500.600000  xlo xhi
-500.600000     500.600000  ylo yhi
-500.600000     500.600000  zlo zhi

Masses

1 329.20
2 305.20
3 345.20
4 306.20

Atoms

1 1 3 0.000000 4.483000 1.934000 -8.526000
2 1 3 0.000000 -0.962000 2.936000 -7.062000
3 1 2 0.000000 -6.478000 1.088000 -6.419000
4 1 3 0.000000 -10.116000 -3.134000 -5.343000
5 1 2 0.000000 -12.179000 -7.792000 -2.810000
6 1 1 0.000000 -16.568000 -6.827000 0.617000
7 1 3 0.000000 -19.908000 -1.653000 0.973000
8 1 4 0.000000 -20.514000 -0.298000 5.981000
9 1 3 0.000000 -16.375000 -1.945000 9.936000
10 1 3 0.000000 -13.896000 -5.815000 13.262000
11 1 3 0.000000 -12.157000 -11.292000 14.334000
12 1 2 0.000000 -8.831000 -14.829000 11.202000
13 1 4 0.000000 -4.853000 -13.874000 7.178000
14 1 1 0.000000 -0.699000 -13.913000 2.987000
15 1 3 0.000000 -0.048000 -14.668000 -2.684000
16 1 2 0.000000 -1.312000 -13.439000 -8.027000
17 1 3 0.000000 -4.297000 -11.146000 -12.618000
18 1 2 0.000000 -5.700000 -6.607000 -15.727000
19 1 2 0.000000 -5.664000 -1.072000 -17.345000
20 1 1 0.000000 -3.257000 4.007000 -16.940000
21 1 2 0.000000 1.408000 6.871000 -18.152000
22 1 4 0.000000 -2.174000 7.453000 -21.708000
23 1 2 0.000000 -8.173000 4.187000 -22.090000
24 1 1 0.000000 -12.506000 1.253000 -19.210000
25 1 1 0.000000 -14.221000 -4.434000 -16.986000
26 1 1 0.000000 -15.705000 -9.003000 -13.436000
27 1 1 0.000000 -14.899000 -11.135000 -7.681000
28 1 3 0.000000 -16.218000 -12.815000 -1.752000
29 1 3 0.000000 -19.897000 -15.744000 1.604000
30 1 2 0.000000 -21.870000 -17.148000 6.768000
31 1 2 0.000000 -22.605000 -15.870000 12.285000
32 1 2 0.000000 -22.739000 -12.106000 16.819000
33 1 1 0.000000 -23.955000 -6.150000 17.657000
34 1 4 0.000000 -24.450000 -0.523000 15.041000

Bonds

1 1 1 2
2 1 2 3
3 1 3 4
4 1 4 5
5 1 5 6
6 1 6 7
7 1 7 8
8 1 8 9
9 1 9 10
10 1 10 11
11 1 11 12
12 1 12 13
13 1 13 14
14 1 14 15
15 1 15 16
16 1 16 17
17 1 17 18
18 1 18 19
19 1 19 20
20 1 20 21
21 1 21 22
22 1 22 23
23 1 23 24
24 1 24 25
25 1 25 26
26 1 26 27
27 1 27 28
28 1 28 29
29 1 29 30
30 1 30 31
31 1 31 32
32 1 32 33
33 1 33 34

Angles

1 1 1 2 3
2 1 2 3 4
3 1 3 4 5
4 1 4 5 6
5 1 5 6 7
6 1 6 7 8
7 1 7 8 9
8 1 8 9 10
9 1 9 10 11
10 1 10 11 12
11 1 11 12 13
12 1 12 13 14
13 1 13 14 15
14 1 14 15 16
15 1 15 16 17
16 1 16 17 18
17 1 17 18 19
18 1 18 19 20
19 1 19 20 21
20 1 20 21 22
21 1 21 22 23
22 1 22 23 24
23 1 23 24 25
24 1 24 25 26
25 1 25 26 27
26 1 26 27 28
27 1 27 28 29
28 1 28 29 30
29 1 29 30 31
30 1 30 31 32
31 1 31 32 33
32 1 32 33 34
