LAMMPS data file via write_data, version 29 Aug 2024, timestep = 408000000, units = real

100 atoms
4 atom types
99 bonds
1 bond types
98 angles
1 angle types

-500.6 500.6 xlo xhi
-500.6 500.6 ylo yhi
-500.6 500.6 zlo zhi

Masses

1 329.2
2 305.2
3 345.2
4 306.2

Bond Coeffs # harmonic

1 7.5 5.9

Angle Coeffs # harmonic

1 5 150

Atoms # full

32 1 2 0 -62.720258438650674 415.3707920156822 -297.46770194553727 0 -1 -3
27 1 4 0 -43.500709567002836 413.97881993274063 -300.8928264910588 0 -1 -3
29 1 1 0 -47.82282256261343 421.54905295116475 -301.0463212211532 0 -1 -3
30 1 4 0 -53.66336963563958 420.8962700585499 -301.47060071125486 0 -1 -3
28 1 2 0 -43.36120930425783 419.17454509211336 -303.7717534229626 0 -1 -3
52 1 3 0 -134.6536707149073 404.79901711846287 -283.8954943425546 0 -1 -3
53 1 2 0 -129.97945282614896 401.4424444404872 -283.94570678783793 0 -1 -3
14 1 4 0 -95.85954271081445 402.33570940414836 -282.0145229738088 0 -1 -3
15 1 4 0 -91.3814769621994 404.3092750868035 -285.18849689332643 0 -1 -3
16 1 2 0 -88.7714956783976 409.4300500407292 -287.86160376072326 0 -1 -3
17 1 3 0 -84.7236870481545 413.2855346629245 -286.1401488632343 0 -1 -3
35 1 1 0 -69.91500151835224 403.8353402326265 -286.6236799007137 0 -1 -3
36 1 2 0 -72.54516237263718 404.75096154072526 -281.4705055307412 0 -1 -3
21 1 4 0 -66.70132935692247 414.5823898599701 -279.3407366825199 0 -1 -3
33 1 2 0 -66.02458246606031 411.20477822357145 -295.0499277917923 0 -1 -3
34 1 1 0 -67.73566016855423 407.1999157707432 -291.2187420053705 0 -1 -3
22 1 3 0 -62.18774428783586 411.609754963129 -281.61973202290415 0 -1 -3
24 1 4 0 -53.553165401265645 410.0220023854583 -288.7882403437176 0 -1 -3
23 1 1 0 -58.84576935786172 410.76957234026946 -286.1020938505592 0 -1 -3
26 1 2 0 -47.20894631252896 410.21767618147726 -297.79426652782195 0 -1 -3
25 1 2 0 -51.86091319751175 411.6430762447421 -294.0844043615784 0 -1 -3
18 1 1 0 -80.01840894835613 416.5672866698513 -285.45119383667475 0 -1 -3
20 1 3 0 -71.42507901474164 418.2269393384765 -279.0650698285694 0 -1 -3
19 1 4 0 -76.85225462903665 419.1754130250968 -280.9946501575801 0 -1 -3
31 1 3 0 -57.81285701811232 416.86883899370685 -300.2757039298653 0 -1 -3
54 1 4 0 -124.15517261055257 400.58833900608784 -282.66344999701016 0 -1 -3
55 1 1 0 -120.01222640304383 400.09457000812586 -278.77212512464655 0 -1 -3
56 1 2 0 -117.69383696169317 396.0512586628575 -275.38452213331067 0 -1 -3
93 1 4 0 -125.18233584790326 396.7329579039624 -266.62686663561635 0 -1 -3
57 1 2 0 -115.49413121150616 391.9982725432266 -271.9952574074167 0 -1 -3
51 1 2 0 -138.89346539316935 408.327725330059 -284.9460804350474 0 -1 -3
50 1 4 0 -139.356899550496 413.6415595063861 -282.1452054792423 0 -1 -3
94 1 1 0 -123.01794653072415 402.14415908177625 -268.9852060043395 0 -1 -3
95 1 3 0 -124.89123703154323 406.4373455112652 -272.29800830295756 0 -1 -3
96 1 3 0 -124.87266419112211 410.68658833770496 -276.54557530255903 0 -1 -3
97 1 1 0 -123.4846908102948 415.9341488639281 -278.56159719006615 0 -1 -3
12 1 4 0 -101.57848876495143 398.2815106287901 -273.58091596984843 0 -1 -3
10 1 4 0 -110.91644633653864 401.32171183523934 -268.0766814441449 0 -1 -3
11 1 4 0 -105.60420125664194 400.71741689175525 -270.3688181045404 0 -1 -3
43 1 4 0 -109.58703567089842 412.9112808847391 -270.74882594754536 0 -1 -3
42 1 3 0 -104.45568140197814 409.8340516014002 -272.0432626226432 0 -1 -3
44 1 2 0 -114.69234114279679 414.7645188422025 -267.98557291159597 0 -1 -3
13 1 4 0 -97.28270589538755 398.9591635592892 -277.64281046790046 0 -1 -3
39 1 1 0 -88.09150378379547 409.58333367577217 -276.5976288272522 0 -1 -3
40 1 2 0 -93.51831187002941 411.35903778609867 -274.2151476787984 0 -1 -3
41 1 1 0 -98.98834864430204 411.8073084445193 -272.4520252300805 0 -1 -3
38 1 3 0 -82.26677680331503 408.5906170287939 -275.76923567476274 0 -1 -3
37 1 4 0 -77.33502641733655 405.6152487881913 -277.8126652071749 0 -1 -3
49 1 1 0 -136.02510007133003 417.1701447621185 -278.1932456313932 0 -1 -3
48 1 2 0 -133.39408829125085 421.3525919643211 -275.0414945749788 0 -1 -3
47 1 3 0 -129.50070574811534 421.73151573053764 -270.631934643061 0 -1 -3
98 1 4 0 -117.97717465594542 417.3013009993122 -278.7712761235248 0 -1 -3
99 1 4 0 -112.12045519622225 417.2958065913833 -280.1499150993121 0 -1 -3
100 1 2 0 -106.85144903441052 415.1196821564751 -279.86254389469804 0 -1 -3
75 1 1 0 -107.94877782211333 430.19265413696735 -267.59572167783296 0 -1 -3
73 1 1 0 -98.37918735876138 430.6673045765146 -274.0399001705195 0 -1 -3
74 1 1 0 -103.44775358119072 432.30046778626604 -270.9148032280304 0 -1 -3
88 1 2 0 -115.8777706731258 386.08295448249936 -253.0285229074441 0 -1 -3
91 1 4 0 -126.8659892331883 387.22120706219573 -263.4069401585659 0 -1 -3
90 1 2 0 -123.53324925831714 382.76531983391476 -261.73196454366183 0 -1 -3
92 1 1 0 -128.53483571776877 392.14269918534245 -266.4637681927447 0 -1 -3
89 1 1 0 -119.99563399801926 384.59783256417387 -257.04288307535654 0 -1 -3
58 1 2 0 -111.31687599969908 390.1716824154755 -268.5201112673146 0 -1 -3
59 1 3 0 -108.97178689650957 391.96861498183233 -263.2364505893953 0 -1 -3
60 1 3 0 -109.32433408269326 393.1490583071219 -257.6344959074668 0 -1 -3
61 1 4 0 -108.12350132926221 394.85444237256934 -252.2054720854637 0 -1 -3
82 1 3 0 -96.79498142613825 396.682855902762 -259.01989366439096 0 -1 -3
83 1 4 0 -96.04334351883826 392.51191970460025 -254.9808776267548 0 -1 -3
84 1 3 0 -98.15263150741886 388.8826847050773 -250.7578236805031 0 -1 -3
7 1 1 0 -119.85827853520314 398.9490531884456 -255.02832453242107 0 -1 -3
45 1 2 0 -119.54801541715877 418.0145341474841 -266.63932717903833 0 -1 -3
9 1 3 0 -114.52019723605325 402.34639793992113 -263.1689889828839 0 -1 -3
8 1 2 0 -119.3589135998531 402.03406232472724 -259.97349178911514 0 -1 -3
80 1 4 0 -102.86620462609663 406.366898826727 -259.4894575927672 0 -1 -3
79 1 2 0 -104.57228983330769 411.85581450320484 -258.619329805289 0 -1 -3
81 1 2 0 -99.42517627283911 401.8862037997723 -260.35616461176613 0 -1 -3
78 1 4 0 -107.4830466593965 416.64910429406495 -260.5992536318968 0 -1 -3
69 1 2 0 -87.51336354225707 415.75190939865496 -264.91688119288614 0 -1 -3
68 1 3 0 -89.24352445979682 410.0943257861349 -262.9904398500996 0 -1 -3
67 1 2 0 -88.8282167274684 405.252236183133 -259.71085242283704 0 -1 -3
66 1 3 0 -86.73712714509016 402.99007341963573 -254.70479531563066 0 -1 -3
46 1 2 0 -125.25448400128086 418.5248680887473 -268.244246183116 0 -1 -3
76 1 3 0 -110.23281400224081 426.5937430120232 -263.0939482957748 0 -1 -3
77 1 1 0 -110.10582930793458 421.77795797408817 -260.3259595993387 0 -1 -3
72 1 1 0 -93.04829564447535 428.79791275137546 -271.9532589419254 0 -1 -3
71 1 4 0 -89.59620538202462 423.9214496462423 -271.87601909321455 0 -1 -3
70 1 1 0 -87.77397764694038 419.0217253733139 -269.69235070385554 0 -1 -3
87 1 2 0 -110.24305059036715 385.48854457716925 -251.20851367811406 0 -1 -3
86 1 2 0 -105.36632565448744 382.13465738885543 -250.2689954106802 0 -1 -3
4 1 2 0 -117.98463807869443 398.9615810900587 -237.62681467055086 0 -1 -3
5 1 4 0 -119.27297699315393 397.5156271438036 -243.10453208819294 0 -1 -3
62 1 4 0 -104.64217779924142 397.2485555596069 -247.29816652175882 0 -1 -3
63 1 4 0 -99.18421751938907 399.0243603872662 -245.7807210214396 0 -1 -3
85 1 4 0 -99.27078548128448 383.15708034664107 -249.61593192648033 0 -1 -3
6 1 2 0 -118.83301629257318 398.9015308614731 -249.03587923591533 0 -1 -3
64 1 4 0 -93.68602215309909 401.07101238839874 -246.52582949618835 0 -1 -3
65 1 2 0 -88.8748476123662 402.01592160526764 -249.41542739840074 0 -1 -3
2 1 2 0 -125.83056825267741 404.1207919909568 -231.8863683208775 0 -1 -3
3 1 1 0 -120.77555071429187 400.5528358234463 -232.67965043036082 0 -1 -3
1 1 3 0 -129.6514068006076 407.32777347300726 -234.08833303813773 0 -1 -3

Velocities

32 -0.00029397555393554194 -0.0013933226164000773 0.0015024472129494019
27 0.0004368350108445075 0.0002781886936798848 0.001113764459658775
29 -0.0002637961963654246 -0.0016806741801431672 -0.00029625498862255516
30 -0.00011906772726489307 -0.001477346579885727 0.0005603854839113184
28 -0.001402603110757614 -0.0004501064539652736 0.0011542913099319065
52 0.00034171237851308826 8.024985635788918e-05 0.00029870155398347917
53 -0.00010364856806542508 -0.00018940598833589172 -0.0005960705789768702
14 -0.0009039777150084441 0.0007023245255578243 0.0018506692547922193
15 -0.0003313852346168847 -0.0010358003500958435 0.0005218695719879134
16 0.001498489019203248 0.0007211644574319309 0.000684834334034428
17 -5.1272258993498705e-05 6.820316692956877e-05 0.0013712417119426648
35 -0.000193916751603947 0.0009570543563142629 0.00038379190247713634
36 0.0005814345174282725 1.8955495106126982e-05 -0.0012686897393140639
21 -1.7417919222133306e-05 -0.0009933115360816268 0.001804066219707523
33 0.0006521349730285769 0.0025143161211631576 -0.00030583899488610087
34 0.0005192440365356989 0.0003053035013137581 0.000468589380970008
22 -0.00048430975663978966 0.0002887933349185249 0.0010837040096940572
24 -0.0004605188795463511 0.0004606266288796088 0.0005354525639765197
23 0.00010346389910013479 0.0013512389685869067 0.0011286689107934584
26 -0.0009756815859473727 1.907026460640683e-06 9.341004115150889e-05
25 -0.0003730108718930698 -0.0004052523790875178 -0.0008321242795108558
18 -0.0005290709125637198 -0.0014720558923864095 -0.0007402952909137552
20 -0.0001323708520903682 0.0004974353108621431 0.0004149708470316374
19 2.9743340807549634e-05 0.0004971630293097058 0.00016423220225271617
31 -0.000765174627293002 -0.0004007005670696373 0.0007296878914914926
54 0.0003205658420439864 -0.0004989759287216878 0.0006289372662140099
55 -0.0005354096876785019 0.0014228201534302644 0.0003304999752940099
56 0.00016224573784731056 0.0005266079568572995 -3.5085641179960146e-05
93 -0.000947632532312863 -0.0006353407064498369 -0.00034441129623266435
57 -0.00022160006130222414 -0.0007674108860849954 -0.0004375475638018435
51 -0.0006145301519808394 0.0002731774144240749 -0.0007399290246584385
50 -0.000358339497533173 0.00045642833611844605 0.002144238739501282
94 0.0015431890307262572 0.00024110595365650335 -0.0007977369082561095
95 0.0009613478387129669 0.0011593318276138425 -0.0018788711142342749
96 -0.0007334184487098965 -0.0001298321070944524 -0.0008157497697269073
97 -0.0005875395595385998 0.0006662591594198905 1.6440115798355891e-06
12 -0.0012822346386714475 0.0006944539998374467 -0.0008095689817260173
10 0.0012246217804432506 -8.619922623767252e-05 0.0007638488778720462
11 0.000508440668484504 0.0006369468157134811 -0.0001429980994250471
43 0.00045519666159577203 -0.0006689529904865021 -0.0007716910557346755
42 -0.001113090247517882 -0.0006402082460045202 -0.00011456503936801931
44 0.00038468192222913995 0.0007432923852498834 -0.0008161688608151246
13 0.0013033992072063194 -0.0006429247788335959 -0.0010916283650447185
39 9.689008678589295e-05 -0.00028060189655451504 0.0010068511795469231
40 0.0005316467225354698 0.0001531084945291396 0.0013244782075034485
41 7.19608719829395e-05 0.00021287611515494924 -0.0009474174648784179
38 -0.0004440830818060284 -0.0005917148427471221 -0.0002799100720035762
37 -8.449395866437628e-05 -0.00015836362626437037 -0.00018146761083364434
49 -0.0010760936736414035 0.0009198938239635 -0.0007913298541730686
48 -0.0009331772402278548 -0.0010272912427942184 -0.0004172703172326716
47 -0.0006571115452407828 0.0002248628819790079 0.0004961039294928477
98 0.00037965664334103704 0.0010079206245528014 -0.00098242925694167
99 1.9888352104033676e-06 0.0003630077082639476 -0.0007949267956586548
100 0.000421698935355044 -0.00039062172579217914 0.0004922549064298724
75 0.0008711080878407997 -0.0004953209633820367 1.5230817711432522e-05
73 -0.0008915017988391709 1.4227262222335979e-05 0.0008079399416611526
74 -0.001133792563032143 0.0013844259483597608 -4.322111324177488e-05
88 0.0001605465072840326 -0.000185025129763282 0.00023193609989561654
91 -0.00010388689615978965 -5.437887085205558e-05 -7.731594135878765e-05
90 0.001089559663786707 0.00041333507511283574 -0.0008108248493401489
92 -0.0008139710860662429 -0.0016381148932654158 0.0014079012009692877
89 -0.0013251573690188513 -0.0009570277679277531 -0.00022752403642899095
58 0.0004312805731331497 0.0003357877050908355 0.000676414533248309
59 -0.0002809658111440271 -8.671998677366933e-05 -0.0017836160612891825
60 0.00030104922505129537 -0.00029697986131592993 -0.0008157343526126305
61 8.086255956247334e-05 0.0005220940212793869 -0.00042569145450728924
82 -0.0019176324231786003 -0.001198030305879834 0.0004609210718058342
83 -0.0006940254722726577 -0.00014202145297435826 0.0008579473301895465
84 0.0002952934098652232 -0.0004273382761689353 5.657344624541494e-06
7 -0.0009911961126042935 -0.0007759026419497888 0.0012863752704588773
45 0.0005492091891153966 -0.0004974966815558846 0.0010799227824306416
9 -6.372854733046853e-05 -0.0005708073044267298 0.0005305350742941745
8 0.0017792036056908597 0.000318384489700249 0.00034687374000371763
80 -0.0006092764437445545 -0.0006055686070153837 -3.6641586170390076e-05
79 -0.0008970311339107794 0.0014602489902529492 -0.0009339811261051376
81 0.00034727346558667256 0.0012777294113239842 -0.00028156512937927406
78 0.000446537200283354 -0.0015530931564581901 -0.0001285438566898937
69 0.0013547790224106707 0.0003656357621949304 0.0008472393202936652
68 -0.0008822953987192977 -0.0008826736174368842 -0.0007775011906122258
67 -0.00020333662731521375 0.00020787252643354655 0.0013049944473608444
66 0.0010165947176293778 0.00039428898734386933 -0.0005563446772188434
46 -0.001110560957591989 0.000184198019022854 -0.0021263506786164178
76 0.0014097369494870191 0.00037446049203792724 0.0005338687333998351
77 -0.0006488484830552154 0.000275448463654745 -0.00012667914546236956
72 -0.0009519050248224749 -0.000664576448993735 -0.00034846066120559823
71 -0.002902206135266226 -0.0010602951133777717 -0.0031310251121980342
70 -0.00012209926067320717 -0.0004070786968728246 -0.00027937903013986663
87 6.60813476560832e-05 0.001445165441153199 0.0013164701661833088
86 -9.421270587409787e-05 0.00034134903974831647 -0.00029445062397311263
4 -0.00023889086096176131 -0.00025685017683615995 -0.0014504850523003798
5 -0.0005313165262340414 0.00012485073197873817 -0.0003180403746097322
62 0.0006800489381793902 -0.0002745814035849823 -0.0006608532296636503
63 0.00018468800893847452 0.0004136964441725108 0.0001633860908094178
85 0.0002172435598618213 -0.00031156237804110616 -0.0007890248757316508
6 0.000631345639152746 -0.0006659760958522841 0.0012879762441165826
64 0.0006543994580301927 -0.00016494579914619507 0.0005019065187933136
65 0.000736893890795645 -0.00047497560032671855 4.274317090557735e-05
2 -0.001516587946090575 -0.001099174915858396 0.0007487344806467173
3 0.0012458754225912225 0.0015871747293368938 -0.000462896419680452
1 0.001273300071765396 0.0006378932277204635 -0.0007421566677022165

Bonds

1 1 32 33
2 1 27 28
3 1 29 30
4 1 30 31
5 1 28 29
6 1 52 53
7 1 53 54
8 1 14 15
9 1 15 16
10 1 16 17
11 1 17 18
12 1 35 36
13 1 36 37
14 1 21 22
15 1 33 34
16 1 34 35
17 1 22 23
18 1 24 25
19 1 23 24
20 1 26 27
21 1 25 26
22 1 18 19
23 1 20 21
24 1 19 20
25 1 31 32
26 1 54 55
27 1 55 56
28 1 56 57
29 1 93 94
30 1 57 58
31 1 51 52
32 1 50 51
33 1 94 95
34 1 95 96
35 1 96 97
36 1 97 98
37 1 12 13
38 1 10 11
39 1 11 12
40 1 43 44
41 1 42 43
42 1 44 45
43 1 13 14
44 1 39 40
45 1 40 41
46 1 41 42
47 1 38 39
48 1 37 38
49 1 49 50
50 1 48 49
51 1 47 48
52 1 98 99
53 1 99 100
54 1 75 76
55 1 73 74
56 1 74 75
57 1 88 89
58 1 91 92
59 1 90 91
60 1 92 93
61 1 89 90
62 1 58 59
63 1 59 60
64 1 60 61
65 1 61 62
66 1 82 83
67 1 83 84
68 1 84 85
69 1 7 8
70 1 45 46
71 1 9 10
72 1 8 9
73 1 80 81
74 1 79 80
75 1 81 82
76 1 78 79
77 1 69 70
78 1 68 69
79 1 67 68
80 1 66 67
81 1 46 47
82 1 76 77
83 1 77 78
84 1 72 73
85 1 71 72
86 1 70 71
87 1 87 88
88 1 86 87
89 1 4 5
90 1 5 6
91 1 62 63
92 1 63 64
93 1 85 86
94 1 6 7
95 1 64 65
96 1 65 66
97 1 2 3
98 1 3 4
99 1 1 2

Angles

1 1 31 32 33
2 1 26 27 28
3 1 28 29 30
4 1 29 30 31
5 1 27 28 29
6 1 51 52 53
7 1 52 53 54
8 1 13 14 15
9 1 14 15 16
10 1 15 16 17
11 1 16 17 18
12 1 34 35 36
13 1 35 36 37
14 1 20 21 22
15 1 32 33 34
16 1 33 34 35
17 1 21 22 23
18 1 23 24 25
19 1 22 23 24
20 1 25 26 27
21 1 24 25 26
22 1 17 18 19
23 1 19 20 21
24 1 18 19 20
25 1 30 31 32
26 1 53 54 55
27 1 54 55 56
28 1 55 56 57
29 1 92 93 94
30 1 56 57 58
31 1 50 51 52
32 1 49 50 51
33 1 93 94 95
34 1 94 95 96
35 1 95 96 97
36 1 96 97 98
37 1 11 12 13
38 1 9 10 11
39 1 10 11 12
40 1 42 43 44
41 1 41 42 43
42 1 43 44 45
43 1 12 13 14
44 1 38 39 40
45 1 39 40 41
46 1 40 41 42
47 1 37 38 39
48 1 36 37 38
49 1 48 49 50
50 1 47 48 49
51 1 46 47 48
52 1 97 98 99
53 1 98 99 100
54 1 74 75 76
55 1 72 73 74
56 1 73 74 75
57 1 87 88 89
58 1 90 91 92
59 1 89 90 91
60 1 91 92 93
61 1 88 89 90
62 1 57 58 59
63 1 58 59 60
64 1 59 60 61
65 1 60 61 62
66 1 81 82 83
67 1 82 83 84
68 1 83 84 85
69 1 6 7 8
70 1 44 45 46
71 1 8 9 10
72 1 7 8 9
73 1 79 80 81
74 1 78 79 80
75 1 80 81 82
76 1 77 78 79
77 1 68 69 70
78 1 67 68 69
79 1 66 67 68
80 1 65 66 67
81 1 45 46 47
82 1 75 76 77
83 1 76 77 78
84 1 71 72 73
85 1 70 71 72
86 1 69 70 71
87 1 86 87 88
88 1 85 86 87
89 1 3 4 5
90 1 4 5 6
91 1 61 62 63
92 1 62 63 64
93 1 84 85 86
94 1 5 6 7
95 1 63 64 65
96 1 64 65 66
97 1 1 2 3
98 1 2 3 4
