LAMMPS data file via write_data, version 29 Aug 2024, timestep = 408000000, units = real

100 atoms
4 atom types
99 bonds
1 bond types
98 angles
1 angle types

-500.6 500.6 xlo xhi
-500.6 500.6 ylo yhi
-500.6 500.6 zlo zhi

Masses

1 329.2
2 305.2
3 345.2
4 306.2

Bond Coeffs # harmonic

1 7.5 5.9

Angle Coeffs # harmonic

1 5 150

Atoms # full

41 1 3 0 -108.39883840303384 -479.1128967363756 -435.20610441928034 0 0 -3
40 1 3 0 -105.50835027602784 -474.3804120048655 -433.4425692073223 0 0 -3
42 1 2 0 -111.94802825262843 -483.0535300816711 -432.6200654174702 0 0 -3
45 1 3 0 -127.10689600073596 -486.86923442656666 -426.71954884498916 0 0 -3
46 1 3 0 -132.81319091784792 -485.43353944260633 -426.43875474885186 0 0 -3
44 1 3 0 -122.16205361036843 -485.337181876063 -429.6744246629954 0 0 -3
31 1 2 0 -92.79270202225293 -489.25249936938263 -418.7497899710245 0 0 -3
30 1 3 0 -87.42040363309928 -486.8884046467112 -419.49456430222114 0 0 -3
29 1 2 0 -83.00024750401187 -485.09014330464277 -423.10862724160444 0 0 -3
47 1 1 0 -138.209228278584 -482.44620835157616 -426.9936312230262 0 0 -3
48 1 3 0 -137.5881452159566 -476.7690880481837 -428.6835417150046 0 0 -3
49 1 1 0 -133.6030698144613 -472.6934278647251 -427.5929270332902 0 0 -3
43 1 4 0 -116.46306995827626 -485.16427672984713 -429.53230627490746 0 0 -3
50 1 4 0 -128.52438762551054 -473.4321000479219 -424.7868814860668 0 0 -3
51 1 1 0 -123.72007145837779 -476.3575216193869 -425.1542332009831 0 0 -3
52 1 3 0 -118.13918764864053 -476.1060140990892 -422.7183508265307 0 0 -3
54 1 4 0 -107.53038022904914 -480.20981184645626 -424.73631728994235 0 0 -3
53 1 4 0 -112.817867283373 -478.58118156416106 -421.9842040158899 0 0 -3
55 1 4 0 -101.53984097322258 -480.41263970235514 -425.43034646665717 0 0 -3
37 1 3 0 -103.70936051901532 -469.2226863851007 -417.6318154900539 0 0 -3
56 1 4 0 -96.81460489560737 -477.81529565177794 -422.9654864583618 0 0 -3
57 1 3 0 -93.37263495932409 -477.71068851616684 -417.9812887713575 0 0 -3
28 1 2 0 -80.47155030207455 -479.7002803833125 -423.55915718454366 0 0 -3
27 1 2 0 -81.77784659314361 -474.2560069882503 -425.04039917700993 0 0 -3
26 1 3 0 -80.82302370507067 -468.6497420919445 -425.864474225636 0 0 -3
39 1 1 0 -104.69312695459325 -470.5430822301543 -429.112813313363 0 0 -3
38 1 1 0 -102.76683533997554 -469.3890214569708 -423.5320726357759 0 0 -3
23 1 4 0 -92.73154696613373 -460.5885963938153 -418.11883156900996 0 0 -3
24 1 3 0 -90.59474602447504 -463.6661802302134 -422.6959379580369 0 0 -3
25 1 3 0 -86.07171753161688 -465.39784087441586 -426.2022000181341 0 0 -3
64 1 2 0 -86.23125311387153 -450.9159928756499 -422.23237845506554 0 0 -3
65 1 2 0 -91.60037492394879 -448.43695841288326 -421.15379767628286 0 0 -3
63 1 3 0 -81.06471933198911 -453.6606886816794 -421.7971323153859 0 0 -3
62 1 4 0 -79.7307622930826 -456.99706224778726 -417.29183386124237 0 0 -3
12 1 1 0 -107.93128202626137 -435.11019493717185 -416.89140372276324 0 0 -3
66 1 1 0 -95.53148592019154 -447.0028026051299 -416.98698867031413 0 0 -3
76 1 2 0 -116.76224864497108 -425.8379085131554 -419.14106188986085 0 0 -3
13 1 3 0 -103.02776148556748 -432.5631102855634 -418.6274150325072 0 0 -3
87 1 3 0 -150.11852320281304 -401.2361274903219 -422.94814850174555 0 0 -3
85 1 1 0 -154.36326639200183 -411.71383200314534 -423.29318995853635 0 0 -3
86 1 2 0 -153.1571729039527 -405.97547740998334 -423.904690132737 0 0 -3
88 1 4 0 -145.71826922109327 -398.80857354739624 -425.6348566452837 0 0 -3
89 1 1 0 -142.47597114454214 -393.6428050385006 -426.95276353800006 0 0 -3
90 1 1 0 -141.52172229123656 -387.9725051655863 -428.6734242075465 0 0 -3
91 1 2 0 -145.00407786341475 -383.1647490036617 -429.8745783831354 0 0 -3
92 1 3 0 -148.3559451910887 -378.38212119006255 -429.893177233316 0 0 -3
93 1 3 0 -149.3565317693784 -372.41864320276903 -429.0017172523998 0 0 -3
100 1 1 0 -176.53123522651094 -349.48978800806725 -425.6780518432787 0 0 -3
99 1 4 0 -171.97861044868802 -352.647995225773 -426.5051683285863 0 0 -3
98 1 4 0 -166.34008942498443 -352.9502056790794 -427.74488493790506 0 0 -3
95 1 1 0 -151.13132403558095 -361.82790292897454 -430.38259738716255 0 0 -3
96 1 2 0 -156.7506186919918 -359.3267903208256 -428.653628218746 0 0 -3
97 1 3 0 -161.81908120658701 -356.0861457822142 -429.08632505293644 0 0 -3
94 1 4 0 -148.7413679434968 -366.9283574491812 -429.69366635069514 0 0 -3
32 1 1 0 -97.82682772314718 -489.3134421730176 -415.775121135152 0 0 -3
33 1 3 0 -102.48353499537646 -487.16244809948785 -413.58351455173727 0 0 -3
36 1 3 0 -103.73652285386032 -471.9198263526863 -412.25360163726015 0 0 -3
35 1 2 0 -106.22242818347453 -476.9776025172724 -411.0472264491014 0 0 -3
58 1 2 0 -87.95864732087546 -475.5032268862762 -416.6575349139156 0 0 -3
59 1 2 0 -85.4473719360328 -470.56144091059525 -413.8242927749971 0 0 -3
34 1 1 0 -105.41854820703401 -482.6344040293473 -411.20934989050085 0 0 -3
22 1 3 0 -92.74952583212009 -458.5046611432424 -412.3321116346733 0 0 -3
21 1 3 0 -94.45102034934003 -454.3977274858546 -408.7895703569712 0 0 -3
60 1 1 0 -82.0246462319194 -466.214237738965 -412.676640251377 0 0 -3
61 1 4 0 -78.9897955372928 -461.6529562362695 -414.29525711904864 0 0 -3
69 1 2 0 -104.76141004848537 -442.93856788819795 -404.52099064934964 0 0 -3
10 1 3 0 -115.37789140168266 -434.16055971539265 -408.26621879286364 0 0 -3
11 1 3 0 -112.5166912216348 -434.86573411115256 -413.0504542894788 0 0 -3
70 1 1 0 -105.61424696983839 -437.8502946633319 -402.0358415476906 0 0 -3
20 1 1 0 -92.81835068506236 -449.77860269661875 -405.7165873115028 0 0 -3
67 1 2 0 -100.07995462288261 -446.06548214721016 -413.8734404217526 0 0 -3
68 1 2 0 -104.21244672104696 -446.01321066466375 -409.277862286911 0 0 -3
19 1 2 0 -94.18801219792918 -444.4968991386037 -405.11557782374666 0 0 -3
18 1 2 0 -94.82329538647734 -439.63353982886787 -402.00800163920474 0 0 -3
17 1 3 0 -94.93160014820201 -433.84232899444737 -402.48579753888055 0 0 -3
82 1 3 0 -145.60496801233066 -422.7759403356768 -415.46324218451434 0 0 -3
80 1 4 0 -134.85107428018833 -427.95653295209826 -412.54772144348135 0 0 -3
81 1 1 0 -140.32279456477357 -425.5278535925945 -414.07549434790275 0 0 -3
83 1 4 0 -149.144785325311 -418.78747630632625 -417.74081437407256 0 0 -3
79 1 1 0 -129.87662958827866 -428.208101781039 -409.1993284933562 0 0 -3
78 1 4 0 -124.60540719007336 -427.69255717740987 -411.0660200701948 0 0 -3
77 1 3 0 -121.55598736280014 -427.52601104911565 -416.0963345790422 0 0 -3
8 1 4 0 -117.9163032973744 -424.27723329803456 -403.2463311306229 0 0 -3
9 1 4 0 -116.79061439773453 -430.12783187948384 -403.9067659171959 0 0 -3
75 1 3 0 -110.86717315754565 -423.9642108147871 -418.724517016006 0 0 -3
73 1 2 0 -105.46351997347487 -423.28565428309906 -408.5630955965081 0 0 -3
74 1 2 0 -107.59092104701415 -422.1279236753019 -413.820060494421 0 0 -3
7 1 3 0 -117.78402036992188 -418.83804530395844 -405.4751051132671 0 0 -3
72 1 4 0 -106.02819032036707 -427.49902027251034 -404.86349088974254 0 0 -3
14 1 1 0 -99.19394876210073 -428.9573628932446 -416.6223935683653 0 0 -3
15 1 1 0 -94.81739218233342 -429.0922694439599 -413.06174899093065 0 0 -3
16 1 4 0 -95.00382875886525 -430.7641540841107 -407.4639365363896 0 0 -3
84 1 1 0 -153.44526665575177 -416.6492306438253 -420.57093808935394 0 0 -3
4 1 4 0 -107.80074762354337 -405.7276506968959 -399.98234614301055 0 0 -3
5 1 1 0 -111.92706459077964 -409.575510936519 -402.16555282816944 0 0 -3
6 1 3 0 -114.88697410588173 -414.0421015362358 -404.9014986286675 0 0 -3
71 1 1 0 -107.06101419414854 -432.745872324456 -402.8084600314538 0 0 -3
3 1 1 0 -103.18780661938052 -407.6130867618348 -397.1184142663647 0 0 -3
2 1 1 0 -99.72614760296787 -407.2293820985629 -392.58450028572116 0 0 -3
1 1 2 0 -97.42341666546034 -408.3195527111852 -387.54669609576837 0 0 -3

Velocities

41 0.0002502169147500819 3.169911659907287e-05 -3.120743348588405e-05
40 0.0007898303640576683 0.00015030713540082664 -0.000566401591433221
42 0.000398327271977501 0.0005620716067159392 -0.0012064811152142547
45 0.0004342813807699549 -5.922717848907495e-05 -0.00021034140266500468
46 -0.0008877698797271413 -0.00039667038667162507 0.0002356576617524911
44 -0.00039417152372934404 0.00016139462674900763 0.0007538398352409535
31 -0.001519664289077764 0.000778626607115309 0.0010620654900417943
30 -0.00031912344658482054 -0.0010545259140986435 0.0002706609825510722
29 0.00031884776151583545 0.0009715491808742014 0.00041600891760264143
47 0.0012787375701091763 0.0009437829296283319 -0.0003193325598773774
48 -0.0003224409778532957 -0.00030132614111921054 -0.0008990715313223796
49 -0.0009661493748373377 0.0007078015477228501 -0.0012469753643732239
43 -0.0002654499633331986 -0.0005083289908139297 0.0010488518643311827
50 -0.0002183888384349625 -0.0008503003099559527 0.0007854641683131727
51 0.0005650892835900644 -0.0003011401098344483 -0.0005672691428760048
52 0.0008892329538964389 -0.00070125731615409 0.0014007981619666512
54 -0.000185665738444314 0.0008455633757076945 0.0004537277256231118
53 0.0012148903968071392 -0.0007955108743793205 -0.001290775245107437
55 0.0005724506296482225 -0.0003853145564378572 -0.000277678441216323
37 0.00031042330784534036 -0.0021225925682663432 0.000174911638193627
56 -0.0014763271639268104 -0.001204185910460148 -0.0008276715610190992
57 0.001348272224206585 0.0005240137171745159 0.0018907075096464222
28 -0.0010137800605413243 -0.0007963894858893139 0.0004946005119278278
27 -0.00037509360142154446 -9.605181751520194e-05 0.00017667099044047
26 0.0009527564221807265 -0.0007990264601640157 -0.0009949197341844961
39 -9.044235800760762e-05 1.0798597506741855e-05 0.00012502940591962547
38 -0.0019656261315056643 -0.0006088471814283854 -0.0001340775293683254
23 -0.0006538695948493161 0.001139083894716462 0.000563383825466652
24 0.0007292771145633916 0.0011487794418178067 -0.0010197165251870158
25 -0.000823596769149093 -0.001095842014268784 -0.0010069106384161816
64 -0.0011744618258184049 -0.0006844012662543359 0.0003744675525447654
65 -0.000879051634181526 -0.0004652340524653327 0.0010376606917660426
63 -5.5812891792428905e-05 -0.0002630462364895259 0.0002839976645609753
62 0.0005070122327773032 0.0003299402804326125 -0.00017604496770602985
12 0.0005694533361395252 -0.00011065919541161083 -0.0013295714462955787
66 0.00066549693521734 -0.0009514904785417279 -0.0010166069928001162
76 -0.0007127347821443159 -5.711502423083046e-05 -0.0004196572369160291
13 -0.00031320422202197777 0.0008275124015919329 -0.0011876959383750657
87 0.0003913832799449527 -2.8964636786702286e-05 0.00043415037115437867
85 0.00022417965950379332 0.0004755755903835601 0.0007658068650720192
86 -0.0006376561863505241 0.0003521096840167631 0.00043065209269806223
88 0.00025969280939051425 0.00016505763490477104 0.0016594322813165703
89 0.0011659993912166656 0.00020066437448472445 0.0007927061388449749
90 0.0006565158661245961 0.0007591582717348342 -0.00032107209156806833
91 0.00178759428164083 -0.0005220045952434376 0.00013275849680487243
92 -0.0016134460064648937 0.0011743623719283587 0.0011524735961870138
93 -0.00129901328812107 -0.0016397529724846416 -0.0002658385571357476
100 0.00034660328908715603 -0.00018806251902408577 0.00020219251848360806
99 0.000319267217407834 0.00021782660226427923 3.5780150964534865e-05
98 0.0024821838618684484 0.0003949726081972169 -0.001237886781558984
95 -0.0011702379423457544 -0.0005419046184083988 -5.845108178257404e-05
96 -0.000527664534591344 0.00048501210121276023 8.413921681152811e-05
97 0.0005506256371282255 0.0009372477662132934 0.0006449050010489301
94 -0.0012702933729891203 0.0012813795242032746 3.1713153590653426e-06
32 0.001520238335265443 -0.0003158691041762523 0.0014813553157755363
33 -0.0004184732882924988 0.0007427780079449289 -0.0004542373374475022
36 8.34421099414042e-06 9.478857295432948e-05 0.00032699117014935706
35 -0.00017844887705277196 -0.0007281227693034248 -0.001348306514428521
58 -0.0005574076621845697 0.0008937296627151863 0.00011573313851245401
59 0.0009090251266851277 -0.0016487773614223273 -0.000208671535637849
34 -0.00021961383372479397 -0.0003056146064213095 -0.0012069558550552438
22 -5.0628621826559886e-05 -0.00020633423035368387 -0.00036262251723369977
21 -0.0003397491208134916 0.0007828836092725135 -0.0002804271949982784
60 5.6616081321511985e-05 -0.0011441878801645054 -0.00021875398389262012
61 9.291722483950517e-05 -0.0005010443342394579 0.00013518602502340886
69 -0.00022016208258181718 0.0006438226683944565 0.0008133332366276518
10 -0.0001313301769911748 -0.0004897062041921619 -0.0007731413723076919
11 0.0011719023814159722 0.0006430143312006107 -0.00044140219943565254
70 -0.0011271570778952095 0.00020242781529782185 0.0009702143443843295
20 -0.0009252523602827354 0.0012132424177275346 0.0010110277511302728
67 0.0003075882950064888 0.0006561786918296075 8.717384033482916e-05
68 -0.0017157905682434443 -0.00107723459194734 0.00033860824833980744
19 -0.00028423310916215946 -0.0009292091396256853 0.0022147861600064775
18 -0.0002462269244119942 0.0012188671013322655 0.0005615020075362122
17 -0.0006719000395616755 -0.00018508286276039623 -0.00013263654524593686
82 0.0021022245384448262 -4.4599148288833845e-06 -0.0002488538397063996
80 -0.0005560485304762168 0.0003066025199200709 -0.0020596881219168287
81 0.0002730119741424534 -0.0007595601534582423 -0.0014981651365650213
83 0.00022805986385306294 0.0007230387634509378 0.00044706077274668906
79 -0.00010174165211121667 0.00017965812089842866 -0.00043974952509411047
78 -0.0008283629588681075 0.00030184588370254053 0.0013323561871282704
77 1.5581232811255492e-05 -0.0005821862529917294 0.0010100082916628345
8 0.0020506187654265916 0.00048515013192667006 0.0008777806780612831
9 0.0002516161036930666 0.0002295976334984019 0.0001714092290610622
75 0.0015787965262531749 -0.0006291465933047913 -0.00035810337075938925
73 -0.0007046426106409095 -0.00038175327448907885 0.00028626384038501297
74 -0.001214102121944292 0.0001667015280412977 -0.0011497254489936223
7 0.0008264515369313703 0.0006102535415085958 0.0010346274156800867
72 -0.0021053911328751916 -0.0002853938257796396 0.00029451975806836023
14 -0.0010262094410199713 9.644362289913181e-05 5.3299471149800895e-05
15 0.0002294912031542783 -0.0007223578179814763 -0.0006927458345363793
16 -0.0007854384092485345 0.0013359437665702635 -0.00014842690510519476
84 -0.00022352966712031803 -0.0005796230100652549 -0.0014287939957674915
4 0.00034059156382477686 0.0007939448916438193 1.877728121846729e-05
5 -0.0012104917750068152 5.830481518477607e-05 0.000521135421338978
6 0.0006327830792601183 -0.0006652198150479887 -0.0002513172807010371
71 -0.0013163670953612809 0.0011800536016515607 -0.0008205410840980009
3 -0.00048178350814688785 -1.5574850659664247e-05 0.001317933934889893
2 -0.0007737693119381173 0.0005453863710568371 0.001172173239856766
1 -0.0016021852623648242 -0.00044918535529987194 -0.0006323256573347741

Bonds

1 1 41 42
2 1 40 41
3 1 42 43
4 1 45 46
5 1 46 47
6 1 44 45
7 1 31 32
8 1 30 31
9 1 29 30
10 1 47 48
11 1 48 49
12 1 49 50
13 1 43 44
14 1 50 51
15 1 51 52
16 1 52 53
17 1 54 55
18 1 53 54
19 1 55 56
20 1 37 38
21 1 56 57
22 1 57 58
23 1 28 29
24 1 27 28
25 1 26 27
26 1 39 40
27 1 38 39
28 1 23 24
29 1 24 25
30 1 25 26
31 1 64 65
32 1 65 66
33 1 63 64
34 1 62 63
35 1 12 13
36 1 66 67
37 1 76 77
38 1 13 14
39 1 87 88
40 1 85 86
41 1 86 87
42 1 88 89
43 1 89 90
44 1 90 91
45 1 91 92
46 1 92 93
47 1 93 94
48 1 99 100
49 1 98 99
50 1 95 96
51 1 96 97
52 1 97 98
53 1 94 95
54 1 32 33
55 1 33 34
56 1 36 37
57 1 35 36
58 1 58 59
59 1 59 60
60 1 34 35
61 1 22 23
62 1 21 22
63 1 60 61
64 1 61 62
65 1 69 70
66 1 10 11
67 1 11 12
68 1 70 71
69 1 20 21
70 1 67 68
71 1 68 69
72 1 19 20
73 1 18 19
74 1 17 18
75 1 82 83
76 1 80 81
77 1 81 82
78 1 83 84
79 1 79 80
80 1 78 79
81 1 77 78
82 1 8 9
83 1 9 10
84 1 75 76
85 1 73 74
86 1 74 75
87 1 7 8
88 1 72 73
89 1 14 15
90 1 15 16
91 1 16 17
92 1 84 85
93 1 4 5
94 1 5 6
95 1 6 7
96 1 71 72
97 1 3 4
98 1 2 3
99 1 1 2

Angles

1 1 40 41 42
2 1 39 40 41
3 1 41 42 43
4 1 44 45 46
5 1 45 46 47
6 1 43 44 45
7 1 30 31 32
8 1 29 30 31
9 1 28 29 30
10 1 46 47 48
11 1 47 48 49
12 1 48 49 50
13 1 42 43 44
14 1 49 50 51
15 1 50 51 52
16 1 51 52 53
17 1 53 54 55
18 1 52 53 54
19 1 54 55 56
20 1 36 37 38
21 1 55 56 57
22 1 56 57 58
23 1 27 28 29
24 1 26 27 28
25 1 25 26 27
26 1 38 39 40
27 1 37 38 39
28 1 22 23 24
29 1 23 24 25
30 1 24 25 26
31 1 63 64 65
32 1 64 65 66
33 1 62 63 64
34 1 61 62 63
35 1 11 12 13
36 1 65 66 67
37 1 75 76 77
38 1 12 13 14
39 1 86 87 88
40 1 84 85 86
41 1 85 86 87
42 1 87 88 89
43 1 88 89 90
44 1 89 90 91
45 1 90 91 92
46 1 91 92 93
47 1 92 93 94
48 1 98 99 100
49 1 97 98 99
50 1 94 95 96
51 1 95 96 97
52 1 96 97 98
53 1 93 94 95
54 1 31 32 33
55 1 32 33 34
56 1 35 36 37
57 1 34 35 36
58 1 57 58 59
59 1 58 59 60
60 1 33 34 35
61 1 21 22 23
62 1 20 21 22
63 1 59 60 61
64 1 60 61 62
65 1 68 69 70
66 1 9 10 11
67 1 10 11 12
68 1 69 70 71
69 1 19 20 21
70 1 66 67 68
71 1 67 68 69
72 1 18 19 20
73 1 17 18 19
74 1 16 17 18
75 1 81 82 83
76 1 79 80 81
77 1 80 81 82
78 1 82 83 84
79 1 78 79 80
80 1 77 78 79
81 1 76 77 78
82 1 7 8 9
83 1 8 9 10
84 1 74 75 76
85 1 72 73 74
86 1 73 74 75
87 1 6 7 8
88 1 71 72 73
89 1 13 14 15
90 1 14 15 16
91 1 15 16 17
92 1 83 84 85
93 1 3 4 5
94 1 4 5 6
95 1 5 6 7
96 1 70 71 72
97 1 2 3 4
98 1 1 2 3
