LAMMPS data file via write_data, version 29 Aug 2024, timestep = 408000000, units = real

200 atoms
4 atom types
199 bonds
1 bond types
198 angles
1 angle types

-1000.6 1000.6 xlo xhi
-1000.6 1000.6 ylo yhi
-1800.6 1000.6 zlo zhi

Masses

1 329.2
2 305.2
3 345.2
4 306.2

Bond Coeffs # harmonic

1 7.5 5.9

Angle Coeffs # harmonic

1 5 150

Atoms # full

98 1 2 0 699.612261879048 -857.5294863538028 -1090.2841008800192 -1 0 0
97 1 2 0 695.3682175447917 -860.4516690595644 -1087.4798074081277 -1 0 0
27 1 4 0 718.1697436226078 -863.8570413188728 -1086.9028453385395 -1 0 0
28 1 1 0 716.8994950042447 -867.3187616191683 -1082.0650761956647 -1 0 0
26 1 4 0 721.4968043369172 -859.5428606855277 -1088.7421180837875 -1 0 0
25 1 4 0 724.5024382754212 -854.5431991191142 -1087.161044564776 -1 0 0
99 1 1 0 704.9092947553444 -854.7380602109122 -1088.7291451870492 -1 0 0
7 1 1 0 741.1151403365383 -794.7039272393414 -1078.9163956447344 -1 0 0
6 1 3 0 739.2884085780264 -789.2754012112159 -1076.5346200988301 -1 0 0
4 1 3 0 741.0389898697064 -778.4997742496356 -1079.8905997468382 -1 0 0
2 1 4 0 744.27479585152 -769.130838386251 -1083.9909009699807 -1 0 0
1 1 2 0 746.309817948971 -764.0077451359114 -1086.230758812535 -1 0 0
39 1 4 0 675.0607245625779 -866.2821458493672 -1071.4925755100953 -1 0 0
177 1 1 0 743.8716389659276 -868.8279232191649 -1075.4512742578843 -1 0 0
176 1 2 0 747.7973727200164 -864.8208467655437 -1076.142101749243 -1 0 0
37 1 1 0 675.5443810597181 -856.2700201953345 -1076.9136391722595 -1 0 0
36 1 4 0 680.0685529151092 -852.379949234374 -1078.0894270541867 -1 0 0
35 1 4 0 686.0075064016572 -850.7593396763946 -1079.4875337764106 -1 0 0
38 1 2 0 674.4319701869564 -861.8939618804405 -1075.1141946068728 -1 0 0
95 1 4 0 686.3984446804188 -860.6157492124631 -1079.9099480159812 -1 0 0
96 1 4 0 691.6194210082402 -861.3986819383443 -1082.8380650037025 -1 0 0
94 1 1 0 684.8614730942254 -861.2023993745983 -1074.2427340960521 -1 0 0
32 1 3 0 702.7502475540226 -855.289426101489 -1076.836454904091 -1 0 0
30 1 1 0 709.9328524224003 -863.0536608853727 -1074.5660233575293 -1 0 0
31 1 2 0 705.1818387547459 -859.9673320194937 -1073.8670190316948 -1 0 0
29 1 3 0 713.8491615414979 -866.7784914913443 -1077.324433059136 -1 0 0
102 1 1 0 716.9843307960118 -854.1535932478484 -1076.6465205146571 -1 0 0
103 1 4 0 720.5072785671414 -857.6037274514372 -1073.8511057074709 -1 0 0
104 1 1 0 726.2847679768317 -858.2913561419888 -1072.9924730538066 -1 0 0
105 1 1 0 731.540621321367 -859.0927258215179 -1075.4332255895897 -1 0 0
106 1 2 0 735.4312560379232 -855.6647069860237 -1077.5988068199013 -1 0 0
175 1 2 0 747.6359547232828 -859.370443253653 -1074.8895366554573 -1 0 0
129 1 1 0 777.9582458001956 -860.8382105754023 -1076.551741925382 -1 0 0
130 1 1 0 783.3371723582862 -862.7456768465914 -1075.3205343925458 -1 0 0
131 1 4 0 787.4117814585802 -862.6003274187256 -1071.2614988220944 -1 0 0
128 1 3 0 774.1424129931803 -856.4025359331987 -1078.7525402749918 -1 0 0
34 1 4 0 691.8883550253439 -851.2931608661211 -1079.823484024547 -1 0 0
33 1 1 0 697.641406447918 -852.6115101965344 -1077.9982899169145 -1 0 0
100 1 3 0 709.6404000853754 -853.0896690342116 -1085.0019481711195 -1 0 0
101 1 2 0 711.8833886906638 -853.2131636508261 -1079.4024093761498 -1 0 0
24 1 3 0 724.1960142067212 -849.3348624150171 -1084.1572209343278 -1 0 0
23 1 4 0 728.1710845592696 -846.8097499693528 -1080.4527960116166 -1 0 0
22 1 3 0 729.2469521268993 -843.5317276048654 -1075.5640205580219 -1 0 0
21 1 2 0 732.2645863541095 -839.6330132234843 -1072.6065520912339 -1 0 0
107 1 3 0 738.6884822645003 -850.6804836309237 -1079.7269532040284 -1 0 0
108 1 3 0 739.3107071276976 -845.8232607481892 -1082.6896418434847 -1 0 0
109 1 4 0 740.1945717921265 -839.9936473376686 -1082.8685521422826 -1 0 0
16 1 1 0 758.0258309365553 -834.4486506054265 -1074.848685607327 -1 0 0
15 1 3 0 757.6162664647809 -830.5701773298742 -1078.5397860540338 -1 0 0
127 1 3 0 772.0547196635927 -850.9372069849276 -1078.1970866846332 -1 0 0
126 1 3 0 770.8634877194426 -846.1357435301874 -1075.318131045595 -1 0 0
192 1 1 0 778.1585490634707 -842.6004459792138 -1082.724183854573 -1 0 0
191 1 2 0 783.1858015126196 -844.7526964359993 -1080.5961930940186 -1 0 0
190 1 2 0 785.4949175808741 -848.616744104992 -1077.2172256525428 -1 0 0
193 1 4 0 774.3658242817182 -838.1640793574992 -1083.2325773305738 -1 0 0
189 1 4 0 784.2213361235537 -850.041112947254 -1071.6304728121977 -1 0 0
125 1 3 0 772.2944566293276 -841.7518800526813 -1072.191564532009 -1 0 0
153 1 4 0 797.2073859001881 -846.3713171125817 -1076.2758859886205 -1 0 0
154 1 2 0 795.6182456537053 -842.2381574153135 -1080.3872182314053 -1 0 0
155 1 3 0 792.1869693548447 -837.8085777552975 -1080.4171638518333 -1 0 0
152 1 1 0 797.454144454766 -851.6937650684513 -1075.550251911659 -1 0 0
110 1 3 0 740.1247275227927 -834.2606292371268 -1080.7238024631652 -1 0 0
12 1 1 0 749.583718288672 -818.7000691958181 -1085.1192459992567 -1 0 0
111 1 4 0 743.6304624181918 -830.601904426015 -1078.0454988856836 -1 0 0
112 1 4 0 745.497668860509 -826.4535249445477 -1074.1398357947885 -1 0 0
113 1 4 0 750.1583381296906 -823.6871826806645 -1072.2153595693565 -1 0 0
14 1 2 0 754.925534053728 -828.3895711297309 -1083.2064151320683 -1 0 0
13 1 1 0 753.0727041028963 -823.3467756097858 -1085.848028443947 -1 0 0
195 1 1 0 767.8638917308041 -830.3583478718203 -1079.5887894345542 -1 0 0
194 1 4 0 769.4153761060763 -834.5129665639765 -1083.1918640996323 -1 0 0
196 1 3 0 768.6458642903435 -825.8736142750653 -1076.2593663101725 -1 0 0
114 1 1 0 755.6888267417048 -820.5921261011082 -1072.844357213668 -1 0 0
123 1 1 0 774.4881521110162 -831.7779564241132 -1070.822332744615 -1 0 0
122 1 4 0 778.4163050089176 -827.1750802099612 -1071.8305304170565 -1 0 0
124 1 4 0 775.2497763743124 -837.2653882075962 -1070.0006914970168 -1 0 0
121 1 1 0 780.1208508776342 -824.1593713022173 -1076.4592454161434 -1 0 0
9 1 1 0 739.598355644425 -804.5419284611935 -1083.6683201749872 -1 0 0
11 1 4 0 747.0930913602833 -813.4841841710177 -1086.489052251267 -1 0 0
10 1 2 0 743.1333732730607 -809.328120222233 -1083.9768486219023 -1 0 0
117 1 2 0 765.5215008192133 -816.1301848511177 -1085.9054313936565 -1 0 0
116 1 2 0 760.8316676990496 -816.1037653466013 -1081.7715317946809 -1 0 0
118 1 2 0 771.29738870711 -816.7577674921708 -1085.9156382630094 -1 0 0
115 1 4 0 758.6928969599977 -816.8454858692635 -1076.1907137335031 -1 0 0
119 1 4 0 776.495446349597 -817.5629866756319 -1083.5507472958582 -1 0 0
197 1 4 0 768.8762060755531 -820.3987348873867 -1074.1978440131388 -1 0 0
120 1 2 0 780.3055384176839 -819.9777858449715 -1080.0307453847993 -1 0 0
199 1 4 0 772.1171530227398 -810.8008204766885 -1070.3351291772403 -1 0 0
198 1 1 0 769.7171974723576 -815.8888935369151 -1071.0550550503167 -1 0 0
8 1 4 0 739.4466564125463 -799.0104584280007 -1082.1215452479596 -1 0 0
5 1 2 0 741.5970428818771 -783.7061728195492 -1076.3995254769388 -1 0 0
3 1 1 0 744.5243155791123 -773.9693702696707 -1080.7638577913401 -1 0 0
86 1 4 0 666.5499927993145 -869.8655812044228 -1061.0496303759387 -1 0 0
40 1 1 0 676.2611809988948 -867.852873974961 -1065.6550819616714 -1 0 0
41 1 2 0 677.6250339678278 -865.9061289145918 -1060.6274109150204 -1 0 0
178 1 1 0 742.1358796826482 -874.1633017518307 -1073.2206570971166 -1 0 0
179 1 1 0 742.0623700471499 -875.8076680204131 -1067.4992389390814 -1 0 0
180 1 3 0 746.9870356712447 -875.7234595003953 -1063.799309741509 -1 0 0
181 1 3 0 751.5300352875616 -872.1472320037742 -1065.0819805802842 -1 0 0
182 1 3 0 754.8763505455851 -869.8055030814974 -1069.005536372278 -1 0 0
169 1 4 0 764.549865559106 -867.9211974931441 -1056.7234295596759 -1 0 0
146 1 4 0 794.8961738603472 -873.9911865226458 -1055.8332159471986 -1 0 0
145 1 4 0 794.1627292666091 -879.2222281437646 -1053.704380042776 -1 0 0
147 1 1 0 799.3434037573622 -870.0442601322743 -1056.5407348479987 -1 0 0
88 1 3 0 665.8613798246594 -860.1920026739836 -1065.1981796786654 -1 0 0
87 1 3 0 664.2429311013168 -865.3687623331267 -1063.2428215121581 -1 0 0
89 1 4 0 669.4770269208599 -855.4721489911683 -1064.8193898558986 -1 0 0
91 1 3 0 680.8235544461144 -853.1511749806306 -1064.592285845977 -1 0 0
42 1 4 0 678.1943702714883 -861.0755581921845 -1056.5879059269132 -1 0 0
43 1 3 0 676.1288458849446 -856.3004073301992 -1053.852574944808 -1 0 0
92 1 3 0 685.8914536886933 -855.553551448473 -1065.1544511558973 -1 0 0
93 1 3 0 686.7037952570529 -860.0167686120469 -1068.9995915698998 -1 0 0
173 1 2 0 750.4278110338347 -854.8475412852516 -1065.38691248699 -1 0 0
174 1 1 0 747.1564049462064 -855.835186167331 -1070.2097807467132 -1 0 0
183 1 4 0 758.167388457873 -865.325202634711 -1071.3310369372439 -1 0 0
184 1 1 0 762.1532424309032 -861.607886127112 -1068.7196345894847 -1 0 0
185 1 2 0 767.3414217738341 -860.7074481938756 -1066.902893779087 -1 0 0
172 1 3 0 751.4293735639321 -858.5604954877742 -1060.9186364383518 -1 0 0
171 1 1 0 754.6095368617529 -863.412721444525 -1058.2275489941478 -1 0 0
170 1 2 0 759.9041429080955 -864.5086343004106 -1057.1424058096802 -1 0 0
132 1 1 0 786.3907150860034 -861.4141580817911 -1065.2938285925302 -1 0 0
186 1 2 0 770.9503647391549 -855.9684873661557 -1065.5828802725046 -1 0 0
134 1 4 0 777.9429009947332 -859.6662419816622 -1057.6480868374545 -1 0 0
133 1 3 0 782.6223026318397 -860.9578328681258 -1060.7630177779276 -1 0 0
187 1 4 0 775.9484927408191 -852.9566640385362 -1064.9477666558016 -1 0 0
151 1 3 0 799.3950039693285 -856.6381726516357 -1072.8761017901222 -1 0 0
150 1 4 0 802.7427533841873 -860.247979480245 -1069.3932482037376 -1 0 0
148 1 2 0 802.4773829332156 -867.5281960938756 -1060.3913657323792 -1 0 0
149 1 1 0 803.6064670516353 -863.945820870395 -1065.0190970645897 -1 0 0
90 1 4 0 675.0293221670964 -852.6855289018516 -1064.870567826011 -1 0 0
20 1 1 0 737.211852398647 -837.3033933737439 -1069.8642187096075 -1 0 0
18 1 2 0 748.4012501127777 -836.5116872039074 -1070.3434682471518 -1 0 0
17 1 3 0 754.2907956508453 -837.0789249224396 -1071.4951614605493 -1 0 0
188 1 4 0 781.0581077825841 -851.2888652509631 -1067.3566305155884 -1 0 0
158 1 4 0 787.0426633594951 -837.8243301460012 -1064.511951896126 -1 0 0
157 1 1 0 787.6449042911495 -836.0367888098623 -1069.7598411531471 -1 0 0
156 1 2 0 788.6898806793531 -835.8572667990618 -1075.6687560621856 -1 0 0
159 1 1 0 784.7502916632781 -841.9150474123834 -1060.7825361316875 -1 0 0
19 1 1 0 743.1053631875942 -838.7974251182566 -1070.2429380369665 -1 0 0
200 1 4 0 776.7077280114008 -808.5273654208445 -1067.2080826163053 -1 0 0
53 1 4 0 673.2741504512559 -881.2169126076423 -1041.504571300684 -1 0 0
51 1 4 0 666.6331316182201 -880.9547848865001 -1049.8234372417942 -1 0 0
50 1 4 0 662.1539243050566 -878.0410369329063 -1052.0702954144456 -1 0 0
49 1 2 0 658.1319710021511 -874.0032963146783 -1051.295555470468 -1 0 0
52 1 3 0 669.6473253172733 -883.3753951408513 -1045.2190700355363 -1 0 0
85 1 1 0 668.7802132761213 -873.3882621812604 -1056.9328411435854 -1 0 0
84 1 3 0 671.8951071856882 -872.2180404578312 -1052.066023781168 -1 0 0
83 1 3 0 673.5076987253105 -872.4817380998077 -1046.4001052426888 -1 0 0
82 1 2 0 673.3815076129612 -871.2650061943052 -1040.2222530578238 -1 0 0
138 1 2 0 767.699471742875 -865.7505484271787 -1045.3775857442977 -1 0 0
168 1 2 0 767.8778216948772 -872.6273579458689 -1056.2598158111423 -1 0 0
166 1 3 0 777.4762955383421 -871.835267184668 -1052.8596745107118 -1 0 0
167 1 2 0 771.5853979428468 -873.5527593670136 -1052.1542759235329 -1 0 0
139 1 2 0 769.2758594798379 -870.1928505446177 -1041.719149584403 -1 0 0
140 1 3 0 770.3109358581604 -876.2472969065561 -1040.886907749528 -1 0 0
142 1 2 0 779.1386234966592 -882.7062387894576 -1044.8543089557375 -1 0 0
141 1 4 0 775.080344834684 -879.4134408242604 -1041.9479692164948 -1 0 0
144 1 3 0 789.5232597710096 -882.3360972848989 -1051.0355917623017 -1 0 0
143 1 2 0 783.9305561431408 -881.6286652418253 -1048.5007086679218 -1 0 0
48 1 4 0 656.9820474751263 -868.1947552558352 -1052.42980264798 -1 0 0
47 1 1 0 657.8962144252205 -863.5013161828148 -1056.1799923072936 -1 0 0
46 1 1 0 661.0714284587376 -858.5291207210026 -1056.572088249609 -1 0 0
44 1 2 0 670.6232286198561 -855.64635256854 -1052.6498005096694 -1 0 0
45 1 2 0 665.10630546268 -854.6731767802398 -1054.5656255003887 -1 0 0
135 1 4 0 776.1692716729748 -856.7618678675788 -1053.3991455879543 -1 0 0
137 1 3 0 766.7653405089419 -861.2264603598354 -1048.4642680870134 -1 0 0
136 1 1 0 771.4477643852205 -857.8431509238077 -1049.70217757983 -1 0 0
165 1 4 0 782.6293799114354 -868.8535082835456 -1051.900310572527 -1 0 0
163 1 1 0 788.1372613060394 -859.9135734955237 -1047.3467788204687 -1 0 0
164 1 4 0 784.7882524256169 -864.9796629581858 -1047.8660582591108 -1 0 0
162 1 1 0 786.5336056719815 -854.5556138595374 -1048.4177328575722 -1 0 0
160 1 3 0 783.662330413902 -846.4120409091112 -1056.6605009658272 -1 0 0
161 1 1 0 786.3071525425509 -850.3341485147296 -1052.8555425875118 -1 0 0
79 1 1 0 664.8339769978605 -876.7453620975413 -1029.838525152886 -1 0 0
78 1 1 0 665.7407166010415 -881.3595353674358 -1026.515862065652 -1 0 0
80 1 3 0 666.3484412490027 -871.2809984630007 -1032.0675543072693 -1 0 0
54 1 4 0 675.9686700027086 -879.8400598840275 -1036.5706374158012 -1 0 0
55 1 2 0 677.7509994719743 -877.8824516244293 -1031.1000770588314 -1 0 0
56 1 4 0 677.4100953384666 -872.952059429531 -1028.3368861147337 -1 0 0
81 1 1 0 669.9072640699436 -869.4951907851171 -1035.916187623398 -1 0 0
57 1 4 0 675.8183060115431 -871.8257504186558 -1023.0122766803457 -1 0 0
64 1 4 0 649.5760019587453 -886.182108439163 -1009.0844158566797 -1 0 0
65 1 2 0 650.8118661841389 -891.097766984372 -1005.9171211463923 -1 0 0
75 1 1 0 662.9196437309585 -887.8310156385787 -1011.8843793237178 -1 0 0
74 1 3 0 664.5729254802231 -890.1937004885403 -1006.7717109651576 -1 0 0
77 1 4 0 665.3701682712482 -885.1909098955554 -1022.358813962345 -1 0 0
76 1 2 0 664.3961194652035 -887.7738535004266 -1017.3648992640045 -1 0 0
62 1 2 0 651.1256749282664 -876.1338368401783 -1014.1178407982791 -1 0 0
61 1 4 0 655.1203674571775 -872.6525690717485 -1015.6420341603836 -1 0 0
60 1 1 0 661.0698268347091 -870.9623934736015 -1016.142145007277 -1 0 0
58 1 4 0 671.736512664946 -872.2015593306587 -1019.0009490386478 -1 0 0
59 1 2 0 666.1426634280439 -873.5515076444436 -1017.5643289911447 -1 0 0
67 1 4 0 658.5375740320225 -898.3546065904131 -1000.9871121003459 -1 0 0
66 1 3 0 654.75439325013 -895.5417165972594 -1004.7813146789297 -1 0 0
68 1 1 0 660.1740020046102 -900.5152568399632 -995.7054040737069 -1 0 0
73 1 2 0 665.9230085245575 -889.1070645041668 -1000.6401896679868 -1 0 0
63 1 2 0 650.0298620021704 -880.4795593179771 -1010.1802783968297 -1 0 0
72 1 1 0 664.9663921513554 -887.7269711021049 -995.0897918057267 -1 0 0
71 1 3 0 661.690822165657 -887.6391685320355 -990.1628815097104 -1 0 0
69 1 1 0 659.6739548854528 -897.7561173527937 -990.6546466148616 -1 0 0
70 1 2 0 658.883512022346 -892.6180284144584 -988.6526580928174 -1 0 0

Velocities

98 0.0003348155333218699 0.000770011546308839 0.0008837540532810336
97 0.0008297751201846149 -0.0001792700464832751 -0.002203492725454155
27 -0.0017208549461533165 -0.00038722114912746324 5.377977808415209e-06
28 0.0005542277541081145 -0.0008473752659897033 0.00015617075202948552
26 0.0016556240716991944 -0.0005079263169253582 0.0009277340600719838
25 0.0022347114752718023 -0.0009427947590985577 0.0009897322869565441
99 0.00058377507872367 -0.00014126298653739178 0.00024935913620690155
7 -0.000634806267894123 0.0001705795117130458 0.00014471711387532
6 -0.001162675284155388 0.00024053312226203326 0.0005982152116910409
4 -9.121914928278787e-05 0.0001524027295482604 6.357354394226803e-05
2 0.0002488049681634393 3.530632419037941e-05 0.0008417600369458722
1 -0.00030492066043301836 0.0004455118497950452 0.000309846138544962
39 0.0006835564917925334 -0.00041032961104149536 -0.00179575302541974
177 0.000670772004244358 0.00040451822539481325 0.0002180452775222891
176 0.000619818649159085 0.0008936571080656213 0.0005762659413424481
37 -2.434555021664689e-05 0.0009836824158141935 0.00026615124979326486
36 0.0005839386492719003 -0.00019250247895287738 -0.0004644391609903347
35 0.0014760859728211147 0.0005120781561308722 0.0001359445440764907
38 -0.0001177398627702394 -0.0003252065498004354 -0.0010562785499965957
95 0.0002802112332911821 -0.0004838207622248003 -0.0005446638625775949
96 9.766809651035967e-05 -0.0008526031738794714 -0.00035134333855279886
94 -0.0015646511600191314 0.0014642870944761338 0.002109091067799906
32 6.190250283488857e-05 -0.00036583872804104504 -1.892351662060635e-05
30 0.0007871778728310383 -0.0009722127618546814 0.00207911615808845
31 -0.0011766817441953815 0.0018751709994881875 0.0004162033400485414
29 1.0189351209555233e-05 -0.00037349249148398676 0.0006207514037860376
102 0.002394063889872401 0.0007386152816328785 0.00038002398615580594
103 0.00041230956566017286 -0.0005882732733536181 0.0025707608886320166
104 -0.00027560636644217827 0.0005519719074024311 8.43208308370036e-06
105 -0.0004023208703639168 -0.000746110458891745 -0.0011139803350162787
106 -0.000980650863281685 0.00027771916146103026 -0.0015644146197092736
175 0.0014404260000201825 0.000564228057235465 1.5963419138935303e-05
129 -5.390921609944896e-06 -6.971007135346235e-05 -1.5834509590447288e-05
130 0.00015977090304983247 0.0004480361399829949 0.00012846161205318972
131 -0.0002911675875106748 0.0006562157114125405 -0.0008334164263385928
128 0.0014641558326285266 -0.0009671505111886425 -0.0003166484601975283
34 0.0004183409676065617 -0.0007475723415600893 0.0009598128350998845
33 -0.0002536969593907456 0.0002380137283116591 -0.0017239430882521444
100 -0.0003795696657718046 -0.0008782856689412963 -9.718906857497038e-05
101 -0.0008972847299957446 -0.0017267362993517578 0.0016596828867498396
24 7.838492836723142e-05 0.0008301393704724911 -0.00027462926470337367
23 8.573047990041117e-05 0.0007735906975979987 -0.0004977651056016097
22 -2.0764929142257077e-05 0.000245884152503081 0.00036907501056561366
21 -0.0008833965353934239 -0.000908742978839994 -0.00025836317141241807
107 -0.0007898901583208917 -0.000499289580414494 0.0002915661781564002
108 -0.001336378876245361 -0.0012034723432624715 0.001599462237559825
109 -0.00014397462101847864 0.00018449912997963317 -0.0007016605199487095
16 0.000916801175683388 0.001025158195132797 0.00022415237454604566
15 0.000726697184094233 0.0015507752010217289 -0.0010739705084363011
127 0.0015313629125151065 -0.0010583250598722596 0.0004860126010043465
126 0.0002453203700055109 -0.0003457053466902258 -0.0016210018176083636
192 0.0008293591310467804 0.0008589379379719019 0.00012086888529412624
191 0.002597058286404549 -0.0018627634258360575 -0.0007365031356192827
190 -0.0003101445593120627 -0.00015075765617526937 0.0006887369918976633
193 0.00029686360784252124 -1.4712982268130877e-05 -0.0009156025705050155
189 0.0008407738945044106 -0.0005495532283683337 -0.0006452137279763612
125 0.00013497456434545936 0.0004246048111692243 0.0018556063400392852
153 -0.0006548506764359438 0.0006388354143034293 2.4871512670042086e-05
154 -0.00038700842081154765 0.00039711516222067995 -0.0007226304575264751
155 9.637671256517646e-05 0.001673902657534517 -0.0019847901874430166
152 -0.00031099875611497076 -0.000398728099883341 0.0006803361352337628
110 -8.623107384581119e-05 -0.0003961148108103013 -0.0010525853056166904
12 -0.0014966626810362987 -0.0011326018137205554 0.00015736463883241246
111 -0.0012877624655752745 0.00026872130604608 0.0007436881105203225
112 0.0013097881656710935 -0.0002240082895416615 -0.0008873790515014037
113 -0.001980750208736334 -0.000602368168168923 -8.151975300450577e-05
14 0.0013543317386631771 -0.0003746591075251802 -0.00024360611646487328
13 0.00021832555149082957 0.001842493393642045 0.00029715352358862713
195 -0.0010416583860134803 0.0002729544551657626 -0.00011331865038223666
194 0.00019012596720234168 -0.00018450551787425074 0.0004889678522278993
196 0.00046262826107513154 0.0007056664696934135 0.000795580729774853
114 0.00032258329131879264 0.0014219426819848668 -0.00035562546126153774
123 0.0001459287292357809 0.0009951304943284442 -0.00014496621074299335
122 0.0008484307116087618 -0.0003340415326548109 0.0008213592691907345
124 0.0002669736424945602 -0.0009329050745580924 -0.0011076104843429648
121 -0.0005682862007790215 -0.0004531566324243497 -0.0004916712199119556
9 -0.0005812931415977716 0.0015727139720316324 -0.0003289025159719386
11 5.7308736543212327e-05 -0.0010754893972664964 0.0006620196080337888
10 -8.824297163753223e-05 0.001339584488362365 0.0008034927813559023
117 0.001150592872055689 -0.0016311237255473136 -0.0010845787787606936
116 -0.00078704204164543 0.0011074263013401843 0.0009184679377000922
118 0.001353571880805255 -0.0004495130563426276 0.000836757849989319
115 -0.0002509117647862885 0.0006778886491686691 -0.0012202278488387525
119 -0.0008854319253241123 0.0006516183006274155 0.0017532469601062848
197 0.000621830201449645 1.446734985899261e-05 0.00019483212969037067
120 -0.0003714595357036242 0.00019072152341906894 0.00018580917205351146
199 -4.024889855129381e-06 0.001594503517278651 -8.974056887425675e-05
198 0.00014022266332506153 -0.0007743230739477103 -0.00017672974628071272
8 0.0002744824395271617 0.00018197362400770124 0.000379634784954295
5 0.0015652627042957632 -0.0011534367066504546 0.0017064340941929637
3 -0.0008841679938042233 -0.0016594188989600288 0.0009929873360410679
86 -0.00027757521791332417 0.0016281820173038011 0.00021318641263604708
40 0.0002014420316235591 -0.0007486974568792437 0.0009969111927921428
41 0.0005065628484934273 0.0004508769766268748 -0.0006563426688542644
178 -0.0001755094988728922 0.0018111086821989144 9.574852250953201e-05
179 -3.6920160854700625e-05 0.0014904089514433706 -0.0005015866165778999
180 -0.0009505690039649983 -0.0006081952016023349 0.0013110409270972825
181 0.0010660492320705203 -0.0007592161967035696 -0.0009703274211451794
182 0.0005834900830582636 -0.00025402011212481755 0.0005525456036435303
169 -0.0007490330224975195 -0.0001703756797866998 -0.0006199069191607581
146 -0.00042360409253823045 -0.0010429438769664484 0.0012438514204976398
145 -0.0018128093079088498 0.001162059234773609 0.0006547759565445685
147 -0.00037050492293058955 -0.000210997054080775 0.0008530451755660807
88 -0.0008939317765425073 -0.0011676448399455133 -0.0006530252423712786
87 -0.0009634621694240507 -0.0002128044616775201 -0.0005891750496908058
89 0.001452729690829724 0.0009566911088978601 -0.0006406011288202665
91 -0.0006084868593931099 0.00018603767627616092 -4.4864339381784526e-05
42 -0.0006432467020895755 -0.0002598253435703191 -0.0009129990633251734
43 -0.00042548067863218696 -0.0020807782952487787 -0.00028211828866830284
92 9.963182871059953e-05 0.000620138014083346 0.0018165930130597209
93 -0.0003119090909269141 -0.00026893735795480546 0.001285189647456522
173 0.0007250836723067146 -0.0006973355108309293 0.0006357319990195402
174 -0.0002439871713870775 2.1849376936892852e-05 2.6623391060115353e-05
183 -0.0006313963737242621 -0.00025821844908999376 -0.0009475610202699525
184 -0.0012904378675536658 -8.934840628706112e-05 -0.0016824833758455062
185 -0.0002621528750698104 0.0003676522553873899 0.0018940322520901993
172 0.0009304149188670809 0.0013256597294511617 -0.0006050902524677216
171 0.0003527446521313875 -0.0005819400341464479 -7.75495468239707e-05
170 -0.0011222257781856777 -0.0014458208098800645 0.002164269817368751
132 0.0015394300817254533 0.00043673885187902445 -0.0004260278464339807
186 -0.00025485690144719654 -0.0008873688248320203 -0.00023829329596520638
134 -0.0013268255203514432 0.0003286145504670473 -0.00028674887719389947
133 0.00030371211958299415 -0.0016652411207041544 -0.0007186601357849539
187 -0.0008122571828165383 -8.76980545652497e-05 -0.0008716015108831334
151 0.0001232944340664124 8.917724235921991e-05 0.0008786497755601747
150 -0.0004374044207602304 -0.0024884511469456787 0.0007095625223614798
148 0.00010583193401785027 -0.00010907641602491063 -0.00011759578642644626
149 -0.0012514662997013095 -0.00018375171292224761 -0.0006648780294068664
90 0.0010951068760054444 -0.0009483555770651163 -7.04095901579245e-05
20 -0.00036501188466777853 0.0006589395813538237 -0.0010237047415481177
18 0.0005738991118895385 -0.0009518798917419786 -0.0008497274662643542
17 -0.00020353761092890756 0.00015322946567737438 -0.0004957529024902375
188 0.00025226456853887476 0.00048674196316319266 -0.0008087414271807922
158 -0.0010474286031234403 0.0002767747780742311 1.922856181609538e-05
157 -0.00013834317837268926 -0.0008819641384544089 -0.00019686089761094104
156 0.001246565016653524 -0.00030462459671982484 0.00010998222684972046
159 0.0011669141142235115 -0.0009252094858902888 -2.6137199329470844e-05
19 0.0002955614130004197 -0.0005989344667208547 0.0010489071560335125
200 -0.001206706765460252 -0.001050899721074475 0.0007018854079574797
53 -0.0006536014153794667 0.001582462434456116 0.0005342820163290125
51 -0.0012894080836650598 0.0009025284703947017 0.00032273758976387703
50 -0.0010472708627733292 0.0005561236700666678 0.00029582510435349215
49 -0.0005754528229159784 0.00041638919521367197 0.0005468053962150115
52 0.0002358464266616547 -0.00030078388798425454 -0.0002469157991775416
85 0.0002105322389593981 0.0014305007777416175 -0.0006845543009596978
84 -0.00011706352961812566 -0.0016344203540580907 0.0004857122612576217
83 0.0008085690959872996 0.0005716740747546813 -0.0010160234287599286
82 -0.0007078857016701327 -9.592095927454335e-05 0.001862766067289259
138 -0.00044666410298785554 -0.00040887557650478635 2.7066908941527298e-05
168 0.00043197550528165085 6.380091133553002e-05 -0.00017620703114632828
166 0.00023961190225122038 0.00022699839834501315 0.0001905117154095475
167 -0.0008143887181924338 -5.239857101907012e-05 -0.0016403947310896956
139 -0.0024230067303294186 0.0013789769474472097 0.001538234170579442
140 -0.0002363609910915892 0.0005267081444023686 -0.002474670405387832
142 -0.0007904513849312897 0.0003124411953101105 -0.00031389269620317207
141 0.00038838585291924585 0.000659543796466225 -0.00013960897595996353
144 0.0014018117116449899 -0.0003670189280147474 -0.0011143693708935316
143 0.0009001168513046714 0.0004122955733456678 -0.00028991557375796255
48 -0.001029091125468268 -4.636165073206069e-05 -0.0013457375058570002
47 -0.0010352742341996418 -0.0009245054280778537 -0.0009770722922263458
46 -0.0001410999491292182 -0.0014351991164775885 0.0006478723958171075
44 -0.0007826867364499622 0.001804476295484473 0.0006188629929621794
45 0.0007606912403575704 -0.0003032542053623078 -0.0004951883134874572
135 0.0012928679421460047 0.0004477843991213553 -0.0020348734281671827
137 -0.0004868343787477628 0.0009443875704095015 0.0010231381927339723
136 -0.0012564413784230742 0.0007588167400780046 0.0018151180910716928
165 -0.00048329465950376144 -0.0008907266116553354 0.0013562033560451622
163 3.6378589045493815e-05 0.00025377755807341686 0.00037187873282017213
164 -0.002343230227133774 4.063378776818673e-05 -0.0007766744352031473
162 -0.0003390405766662448 0.00044491894161044303 0.00021022688484050053
160 -0.0009704934347191185 -8.488169190346267e-05 0.0004613826627537458
161 -0.000602028375836754 0.0004910105503974801 -0.0001890576637292899
79 -0.0005631967679213895 0.0003375959541433738 -0.0005882671946082182
78 0.0009917933828191392 -0.0005975761882615766 -0.00021187427681309637
80 0.0016038683284970736 -0.00022117742535782297 -0.0012243627984755746
54 -0.0008931007099849866 0.0005554402155696587 -0.000716829031363102
55 0.00026715749017756305 -0.00032269332115082266 0.0008324220794078336
56 0.0005647871020417634 0.0008538574264684024 1.3961429348653295e-05
81 -0.00023382926791262672 -0.0002573053428243962 -0.0001810084644744239
57 -0.00046402129356545716 -5.398374883323251e-05 -0.0011320805846785648
64 -0.0003535563349408581 0.0005865612921672966 -0.0019646294285074685
65 -0.00039931158095490567 0.0005120073140391028 -0.00012442208233416413
75 0.002771731694655329 0.0009170394867665202 0.0003133163406555064
74 -0.0012519400751699744 0.0012379737950198844 -0.0003358603367203489
77 0.0014677516593988127 -0.0008971470927721532 -0.00010469480650860827
76 -0.0009103793570182705 0.0005401026443516498 -0.0014800771782532442
62 -0.0028364318505768892 0.00017952911088813903 -0.00047006689749552245
61 -0.0009776120328629132 -0.0012247706361684573 -0.0018373224042645166
60 -1.8894978914301703e-05 5.475182007786805e-05 0.0012420629728718512
58 0.00023392005310650946 0.0005596478497357967 0.0004258527000550763
59 -0.0009182372107359649 -0.0001923740092890573 -0.0006349956941314733
67 -8.315532783556181e-05 0.000913022886174164 -0.0007609436102583878
66 0.0014740776635449504 -0.002475535610533769 -0.0005039787750365866
68 -0.0012524824019726486 0.0005851576323067842 -0.0010088754687717985
73 -0.0007789633299663239 -0.0008453662879056632 -0.00044279327176012734
63 0.00016713207536286478 -0.0007580097280370694 5.0257298566201205e-05
72 0.0010021933078870242 -0.0003715325902966025 -0.000774935812837164
71 0.0012943559142926564 -0.001224928045155919 -0.0003375138350447448
69 -0.00013075859181450642 -0.0018790786408135849 0.0018764672335953832
70 -0.0009085318343169389 0.00016831487647727883 0.0019904345699505045

Bonds

1 1 98 99
2 1 97 98
3 1 27 28
4 1 28 29
5 1 26 27
6 1 25 26
7 1 99 100
8 1 7 8
9 1 6 7
10 1 4 5
11 1 2 3
12 1 1 2
13 1 39 40
14 1 177 178
15 1 176 177
16 1 37 38
17 1 36 37
18 1 35 36
19 1 38 39
20 1 95 96
21 1 96 97
22 1 94 95
23 1 32 33
24 1 30 31
25 1 31 32
26 1 29 30
27 1 102 103
28 1 103 104
29 1 104 105
30 1 105 106
31 1 106 107
32 1 175 176
33 1 129 130
34 1 130 131
35 1 131 132
36 1 128 129
37 1 34 35
38 1 33 34
39 1 100 101
40 1 101 102
41 1 24 25
42 1 23 24
43 1 22 23
44 1 21 22
45 1 107 108
46 1 108 109
47 1 109 110
48 1 16 17
49 1 15 16
50 1 127 128
51 1 126 127
52 1 192 193
53 1 191 192
54 1 190 191
55 1 193 194
56 1 189 190
57 1 125 126
58 1 153 154
59 1 154 155
60 1 155 156
61 1 152 153
62 1 110 111
63 1 12 13
64 1 111 112
65 1 112 113