LAMMPS data file via write_data, version 29 Aug 2024, timestep = 408000000, units = real

200 atoms
4 atom types
199 bonds
1 bond types
198 angles
1 angle types

-1000.6 1000.6 xlo xhi
-1000.6 1000.6 ylo yhi
-1800.6 1000.6 zlo zhi

Masses

1 329.2
2 305.2
3 345.2
4 306.2

Bond Coeffs # harmonic

1 7.5 5.9

Angle Coeffs # harmonic

1 5 150

Atoms # full

130 1 4 0 790.612863609187 995.4354061554255 -1100.0682726381535 -1 -1 0
131 1 2 0 786.4335866168956 994.7189497930844 -1104.2085320644087 -1 -1 0
108 1 3 0 823.1024171569833 -946.9828389374411 -1102.8119108424205 -1 0 0
107 1 1 0 824.872706053642 -941.7302777467137 -1104.7492975130444 -1 0 0
106 1 3 0 827.8245120597256 -936.8297914676979 -1102.4271648290407 -1 0 0
137 1 1 0 771.6959296435045 987.5736317717842 -1106.688483737273 -1 -1 0
136 1 2 0 770.6725754882142 988.5184940592972 -1112.723030716314 -1 -1 0
135 1 4 0 773.454802550746 991.120153696757 -1117.375469845098 -1 -1 0
134 1 3 0 776.5323382637488 996.333187853499 -1116.962245955516 -1 -1 0
133 1 3 0 777.8855585172452 997.4344258902646 -1111.6876231686813 -1 -1 0
132 1 1 0 781.9721463233496 996.7434056242644 -1107.545634808106 -1 -1 0
129 1 4 0 796.2249116507394 996.1877119398149 -1100.0084555452238 -1 -1 0
126 1 4 0 803.7048293473032 -993.4831128940216 -1090.7884436408142 -1 0 0
118 1 1 0 789.8148771924596 -954.8235839958726 -1091.9448730714603 -1 0 0
119 1 3 0 791.6406560568141 -960.5245966890454 -1091.854839766197 -1 0 0
12 1 3 0 804.2725937610277 -955.7634339656354 -1096.2556360307312 -1 0 0
110 1 2 0 817.8696260983255 -953.7665763183429 -1095.9347029518756 -1 0 0
11 1 1 0 803.7955319250359 -960.252125985787 -1092.8575587219061 -1 0 0
111 1 3 0 815.908673228432 -953.1358813251695 -1090.3172402020457 -1 0 0
97 1 1 0 858.0493443367899 -956.081122159227 -1088.624697867385 -1 0 0
96 1 2 0 864.0236409491034 -955.5864459719814 -1089.3040220955784 -1 0 0
95 1 4 0 869.3534274415729 -952.9279249185629 -1090.4728286230468 -1 0 0
13 1 3 0 804.7401204388145 -950.1322220559024 -1097.609856526716 -1 0 0
14 1 2 0 807.2780755845926 -944.8415213636994 -1097.451980035587 -1 0 0
15 1 2 0 811.6138634823849 -941.0026457498053 -1097.4241919862764 -1 0 0
16 1 4 0 815.8133998641994 -938.9419679979472 -1094.5846091267956 -1 0 0
109 1 3 0 819.7407328658559 -950.7646402021576 -1100.5914858906872 -1 0 0
17 1 4 0 821.1073980219194 -939.5924139368371 -1091.494684363938 -1 0 0
21 1 3 0 834.810092094593 -947.3862484494491 -1099.4037046516648 -1 0 0
18 1 3 0 824.4446249497636 -944.7195100704964 -1089.9604530381832 -1 0 0
20 1 4 0 831.3489633210556 -948.9262277741128 -1095.3972425130623 -1 0 0
19 1 2 0 828.952691172228 -948.4479516600604 -1090.3691383261787 -1 0 0
105 1 2 0 832.6641167867408 -933.7302215758559 -1101.3480377477738 -1 0 0
104 1 2 0 838.285287840844 -933.9713975672385 -1099.6837508151696 -1 0 0
23 1 4 0 845.6221425650692 -945.0789062915393 -1103.334871624655 -1 0 0
22 1 4 0 839.9568247762219 -946.9568869748454 -1102.403730208959 -1 0 0
24 1 1 0 849.6448552129549 -945.0866326110138 -1099.1647257885863 -1 0 0
103 1 2 0 842.224152156117 -936.0566300224505 -1095.7707575609763 -1 0 0
25 1 1 0 852.7413142251305 -942.5789999889183 -1094.8248843210392 -1 0 0
26 1 3 0 856.2430622698032 -944.062726876598 -1090.1898250462416 -1 0 0
93 1 4 0 877.7355592576372 -945.8203457654201 -1091.2719255437585 -1 0 0
94 1 1 0 874.8274594147001 -951.1206424969523 -1091.4490378855992 -1 0 0
92 1 2 0 879.3637823132003 -940.740805293362 -1088.828249393154 -1 0 0
138 1 2 0 768.8171926109106 987.3844272037917 -1101.6177608278695 -1 -1 0
139 1 1 0 766.9620408500551 982.9340514348703 -1097.8896230716052 -1 -1 0
140 1 2 0 766.9855435882677 981.0627406788906 -1091.9489661194095 -1 -1 0
200 1 1 0 779.6016694137018 977.4591844847283 -1099.4721763947218 -1 -1 0
199 1 2 0 780.6608888498595 980.0087724249147 -1094.2741594006661 -1 -1 0
198 1 4 0 778.271899472713 983.5293638039718 -1089.9362919118569 -1 -1 0
197 1 4 0 778.0492601873041 989.6058737786207 -1090.1394994922073 -1 -1 0
128 1 1 0 800.9530355144448 999.0973393513551 -1098.1340373704165 -1 -1 0
127 1 1 0 803.5451563371603 -997.7796478684119 -1095.133298639719 -1 0 0
147 1 2 0 769.7758357901664 -996.299314360686 -1074.6825565166773 -1 0 0
146 1 3 0 775.0219612837515 -999.2643890307124 -1074.5836924034322 -1 0 0
125 1 4 0 799.8074064604743 -990.0583525535183 -1088.3313856786194 -1 0 0
124 1 4 0 795.2139881159497 -985.9757675043768 -1088.0142103953692 -1 0 0
123 1 1 0 793.3316947655577 -980.7251699531241 -1089.162007367449 -1 0 0
120 1 4 0 794.7470892842484 -965.7879753468955 -1090.3263324803263 -1 0 0
122 1 1 0 791.4731520136838 -976.4563732599531 -1092.0873462609609 -1 0 0
121 1 3 0 791.4432278681081 -970.6644444615841 -1090.881451028654 -1 0 0
3 1 1 0 773.0781474369526 -968.8857776526311 -1071.0961646676044 -1 0 0
5 1 3 0 781.6637285836871 -967.0216229752233 -1077.2795566066702 -1 0 0
4 1 2 0 778.5904313789192 -970.1137961376803 -1073.0959652902236 -1 0 0
9 1 1 0 802.7168480123762 -964.9081700184481 -1083.4133527088738 -1 0 0
117 1 4 0 791.514213844498 -949.0823344422919 -1092.6009982484507 -1 0 0
8 1 2 0 797.9729604836291 -964.509106916727 -1080.2865407311951 -1 0 0
7 1 1 0 792.5992593052222 -966.7445495406544 -1081.0294574455909 -1 0 0
6 1 2 0 786.9025365234072 -965.4331672125605 -1079.8347038522527 -1 0 0
10 1 2 0 804.8773754726562 -964.6126850066385 -1089.0972978432167 -1 0 0
99 1 2 0 847.416366355714 -955.6792538204456 -1087.6576444156944 -1 0 0
98 1 4 0 852.6727726577759 -957.9715006911003 -1086.792814193018 -1 0 0
30 1 4 0 870.7957418804988 -953.5391335540319 -1078.8330081091704 -1 0 0
32 1 4 0 881.3521870055056 -952.3283246753033 -1083.5270281474034 -1 0 0
31 1 1 0 876.5783189698502 -953.9806214403601 -1080.447913314316 -1 0 0
33 1 4 0 887.0019127115985 -952.0784429914182 -1085.6862396310166 -1 0 0
34 1 4 0 891.9535127910812 -949.1122406756498 -1086.4091443644295 -1 0 0
116 1 4 0 796.2166624222715 -945.6520844502128 -1091.0764505130448 -1 0 0
115 1 2 0 801.6691842890576 -943.5103051713967 -1089.7595073627504 -1 0 0
112 1 1 0 815.3339909965306 -950.1020734867275 -1085.8843093538196 -1 0 0
114 1 2 0 806.2716921073363 -943.4068747254888 -1085.9794957994807 -1 0 0
113 1 3 0 811.5359684701081 -946.1389743700736 -1084.5604663855906 -1 0 0
102 1 4 0 844.0950941645565 -940.4584217265696 -1091.9237291487632 -1 0 0
101 1 4 0 842.4271327940423 -945.420067535875 -1090.2398554595168 -1 0 0
100 1 4 0 844.1865555994149 -950.7385999870434 -1087.816073612665 -1 0 0
29 1 3 0 865.7438489065785 -950.6743334949696 -1077.5433137301445 -1 0 0
27 1 2 0 858.700160717913 -945.5056339669743 -1084.889602259601 -1 0 0
28 1 1 0 861.5960587388474 -947.4854285791816 -1079.8903411240133 -1 0 0
91 1 1 0 882.7728902413303 -938.756957317679 -1084.4816273558527 -1 0 0
90 1 1 0 885.0998338485797 -939.7486363622731 -1078.881349233463 -1 0 0
35 1 4 0 896.0547275075768 -945.1692897353175 -1084.1388892786606 -1 0 0
89 1 1 0 886.2788100458362 -943.7715927263124 -1075.2679661590878 -1 0 0
36 1 3 0 897.6607768953776 -942.4596483314771 -1079.433093228552 -1 0 0
37 1 4 0 897.0036975969296 -940.5771107341899 -1074.0186359960142 -1 0 0
83 1 1 0 913.663298199362 -945.361449147832 -1069.367872186854 -1 0 0
141 1 3 0 766.4802262635246 983.1871546548435 -1086.3932123213572 -1 -1 0
142 1 1 0 769.2438386694866 984.7811564207497 -1081.5394273315899 -1 -1 0
193 1 4 0 762.7652047592695 995.9729207242541 -1076.6100492468142 -1 -1 0
194 1 4 0 766.6029184494481 998.3832992181569 -1081.059762703603 -1 -1 0
192 1 3 0 761.5505543837482 994.4527581176277 -1070.7429730362646 -1 -1 0
195 1 2 0 770.1244698283008 996.2513468953387 -1085.4694010646392 -1 -1 0
196 1 1 0 775.4503033526978 993.9594630692644 -1086.7355300115682 -1 -1 0
145 1 4 0 776.8771282337033 996.6949639948576 -1072.8450856795753 -1 -1 0
143 1 2 0 771.8019328531692 988.8828340083369 -1078.4659500056998 -1 -1 0
144 1 3 0 775.0182224202154 990.844109526021 -1073.7571906253588 -1 -1 0
148 1 1 0 765.2385197368378 -994.2498979632064 -1071.2576900709403 -1 0 0
149 1 1 0 760.0374783300273 -993.3446536951449 -1069.2821706025152 -1 0 0
150 1 3 0 755.9424505969512 -995.4701410598924 -1065.7827894629145 -1 0 0
1 1 2 0 762.3915430949746 -971.0345629103674 -1068.9456597103958 -1 0 0
2 1 3 0 767.9772450602368 -971.4930304676827 -1071.2495889370782 -1 0 0
38 1 2 0 898.5315612650261 -936.3409504696343 -1070.1986853342357 -1 0 0
88 1 1 0 889.5779163060331 -947.9469316920918 -1073.1074777258789 -1 0 0
87 1 4 0 893.5018923284839 -950.661358214572 -1070.0080034171667 -1 0 0
86 1 4 0 898.1106275655602 -949.5339414379993 -1065.9289704161163 -1 0 0
84 1 1 0 909.6744789081633 -947.7979689154234 -1065.9646512009624 -1 0 0
85 1 3 0 903.7882873868247 -947.8876994936004 -1064.7624880600845 -1 0 0
40 1 4 0 907.7810464113423 -934.7172017668681 -1063.082826063527 -1 0 0
41 1 2 0 912.4119136415945 -936.8827196123573 -1060.758103094579 -1 0 0
42 1 3 0 915.6331606937246 -941.9282488105222 -1060.000287227368 -1 0 0
82 1 4 0 918.2959068150334 -942.6422471783278 -1071.6648998604592 -1 0 0
81 1 1 0 923.8005442987521 -943.8106667781782 -1070.6760910980302 -1 0 0
80 1 2 0 927.5185325891874 -946.8439497869649 -1066.941882362864 -1 0 0
43 1 2 0 915.9333908551428 -946.8186997029279 -1056.9380543103478 -1 0 0
79 1 1 0 929.5986265703486 -946.5871359976077 -1061.240173994988 -1 0 0
78 1 4 0 928.1819842386825 -944.2474570080584 -1056.076114454243 -1 0 0
44 1 1 0 918.68894108129 -952.0049393926895 -1056.4431128393414 -1 0 0
39 1 3 0 902.4074293514294 -935.2103865017036 -1065.9985506610667 -1 0 0
154 1 3 0 751.222244483091 985.2102774545614 -1065.1563565735962 -1 -1 0
155 1 1 0 754.6178700523125 982.839099610071 -1060.793061993128 -1 -1 0
152 1 3 0 749.3199024386446 996.372844005444 -1067.3882350448098 -1 -1 0
151 1 3 0 751.6890852894204 -999.7016129047892 -1066.789685253692 -1 0 0
153 1 3 0 749.3544516819463 990.6605284345654 -1066.467809745769 -1 -1 0
189 1 2 0 757.003287907581 992.36597766915 -1054.7137482462854 -1 -1 0
191 1 2 0 762.5384624761401 993.7524940123486 -1064.8796739809786 -1 -1 0
190 1 2 0 760.3500882931304 993.8750492456672 -1059.3076060601147 -1 -1 0
68 1 2 0 932.7738307804215 -970.476782074679 -1041.165191675586 -1 0 0
71 1 3 0 918.5889328303573 -962.607247772851 -1038.4870661469872 -1 0 0
69 1 2 0 927.091244052257 -968.840277065824 -1041.3181167682335 -1 0 0
70 1 3 0 923.4851039898383 -965.7685895476785 -1038.219286077916 -1 0 0
45 1 1 0 922.9692097462352 -953.7181278027765 -1052.782627268678 -1 0 0
46 1 3 0 926.020683781196 -950.4595309294876 -1048.6581643154955 -1 0 0
47 1 4 0 928.1619398431602 -950.5102377335984 -1042.7928533081829 -1 0 0
75 1 1 0 921.9386328889638 -942.1000638715611 -1041.739805755797 -1 0 0
76 1 2 0 925.4677892579235 -939.2719077697805 -1046.1100576365595 -1 0 0
77 1 4 0 926.6201075797637 -940.0927265256751 -1051.9469832121447 -1 0 0
74 1 1 0 917.5254457965341 -945.8229263777779 -1040.7990062314561 -1 0 0
181 1 4 0 757.6247723340841 967.0900572158326 -1044.9131711742764 -1 -1 0
180 1 3 0 763.1915281556492 969.0329655897929 -1044.889368852166 -1 -1 0
179 1 4 0 768.5575414937942 969.8708743470064 -1043.3930870741528 -1 -1 0
182 1 2 0 752.3270626149746 967.801618789471 -1042.874405557047 -1 -1 0
183 1 3 0 750.0078906296991 970.793237392425 -1038.112651641861 -1 -1 0
184 1 2 0 750.0799191239187 976.0063998961706 -1035.229567799957 -1 -1 0
178 1 2 0 771.2087887001866 970.3862370242604 -1038.1017680921054 -1 -1 0
158 1 4 0 761.7360183667917 980.6536723025432 -1045.395481796445 -1 -1 0
185 1 3 0 750.9595044889448 981.7141156596666 -1036.4075296830122 -1 -1 0
156 1 1 0 755.7922166086113 981.3909758357971 -1055.0481722895024 -1 -1 0
157 1 4 0 760.0848858283721 981.0374183322849 -1051.0527853515175 -1 -1 0
159 1 3 0 762.0918701644148 980.3492603975735 -1039.4905667607518 -1 -1 0
188 1 4 0 753.8750470781657 990.100811122228 -1050.0264194520907 -1 -1 0
186 1 1 0 751.3687229403436 987.1342176819376 -1038.9461399694853 -1 -1 0
187 1 1 0 751.5692126006502 989.3844160721011 -1044.6831269116358 -1 -1 0
52 1 4 0 926.6117676213643 -972.1778768535023 -1025.9505299009884 -1 0 0
53 1 4 0 929.3348414371295 -976.7820693224049 -1023.8128251322112 -1 0 0
51 1 3 0 925.4546591028696 -966.8560793993548 -1028.4173551427248 -1 0 0
67 1 4 0 935.1810243476272 -973.5244432725743 -1036.6627863638503 -1 0 0
72 1 1 0 916.4793351195533 -957.411695982988 -1039.5249563884147 -1 0 0
48 1 2 0 926.9519755091111 -952.4091772349599 -1037.3130865673818 -1 0 0
49 1 3 0 926.3377984719232 -956.6643074234586 -1033.4826604836028 -1 0 0
50 1 2 0 925.1148723746095 -961.182628507098 -1029.665806507129 -1 0 0
66 1 4 0 934.9891286773403 -974.201811260577 -1031.0984444128896 -1 0 0
65 1 2 0 937.9383424472745 -972.6386957361718 -1026.57384162 -1 0 0
64 1 3 0 939.6876490247433 -972.0034681580773 -1021.0634317450409 -1 0 0
73 1 2 0 916.0292313086209 -951.4275641167244 -1039.2165259479702 -1 0 0
166 1 1 0 741.4106388739254 954.2046678115362 -1041.700264794188 -1 -1 0
165 1 4 0 746.2969933910002 958.2439177804546 -1041.475284885415 -1 -1 0
167 1 4 0 736.894695474289 955.0988864428352 -1038.1039068359837 -1 -1 0
168 1 1 0 737.6545899999568 958.5200251971972 -1033.3108998714538 -1 -1 0
169 1 3 0 741.4134718605765 962.0709104108352 -1030.1263473107576 -1 -1 0
170 1 3 0 743.6541793625013 965.5965005294715 -1025.9765079833387 -1 -1 0
164 1 2 0 751.2782417102501 959.765444383189 -1037.6051101356009 -1 -1 0
163 1 2 0 754.3834270277814 962.8491216153822 -1033.6299137954309 -1 -1 0
160 1 2 0 761.4673688823232 977.5683104734875 -1034.312689670116 -1 -1 0
161 1 3 0 758.6915904191416 972.5903803167715 -1031.8313423033624 -1 -1 0
162 1 2 0 758.6433249324942 966.6440472691031 -1031.7108969553594 -1 -1 0
175 1 3 0 767.8620164982401 973.1075672203915 -1022.5274186638393 -1 -1 0
177 1 4 0 772.2172946224472 972.1662066195108 -1032.5842840265577 -1 -1 0
176 1 1 0 772.3347599363481 973.6667716154611 -1026.681586202568 -1 -1 0
58 1 4 0 923.1231854978249 -982.048292390604 -1007.9247295201011 -1 0 0
57 1 4 0 927.8033693720173 -984.9681081597716 -1009.655944329827 -1 0 0
55 1 2 0 934.9731421631965 -982.010154920604 -1015.7785965174229 -1 0 0
56 1 2 0 933.1654357319638 -985.8279856844532 -1011.7843158846836 -1 0 0
54 1 3 0 932.1248062918752 -977.8110478165239 -1018.7442053098891 -1 0 0
59 1 2 0 921.1309230578958 -977.3884540649963 -1010.6606016861647 -1 0 0
61 1 1 0 926.7796831288213 -968.8748736219571 -1013.0018009750256 -1 0 0
60 1 1 0 922.1590354577477 -972.0299856396779 -1012.8054419240657 -1 0 0
62 1 3 0 932.9097575047555 -969.4899341270002 -1013.1687601134597 -1 0 0
63 1 1 0 938.5379200181337 -969.9247962585877 -1015.7975966443443 -1 0 0
171 1 3 0 748.2429701395981 967.5838974397481 -1022.724837449059 -1 -1 0
172 1 1 0 753.3569381823147 967.6962863310926 -1020.0102240133887 -1 -1 0
173 1 2 0 758.1199003052785 970.0861096064876 -1018.1112403469109 -1 -1 0
174 1 2 0 763.9218895643796 970.257259130663 -1019.1738325833711 -1 -1 0

Velocities

130 0.0010356413216684646 0.0007044141285034014 0.0013073522012091443
131 0.00010104395990056313 -0.0006784401515164462 0.000686977934497539
108 0.0002050772570252364 -0.0009132826005525433 -0.0006849422401841238
107 -0.00043995193981925015 5.4925942599776634e-05 -0.00011922904919238533
106 -0.0005641113299275996 0.0008396194247425892 -0.0011823047393498963
137 -0.0007103823287237434 -8.310068909997359e-05 -0.00035693899435245975
136 0.002545632835025893 0.0009693585092577025 0.0003282155625495821
135 0.001115803522742564 0.0005328523284643825 0.0002380939695769922
134 -0.0004610031667078431 -0.00031860270232272723 -0.0011597265154826512
133 -0.001439857199851783 0.00022346791903030117 0.0003968494370990546
132 0.0002632885865536252 -0.000984134910300463 0.0011581474218560436
129 -5.318506342930101e-05 -0.0008434072237425773 -0.0009245355574524995
126 8.186935000258673e-05 0.0011056924579975198 -0.0011689670063031953
118 0.0006983738977087971 -0.0003438133403231411 0.0012422739135632861
119 9.553994318175657e-05 0.000721249313821944 -0.0015665941023966985
12 6.081040248468574e-05 0.0011768357538234461 -0.0014848835027559085
110 0.00017126415576989342 -0.0009309452879271204 -0.0005269816644880045
11 -1.4455651598849526e-05 -0.0005176434063412449 0.0011351645918449393
111 -0.0011313299215837175 -0.0011175673967141824 -1.3713327309926276e-05
97 -0.00036509756004535047 0.000217205490083254 0.0008948785432305364
96 -0.0006027935448431963 -0.0003843340166067689 0.0008519504096206484
95 0.0018829521994683 0.0013684874037574973 -0.00016312741255612297
13 -0.001278833050845978 0.0007162910557233211 0.00016500053355633946
14 0.0020283456702783736 0.0004064923837216833 -0.0006534226623814581
15 -0.0003074163670667698 -0.0021310100591050082 0.0006204646049700607
16 0.0004801759310883806 0.0003901258757140196 8.576503585109425e-05
109 0.00038229653077262725 -0.00011705553766101952 -0.0003531847142314984
17 -1.0786227988678834e-05 -0.0005720586387701984 0.0008345841132855391
21 -0.0007677037150148889 3.059180833282566e-05 -0.0007001229933977012
18 -0.0013419998476107576 -0.0011533152391205062 0.0009513833894426876
20 -0.0007106197130784781 0.0015033047904919666 0.0014282150690538681
19 0.0018221370312446648 -0.0006623674782210001 0.0016265958081942667
105 0.0005945202130486266 0.00017740759024177438 -0.00018061971902088648
104 0.0018581890608919478 -0.00024611349999430877 -5.176084470788268e-05
23 -0.001542289128090884 -0.0009400205098033493 0.0007546354835139934
22 0.0011178552177651356 -9.713117140596833e-05 -0.0003985626828179219
24 0.0007000995119189402 0.0017481771531877874 -0.001614775390761978
103 -0.0007016437626374896 0.0007755631079383653 -4.677207595215585e-05
25 -0.0005350272454198861 -0.0006600453335212909 0.0013161772292559482
26 0.0007413525874617504 -0.0002015500238310105 -1.7529700309207296e-05
93 -0.001150162395807038 0.0008270534776264436 -0.002383391020898889
94 0.0003472511666317038 -0.0004780579081126337 0.000316642677458534
92 -0.0006663453174168362 -8.355271354998474e-05 0.0012023992709276645
138 0.0004642335333547921 0.0023497566562898815 0.0007790549824582615
139 -0.0008483018911478748 -0.0003860955118727815 -0.0002197521110541617
140 -0.0005005735496498924 0.0007999570159686842 0.0014217468124417204
200 -0.0010968101466527491 -0.0004987500060332412 0.0001535471806027636
199 0.0007452968464678119 -0.001041534111622224 0.0007476656170777696
198 0.001074809217925329 0.0011646613136820306 -0.0003375231805246013
197 0.0009388966977413167 0.00018311400820752443 2.3173672894524002e-05
128 0.001428151777980778 0.0012293101148858094 0.00030616799030944034
127 -0.001310117239561193 -0.0015253368172133796 -2.403577650567004e-05
147 0.001187148513370002 -0.0003795871907039185 0.0010237949683404007
146 -0.00028295701803528395 0.0007245662036873409 -7.32338090590757e-05
125 0.001190705732628773 -0.00044285383353562236 0.0001989503710151281
124 -0.0008624203295045958 0.0013440756486390072 -0.00039555226170415777
123 0.0013160687782748416 -0.0009494720732416182 -0.00096148821497853
120 0.00045454672756024817 0.000928383200573027 -0.0002671389258631129
122 0.0003720858896447167 0.0015800545907388476 -0.00039470893866308684
121 0.00041535678166011703 0.0010695086268515386 0.00011763402547821466
3 -0.0010315435404143016 -0.000982538497119313 -0.0017642572366369316
5 -0.0014088819151522882 -0.0008633663043795485 0.0003929291783078462
4 -0.0013409632591952008 -0.0009656569363082184 0.00027093717452460816
9 0.0003089161112241035 0.0007838343389285412 -0.0001062335813777502
117 -0.0012150496420830163 -0.00028331966222320057 -0.0012363721169292828
8 -0.0004109973410141185 0.000290409289828098 -0.001554249338628445
7 0.0007048473290669496 7.456857818037431e-05 -0.0002299413452083053
6 0.0011746537618113689 -0.0006612651154650695 0.0003294734548543285
10 -0.00023983058361424635 -0.00046729931888731967 -0.0018486840912448857
99 -0.0002543951377129363 0.0008181900421204099 -0.0018682306767569636
98 -0.0005621091519566388 -0.0003414035641182594 -0.0009123682293453393
30 0.0008558472790831785 5.894619164938765e-05 0.0010272060610100305
32 0.000274384689510373 -0.002541513360028435 0.00022874198700481146
31 0.0009509656492365102 -0.0007931840036239229 -0.00034248973353425755
33 -0.001210023618835868 -0.0004902435180002625 -0.0002974345252514999
34 -0.001728113178483495 0.00041165753606131047 0.001192667113595974
116 -0.0004409025067084053 0.0008484520585171958 -0.0006652335890085487
115 0.0006345710599449774 0.0008377000982157836 0.0006118462436149252
112 -0.0007444720840968083 -0.00012250022244899737 8.211946533220199e-05
114 0.0009444811322125612 -0.00031039326144435245 9.529912054616301e-05
113 0.00011467203182722189 0.0004127503993344731 0.0006705292684033337
102 -5.5905184960135276e-05 -0.0002903564628031425 -7.254682763370409e-05
101 0.00021265502755122453 -0.0011505318806432734 6.478551659163143e-05
100 0.0004346074287411524 -0.001277102476178091 -0.00040938381384239856
29 -4.7774119924805994e-05 0.0006301240571340861 -0.00034988739056798833
27 0.0009858812798977858 0.00011734416612451453 0.0004950358871210487
28 -0.0008085554013231014 0.0011376378289415143 0.00036047756232869115
91 -0.00010695042611030394 -0.0003956958534684769 0.0016480215679727911
90 0.0003660625116791526 0.0005835544093501542 -9.646079711862879e-05
35 0.0008473696819081774 3.491143471005664e-05 -0.0003198871483507376
89 -0.0001399888380249305 0.0007845827935011835 0.001001268374000956
36 -0.000805155800097599 -0.000317067110572585 0.0005740735499083735
37 0.00035596289679027375 0.0012717524852010364 -0.0013801010002791893
83 -0.00021007312168100557 0.0003208404693697652 -0.0005110142874223846
141 -0.0004231742553543275 0.0010167319501409174 0.00042980735789491123
142 0.0034136193174747883 -0.0009944010199041348 0.0008652353095292189
193 -0.0004858341294201372 -0.0013592781121170812 -1.1193066837006193e-05
194 -0.0008214023440324589 -0.0020748799455879503 -9.756939855276954e-05
192 -0.00021413363393539686 -0.0005937706934986425 0.00044962466365696627
195 -0.0011143286089400947 0.0008933462098138416 -0.0011561135451301097
196 -0.0003984048874234894 0.0002934959610125864 -0.0005298690210285727
145 0.00032946229906245604 -4.556579568370939e-05 -0.0002502536247891303
143 -0.00017359421838800232 -0.0007486682431205238 -0.001228824368652022
144 -0.0008813153357902136 0.0006344252607102982 -0.0009998999680626143
148 0.001223240064686461 0.00013048144096946548 0.0011664100946798758
149 0.001083117472211287 0.00059622815231623 -0.0004385463166922288
150 -2.7972809542550273e-05 -0.0008383771533031312 0.0007724413065097311
1 -0.0006174508570130855 -0.0011666506598962164 0.00017145740737959744
2 0.001171241199126223 0.0009948886789187487 0.0010616614082186676
38 0.002139624925230658 0.0009664725361737409 -0.00019540390033453154
88 -3.085452850601403e-06 0.0014319015989111726 -0.0012556882761780425
87 -0.0008988119759704709 0.0010301895360385921 0.0002470034674326671
86 0.0002876196166151546 -0.0006128998293949529 -7.206110024976919e-05
84 0.0007134524611876303 -0.0012386336457133591 0.0009220756553196687
85 -0.0017639579370843507 -0.000832699445102383 0.0011328078637030334
40 -0.0010625589595479087 -0.0009769927348602621 0.0011413867095718927
41 2.248252624467618e-05 -0.001169799837538158 0.0005398029306223193
42 -0.0007460013965922914 -0.0008660227820052319 -0.0009972880029607595
82 -0.0008198666745443405 0.0006763529304462801 -0.00042026702664783714
81 -0.0003518757491028001 0.001254307563409687 0.00016186082708270603
80 -0.00011446388782647964 0.000248685729474477 0.0003246472450396379
43 -0.0006970235329942118 -0.00085219041237308 -0.0006398808562998127
79 0.0005215390833277728 -0.0011014460987202174 -0.0001997474026610787
78 -0.00040599315799420686 0.0012176875461125624 -0.0011179523609641403
44 -0.0006806651444309817 -3.333882068688316e-05 0.0005187876770620106
39 0.0012525687193766328 -0.00030911125384548997 0.00045111512615493034
154 -0.000435608119225649 0.0008509260971733983 0.00037063635060632314
155 0.00035689846295275575 -0.0004485808050768455 -0.00023541033135472697
152 -0.0014084587361450787 0.0005895908155950034 -0.0005235307697293558
151 0.0005792801361916536 -0.00020958006077069654 -0.000253279262221697
153 -0.00026777649892827896 0.00025438206697174726 0.0009338276482607786
189 0.00033496660552183793 0.0008628962362734157 0.0016932762570837435
191 -0.00031393477095006955 -0.00234675154024909 -0.0002150332137063538
190 2.9844288132332373e-05 3.466456951977993e-06 0.002332012374930683
68 0.0003074549994900228 -0.0005751762806421293 0.00021931436681270065
71 -0.0006711839794062181 8.825911126181809e-05 -0.001037332576326234
69 -8.516114305341413e-05 -0.0013194387261473161 -0.001136551496568321
70 -0.001261528900105658 -0.0015165367409685276 -0.0004340549765725725
45 -4.206578959021577e-05 -0.00020738693796244656 -0.000415746916606428
46 -0.0019185058695581623 -0.00040694398479960037 0.0013320956032495325
47 -0.00013065231792527994 0.0003633184844780212 0.00042100408991974125
75 -0.001753321561954172 -0.00015963144498305366 0.0001480219221901115
76 0.0004376321319891342 0.0002906301093300407 -6.70441625695772e-06
77 -0.0007143972549370349 -0.0005762189226412262 -0.0006681666926946296
74 0.001453750826465332 -0.0014560359069076562 0.0008082495929390291
181 -0.0007409718425319083 -0.0006738485168269066 -0.0004266643881117339
180 0.00039173830235731744 -0.0003143019850860491 -0.0010736814971793688
179 -0.0019003312520021148 0.000722770288030538 -0.0008660006796443732
182 -0.0005965401314875516 -0.0003272522498868715 7.761017766135431e-05
183 0.0003826608423143222 0.0006746909354502555 -0.0003703945805943207
184 0.000119499730948874 -0.00017189125575465565 -0.0004238364866014789
178 -0.0008253060368912006 0.0005238828868560819 0.0014812503803708031
158 -0.000983614689324416 -0.0003663901831028526 -0.0008038217128324923
185 0.00020025341800686218 -0.0010117458745558714 -0.00042727655637426364
156 0.0007515580739152393 0.0015764531836967644 0.0008633692792256914
157 -0.0016912458251557105 0.0008214497886265862 -0.00117866192506887
159 -0.0018491482337984655 0.0001412494387182426 0.0009178794775971653
188 -0.000323565729070055 0.0006037293784633049 -0.00033845622332635204
186 -0.0013476983977442438 0.0009580785169543068 0.0008022524453400731
187 -0.0001382619341673325 0.0006887989895473813 0.0011575329997719707
52 0.00028626852257037315 -0.0001443034955404428 0.0011615820510402419
53 -0.0002147394857555996 5.2513451327992256e-05 9.253354926034221e-05
51 -0.0011559957519572549 -0.00021901253456936928 -0.0009155166818937049
67 -0.0001836165333287129 0.0009163889024394361 -0.0009024115421267835
72 0.00047336094828134893 -0.0008165644604673354 -0.0004147028128713488
48 -0.0003608647944817466 -0.0011515063620109415 0.00043003011681285743
49 -0.0003744530029550488 0.00045949237856863476 -0.00022666368837190976
50 0.0009562860042917684 0.0002209127993879041 0.001163352764264631
66 0.0001476482895209723 -0.0013053422512693715 0.0024476396659773325
65 0.0008267236949085613 0.001481537863043342 0.0014104899669228534
64 0.001145156581881661 -0.0015833375566219928 0.0011429826254286096
73 0.0011411985953286427 0.0003310073706607307 -0.0011837897376349839
166 -9.455212232525789e-05 -0.0009328709575327717 -0.001058770184471579
165 -0.0008294807178512627 -0.0004731483418925761 0.0005172962635357955
167 0.0010929850078942001 -4.388980210342868e-06 0.0006226180053057387
168 0.00091262303231668 0.0003655144718890522 0.0002852933028393608
169 0.0001867330322194436 0.00035492269956937343 -0.0014216081069198686
170 -0.001885356083830534 0.0006680858859490434 -0.00035176659532185506
164 -0.00032081990643303444 -0.0016351949850246044 -0.0005427253929465716
163 0.001692261155001016 0.00034833327180226466 -0.0007128399165512872
160 -0.0004900664302753418 -0.0017685876161222926 -0.0006417423544270945
161 0.0009497188856818177 0.0015473923002283121 -0.0016307668671274858
162 0.0011727290201635182 0.000585788123758657 0.0001709602086916504
175 0.0005114129293372882 9.574415645495415e-05 -0.0003784583281289906
177 -0.0006780525312607128 0.00013251868672013335 0.00034079660756860305
176 0.0007821632029170901 0.0012276393677768975 0.0002575300150696933
58 -0.0003108271467466563 0.0009726578079726949 -7.610054854512957e-05
57 -0.0015564411900220894 0.00013233209591183108 0.0005311679102485167
55 -0.0006884310508184673 0.0015683453838141177 -0.0012740636101360283
56 0.0011634711611355575 2.702802745090957e-05 -0.00045089923386321216
54 -0.0020498267289034886 -0.0010094693284179307 -0.0005991399275131751
59 -0.00010229512695804244 0.00012259485303066798 0.0005267117669733318
61 0.0013981643740681837 0.0004692323057326192 0.00018670984581647726
60 0.00047736624389949723 0.0015220821912947792 0.00012903257662871587
62 0.00027579569302553384 -0.000994343277795625 -0.0009784769814839786
63 -0.0012305575361441074 0.0006876954789269062 -0.000530936117844632
171 -0.0012305386072272593 -0.0002951394137407563 0.00030805508378744617
172 0.0013755546071642754 -0.0002925305916563292 -0.0002408551184816627
173 0.00018828210893134413 -6.452227392517477e-05 -0.0010094891181050458
174 9.603221909754954e-05 -0.0009844536776881239 0.00018141529975810927

Bonds

1 1 130 131
2 1 131 132
3 1 108 109
4 1 107 108
5 1 106 107
6 1 137 138
7 1 136 137
8 1 135 136
9 1 134 135
10 1 133 134
11 1 132 133
12 1 129 130
13 1 126 127
14 1 118 119
15 1 119 120
16 1 12 13
17 1 110 111
18 1 11 12
19 1 111 112
20 1 97 98
21 1 96 97
22 1 95 96
23 1 13 14
24 1 14 15
25 1 15 16
26 1 16 17
27 1 109 110
28 1 17 18
29 1 21 22
30 1 18 19
31 1 20 21
32 1 19 20
33 1 105 106
34 1 104 105
35 1 23 24
36 1 22 23
37 1 24 25
38 1 103 104
39 1 25 26
40 1 26 27
41 1 93 94
42 1 94 95
43 1 92 93
44 1 138 139
45 1 139 140
46 1 140 141
47 1 199 200
48 1 198 199
49 1 197 198
50 1 128 129
51 1 127 128
52 1 147 148
53 1 146 147
54 1 125 126
55 1 124 125
56 1 123 124
57 1 120 121
58 1 122 123
59 1 121 122
60 1 3 4
61 1 5 6
62 1 4 5
63 1 9 10
64 1 117 118
65 1 8 9
66 1 7 8
67 1 6 7
68 1 10 11