LAMMPS data file via write_data, version 29 Aug 2024, timestep = 408000000, units = real

100 atoms
4 atom types
99 bonds
1 bond types
98 angles
1 angle types

-500.6 500.6 xlo xhi
-500.6 500.6 ylo yhi
-500.6 500.6 zlo zhi

Masses

1 329.2
2 305.2
3 345.2
4 306.2

Bond Coeffs # harmonic

1 7.5 5.9

Angle Coeffs # harmonic

1 5 150

Atoms # full

20 1 3 0 124.01804215682849 324.6727274477567 -185.28760621104203 0 -1 -3
19 1 4 0 127.28952949961491 328.96849322877307 -188.35260858360428 0 -1 -3
18 1 3 0 126.21364078133207 334.6485267144598 -190.20623482105992 0 -1 -3
33 1 3 0 134.87823228316017 332.73729065183716 -182.65803186515927 0 -1 -3
17 1 2 0 125.84764590824923 340.52011231178545 -189.5276446021765 0 -1 -3
16 1 2 0 125.11918146085421 344.8602342076123 -185.59741071306718 0 -1 -3
36 1 4 0 137.7953707583489 348.1435052949598 -186.72124317784986 0 -1 -3
35 1 3 0 138.68180760993425 342.41118330568526 -186.55587655127533 0 -1 -3
34 1 3 0 135.98230985650696 336.9536354534182 -186.64527657543732 0 -1 -3
37 1 4 0 137.53408466370186 353.14101067865136 -184.0374180199323 0 -1 -3
24 1 1 0 109.6930589637774 314.3324915670033 -172.89359745982784 0 -1 -3
23 1 4 0 114.48058469157786 314.8434548528692 -176.68934611218282 0 -1 -3
25 1 1 0 106.26063742376186 318.09365080171705 -169.451259619109 0 -1 -3
21 1 3 0 122.04827404937926 322.1718839552109 -180.42961728878603 0 -1 -3
22 1 4 0 119.75775334817203 317.28265215421874 -178.29203902871598 0 -1 -3
30 1 1 0 123.93528932497352 328.8896128965801 -169.21463002644637 0 -1 -3
31 1 2 0 128.6090532633732 329.19000483609517 -172.84031214447512 0 -1 -3
29 1 4 0 121.38273076138134 324.6775675415066 -166.17903213433718 0 -1 -3
32 1 2 0 131.5436881960375 330.96040643014186 -177.99281907883574 0 -1 -3
15 1 2 0 127.29769908580641 346.39030843342647 -180.5431984967046 0 -1 -3
14 1 2 0 130.88412275761243 344.45800647282005 -176.3632693661501 0 -1 -3
10 1 3 0 150.6498041833161 348.7776535383703 -180.87717216483355 0 -1 -3
11 1 4 0 147.40132571277627 344.1073607589951 -179.04566719446117 0 -1 -3
13 1 3 0 136.7028622596831 343.5279388588107 -174.563041573863 0 -1 -3
12 1 2 0 142.49250186305386 342.39606867319225 -175.69160959159456 0 -1 -3
41 1 1 0 144.69643024548486 349.70323350286606 -166.91962068467598 0 -1 -3
42 1 1 0 148.03990720771193 345.12842369222676 -167.113509593428 0 -1 -3
45 1 1 0 162.50454954497079 346.9272077498678 -174.7015901827215 0 -1 -3
43 1 1 0 153.49726743111182 342.69867611727784 -168.75184772818446 0 -1 -3
44 1 1 0 159.43487281131695 344.43449936330984 -170.22871208964824 0 -1 -3
38 1 4 0 138.5143015613786 354.42674012988124 -178.78103834127413 0 -1 -3
39 1 4 0 141.67931316366878 356.7853143857614 -174.62653657622278 0 -1 -3
40 1 3 0 141.70437954720313 354.1334438164454 -169.0886361017808 0 -1 -3
46 1 3 0 163.97884762289488 351.5257472820721 -178.21254486244243 0 -1 -3
9 1 4 0 152.55326883753216 354.20591661296373 -180.3976229715471 0 -1 -3
47 1 4 0 163.0707265494682 357.1752006525138 -179.0005772602061 0 -1 -3
8 1 2 0 152.18627645756206 358.0109497118825 -175.87598007685116 0 -1 -3
7 1 1 0 152.47279053814293 358.81078364224874 -170.23297855841955 0 -1 -3
48 1 4 0 166.32045821576432 362.4850032101246 -179.7438131310249 0 -1 -3
50 1 2 0 175.91980979279307 362.67270276691085 -173.97164929290068 0 -1 -3
49 1 1 0 172.02416055585158 363.2375894294436 -178.55335620448486 0 -1 -3
51 1 2 0 178.20059205397607 360.7800330272158 -168.7825567314824 0 -1 -3
96 1 3 0 178.55405520144632 375.83015645629666 -175.339183618209 0 -1 -3
95 1 4 0 172.94478357059432 377.405580468337 -174.91046638841047 0 -1 -3
97 1 1 0 183.404707568108 374.8112990928527 -171.93698013777265 0 -1 -3
98 1 2 0 187.09932388535714 376.2857053210106 -167.70691772148402 0 -1 -3
59 1 3 0 165.16321810265347 389.10340703746726 -170.60407484774746 0 -1 -3
58 1 3 0 171.37505038163442 387.90477179331094 -170.64935520653918 0 -1 -3
28 1 2 0 116.66394299234882 324.84640954036666 -162.5303642537995 0 -1 -3
27 1 3 0 110.66863174663244 324.5213774111557 -161.5010921324935 0 -1 -3
26 1 4 0 106.67632636280256 321.41063052964114 -164.5887165201993 0 -1 -3
4 1 4 0 158.35712485825292 348.30609326093014 -158.1550025089254 0 -1 -3
2 1 3 0 162.74296349279282 338.44222884051084 -155.44959735819614 0 -1 -3
3 1 2 0 160.43167041220153 342.99762856173794 -158.1121947871672 0 -1 -3
5 1 4 0 157.49326443682799 353.1843066068133 -161.25338133484703 0 -1 -3
6 1 2 0 154.39212085010206 356.5333400526332 -164.7370583342772 0 -1 -3
52 1 4 0 178.93021615744166 363.5748107642596 -163.70001249384904 0 -1 -3
61 1 4 0 157.82643121230623 390.65075434152874 -161.80812739687312 0 -1 -3
62 1 1 0 156.74389251760164 391.02266826837064 -155.53646738950195 0 -1 -3
53 1 1 0 177.84277409698313 368.07841676351916 -159.34265677831345 0 -1 -3
56 1 2 0 179.1725977896674 383.7598064192256 -164.30424754834976 0 -1 -3
92 1 2 0 165.66024699028026 380.11651780991696 -160.7564876546642 0 -1 -3
94 1 3 0 168.91584232794904 377.3256312737377 -170.5532093939278 0 -1 -3
93 1 2 0 166.09118329660964 376.7394646126105 -165.4803491225765 0 -1 -3
55 1 4 0 179.36097954805604 378.128426059604 -161.66892899010716 0 -1 -3
54 1 3 0 177.66718782262672 373.73368518109106 -158.25827904314932 0 -1 -3
91 1 3 0 167.16901153742833 383.3760686444296 -155.8002392743193 0 -1 -3
100 1 4 0 187.47727508377486 372.9655701807076 -157.1097131018548 0 -1 -3
99 1 4 0 189.34864824726773 375.2378395801884 -162.23572109707337 0 -1 -3
60 1 2 0 160.88854888342095 388.88044251636126 -166.4535615008854 0 -1 -3
89 1 2 0 168.31734398048184 394.59854022090695 -152.7365033449572 0 -1 -3
57 1 4 0 176.8021120677173 387.3872728894354 -168.14007797375626 0 -1 -3
90 1 1 0 168.13707303607055 388.5171318050867 -152.86390615251835 0 -1 -3
70 1 4 0 179.70856757400335 397.2180245741506 -151.8407445836582 0 -1 -3
71 1 2 0 180.9876755142277 402.6065020278615 -151.03898469788678 0 -1 -3
80 1 4 0 197.55559046660784 405.25944912259814 -148.71223261417103 0 -1 -3
79 1 1 0 196.1026343289083 410.83737771810854 -147.4694150849414 0 -1 -3
1 1 2 0 162.86086605034822 334.2081620585899 -151.0479550298447 0 -1 -3
63 1 3 0 154.6887138094633 389.8334561318526 -149.99077331287225 0 -1 -3
64 1 2 0 157.22737759838893 388.1589150109306 -145.127689443593 0 -1 -3
65 1 3 0 162.37728143261182 387.79643496202794 -142.0837245660971 0 -1 -3
66 1 2 0 168.7202617887326 388.58026152445467 -142.45938471755198 0 -1 -3
88 1 3 0 168.43675971413137 399.9226986178916 -149.99545160197243 0 -1 -3
69 1 2 0 179.80810507939145 391.9874284830538 -150.23820134217502 0 -1 -3
67 1 1 0 174.28031984675005 389.1436258306295 -141.2779790971663 0 -1 -3
68 1 3 0 178.50376894900523 388.35887748307255 -145.6589304825794 0 -1 -3
83 1 4 0 187.9129001684254 395.75157585660793 -139.45848279181473 0 -1 -3
82 1 3 0 192.51210327045615 396.99245859897286 -142.98428914173277 0 -1 -3
87 1 3 0 168.9775856354682 402.3962676446781 -144.9932798527604 0 -1 -3
73 1 4 0 179.29289358342467 409.6192021031227 -141.86331094599075 0 -1 -3
72 1 2 0 178.9405795040903 406.7321155931553 -146.88811656179666 0 -1 -3
86 1 3 0 172.16963018544976 402.4310263598699 -140.47467573680535 0 -1 -3
85 1 3 0 176.92866859190627 399.6580136386713 -137.98014546853247 0 -1 -3
74 1 3 0 182.22087916669165 409.2185300434054 -136.79705398675335 0 -1 -3
78 1 2 0 195.5787962595904 413.7701035500004 -142.48416468979084 0 -1 -3
75 1 4 0 186.51193476232024 410.09533420790234 -133.51461209621124 0 -1 -3
76 1 1 0 188.64495643567724 415.44572318007823 -134.03072970888647 0 -1 -3
77 1 2 0 191.98613064204466 416.2219776164526 -138.86125826225668 0 -1 -3
84 1 3 0 182.2280953908225 396.9047389180254 -138.1685013449734 0 -1 -3
81 1 3 0 195.88980335167793 399.9153637752529 -147.2129115294212 0 -1 -3

Velocities

20 -0.00015826014907378052 0.0015510006487713592 -0.00044844406543548883
19 0.0003696311373487131 -0.0005769684231937487 0.0008264008712529466
18 0.0006808402114409693 -0.0005533338247728671 -0.0001478084733318906
33 0.0004920116714761253 0.0004821390826478133 0.0008877949611315975
17 -0.00020999811891473017 0.0012023757899453657 -0.0006263409200700432
16 0.00023271448089868342 0.001273364588582544 -0.00014743862184660945
36 0.0014877842114704306 0.0006392441083333972 -0.00010271950782504204
35 -9.954976364608974e-05 -0.0010573931163600247 -4.3885624385590497e-05
34 0.000917353608704163 0.00030474683858789915 -0.00038515154009359336
37 -0.0007146781041273191 -0.00044495338071234765 0.000750449111318703
24 -0.0012054401637500705 -0.0006194811795741933 -0.0012205546933760547
23 -0.0006780316800317472 0.001632109928614502 -6.589642893215453e-05
25 0.0001232765410548077 0.0006015526165875798 0.0015287224739410886
21 0.0005575332663495403 -0.0008462344993782758 0.0008350634461347733
22 6.349643084239952e-05 -0.00033330175817991413 -0.00020116687876389197
30 -7.768650315248042e-05 0.0003494423608623969 0.0010016635813928146
31 0.00011182484609492965 -0.0016251318554390988 0.0009473575944174523
29 -0.00148676565334508 -6.900784976152685e-05 -0.0005039344200143479
32 -0.0010121533934506748 0.00017311990227659278 -0.00040741332869716115
15 0.001050440169529703 0.00022978111315436343 0.001170337127902708
14 0.0020595275455529546 0.0009943250740898303 0.0012674465838786364
10 0.0003851741761836869 -0.0011191776126300713 -0.0005407311901746764
11 -0.00039977329541089526 -0.0007895973846649859 0.0004023225411279631
13 -0.0015214205872932367 0.002113507256186162 0.00045787122958469625
12 -0.0009537124292790973 -0.0014195716068977514 -0.0006830508628073409
41 -4.274085410920186e-05 -0.0006087303099109881 0.0011788513684048787
42 0.00036122762009896576 0.0007390849025778108 7.995164489318381e-05
45 0.0008127670078444312 -0.0010630683230873775 0.0007231324121002875
43 -0.00012246804081684194 0.0013415140953709414 0.0005817677883231834
44 -2.6716710373463032e-05 0.0008619103293087743 0.00035847136449686207
38 -0.00024845974356706765 -9.816623842254651e-05 -0.000518593375501313
39 -0.00032646600938851354 -0.001697051575247845 0.00046941065894114413
40 0.0006659827990055146 -0.000588126630096328 -0.0011168171685774283
46 -0.0010906889840222077 -0.0008065622436088506 0.0010005450807068193
9 0.0021067461600936554 0.0003149138660481634 -0.0003040389532542465
47 -0.0018483203059185844 -0.000692744269454352 -0.0011654078921400778
8 -0.0002483454581147042 -0.0007915813164925676 2.9730442977749993e-05
7 -0.0013398957008450775 -0.00017162730257052909 0.0012116985108886079
48 0.0006688695120713978 -0.0009770394726587189 0.0008985416562336719
50 -0.0001441173940273249 0.0013842803887754846 0.0004256806319502868
49 -0.00017912890353307905 0.00010093780878594035 -0.0005123708586122779
51 0.0011695022110376364 -0.0017652302588189732 -0.000768384363914268
96 0.0008723389031289524 -0.0007803621679574464 -0.001219560231337293
95 -0.001447988162581991 -0.00030139146193766984 -0.0007369882859078833
97 -0.00039136912359649846 0.00024216734936745885 0.000653412908727455
98 -7.385880276555447e-05 0.00014208244242279344 0.0003903942115771322
59 4.398587009346302e-06 0.0007307102279802848 -0.0003826684983253107
58 -0.00016871744124939824 5.236632613182708e-05 -0.0013794337892218378
28 0.0018032150402279429 -5.990565116316826e-05 -0.0007003739286849194
27 -0.00011560081398227125 0.0005021589449671679 -0.0006139305227559108
26 0.0008933352167549741 -0.0020304699197048995 -7.168876494197164e-05
4 9.703705670653901e-05 0.000762923323821806 0.0011383061781623741
2 -4.577052631110028e-05 -0.0005679053551521047 -0.001213175922913204
3 -0.00010679689333343422 0.00032136912332635917 0.00028706983060185914
5 2.1838207343851042e-05 -0.0001790669509573359 -0.0003648650871227772
6 -0.0019441638883343508 2.3092304259689988e-05 0.000912659105485403
52 -5.143700637613941e-05 0.0002935145517435974 -0.0002793172829406705
61 -0.0012280014936321526 0.0001599047930876174 -0.0007693937362183284
62 -0.0008500053968727112 0.0017415314813200146 -0.0003268294208898197
53 -0.0005438678655213856 0.0019180771475225944 -0.00013698662296803628
56 -0.0011884629343130297 -0.0010509575138258655 0.0005487992983436846
92 0.0005213769358162612 0.0014667094239494956 -0.001069006686599088
94 0.0002179725323776359 -0.00030791798215546254 -0.0013685107435302576
93 -0.00011593562494279972 0.001177825914537311 -0.0018583124385425657
55 -0.0009892843298944932 -0.001120211176514671 -0.001516842335257642
54 -0.0007801640227729319 0.0013778500771332745 -0.0006003742310112944
91 -0.001450658149487664 -0.0008739904044795752 0.0020840994696199157
100 0.00048012776120160913 0.0009265124425432597 -0.0002062464191764328
99 0.0001676248773216201 -0.0007036161933456623 -0.0007267065184738146
60 0.001053080734285548 0.0008317466561450197 0.0007502247141124102
89 0.0010286219745783468 0.0007639980841158713 -0.0004472419268917591
57 -0.0003597470687654831 -0.000914240991260616 0.0008717720907337168
90 -0.00030907274570366513 0.00024078405272027296 0.0005918271771347152
70 -0.00014067902290878107 6.668657858034765e-05 0.0015860775539212305
71 0.0007568842555733611 -7.3914825726881806e-06 -0.000282274170873977
80 0.00030229092739342267 0.0006061040979205576 0.0008794759964272916
79 -0.0005203150757808272 0.0022507878601837725 0.0005382823580316053
1 -0.0004702212927822613 -0.0015273062579159711 -0.000781771389174116
63 -0.0010159191931016398 0.00035640377599304547 0.0004395360231865163
64 -0.000262058684340862 0.0016479946071542696 0.0011371737069548183
65 -0.0006397464150342958 0.0014997891660631583 -0.002382819215324481
66 0.00010652631621412206 -0.0015052800664900167 -0.0008288048844278365
88 -0.0009160240047198274 -0.00037518814832887104 -0.0011340362583768726
69 -0.0002970154519099534 -0.0009872253861830163 -0.0003142509004069873
67 -0.00029649251236829664 0.0012755947338109722 -0.0002856895697514926
68 7.06680736339696e-05 0.00020837547610058594 -0.0005609424241902204
83 -0.0007639795289855215 -0.0006538265793740649 0.0001837376656535516
82 -0.000961009671274164 -0.0015413974492709953 0.0005605873398525819
87 0.00012418502781728685 -0.0013059349763844999 -0.0003283974784499697
73 -0.0006866422268654003 0.0004775052067706223 0.00014179949502036312
72 0.00031923117162008073 0.0005250173908027845 -0.0007354993609987802
86 0.0005185707663325174 0.0001881154988683752 0.0016229732404977957
85 0.0007512235948224864 -0.000871376174262418 0.0008396849415078034
74 -0.0009605503938948519 -0.0006895264298975017 0.0010405016182212746
78 0.0006711607272310349 -0.0012124462401743702 0.0002858413253454775
75 0.0009170323607685066 -0.0014968741043373745 0.00021854832059975093
76 4.0537037229378226e-05 -0.00030408770025165845 0.00012049266140717936
77 0.00029956929439581536 0.0007296111653969302 0.0011750711212470326
84 -6.740061693037918e-05 0.00028956509289408385 0.00019956610941763048
81 1.0476609876267231e-05 -0.0008149446686781811 0.0003539892144918333

Bonds

1 1 20 21
2 1 19 20
3 1 18 19
4 1 33 34
5 1 17 18
6 1 16 17
7 1 36 37
8 1 35 36
9 1 34 35
10 1 37 38
11 1 24 25
12 1 23 24
13 1 25 26
14 1 21 22
15 1 22 23
16 1 30 31
17 1 31 32
18 1 29 30
19 1 32 33
20 1 15 16
21 1 14 15
22 1 10 11
23 1 11 12
24 1 13 14
25 1 12 13
26 1 41 42
27 1 42 43
28 1 45 46
29 1 43 44
30 1 44 45
31 1 38 39
32 1 39 40
33 1 40 41
34 1 46 47
35 1 9 10
36 1 47 48
37 1 8 9
38 1 7 8
39 1 48 49
40 1 50 51
41 1 49 50
42 1 51 52
43 1 96 97
44 1 95 96
45 1 97 98
46 1 98 99
47 1 59 60
48 1 58 59
49 1 28 29
50 1 27 28
51 1 26 27
52 1 4 5
53 1 2 3
54 1 3 4
55 1 5 6
56 1 6 7
57 1 52 53
58 1 61 62
59 1 62 63
60 1 53 54
61 1 56 57
62 1 92 93
63 1 94 95
64 1 93 94
65 1 55 56
66 1 54 55
67 1 91 92
68 1 99 100
69 1 60 61
70 1 89 90
71 1 57 58
72 1 90 91
73 1 70 71
74 1 71 72
75 1 80 81
76 1 79 80
77 1 1 2
78 1 63 64
79 1 64 65
80 1 65 66
81 1 66 67
82 1 88 89
83 1 69 70
84 1 67 68
85 1 68 69
86 1 83 84
87 1 82 83
88 1 87 88
89 1 73 74
90 1 72 73
91 1 86 87
92 1 85 86
93 1 74 75
94 1 78 79
95 1 75 76
96 1 76 77
97 1 77 78
98 1 84 85
99 1 81 82

Angles

1 1 19 20 21
2 1 18 19 20
3 1 17 18 19
4 1 32 33 34
5 1 16 17 18
6 1 15 16 17
7 1 35 36 37
8 1 34 35 36
9 1 33 34 35
10 1 36 37 38
11 1 23 24 25
12 1 22 23 24
13 1 24 25 26
14 1 20 21 22
15 1 21 22 23
16 1 29 30 31
17 1 30 31 32
18 1 28 29 30
19 1 31 32 33
20 1 14 15 16
21 1 13 14 15
22 1 9 10 11
23 1 10 11 12
24 1 12 13 14
25 1 11 12 13
26 1 40 41 42
27 1 41 42 43
28 1 44 45 46
29 1 42 43 44
30 1 43 44 45
31 1 37 38 39
32 1 38 39 40
33 1 39 40 41
34 1 45 46 47
35 1 8 9 10
36 1 46 47 48
37 1 7 8 9
38 1 6 7 8
39 1 47 48 49
40 1 49 50 51
41 1 48 49 50
42 1 50 51 52
43 1 95 96 97
44 1 94 95 96
45 1 96 97 98
46 1 97 98 99
47 1 58 59 60
48 1 57 58 59
49 1 27 28 29
50 1 26 27 28
51 1 25 26 27
52 1 3 4 5
53 1 1 2 3
54 1 2 3 4
55 1 4 5 6
56 1 5 6 7
57 1 51 52 53
58 1 60 61 62
59 1 61 62 63
60 1 52 53 54
61 1 55 56 57
62 1 91 92 93
63 1 93 94 95
64 1 92 93 94
65 1 54 55 56
66 1 53 54 55
67 1 90 91 92
68 1 98 99 100
69 1 59 60 61
70 1 88 89 90
71 1 56 57 58
72 1 89 90 91
73 1 69 70 71
74 1 70 71 72
75 1 79 80 81
76 1 78 79 80
77 1 62 63 64
78 1 63 64 65
79 1 64 65 66
80 1 65 66 67
81 1 87 88 89
82 1 68 69 70
83 1 66 67 68
84 1 67 68 69
85 1 82 83 84
86 1 81 82 83
87 1 86 87 88
88 1 72 73 74
89 1 71 72 73
90 1 85 86 87
91 1 84 85 86
92 1 73 74 75
93 1 77 78 79
94 1 74 75 76
95 1 75 76 77
96 1 76 77 78
97 1 83 84 85
98 1 80 81 82
