LAMMPS data file via write_data, version 29 Aug 2024, timestep = 408000000, units = real

100 atoms
4 atom types
99 bonds
1 bond types
98 angles
1 angle types

-500.6 500.6 xlo xhi
-500.6 500.6 ylo yhi
-500.6 500.6 zlo zhi

Masses

1 329.2
2 305.2
3 345.2
4 306.2

Bond Coeffs # harmonic

1 7.5 5.9

Angle Coeffs # harmonic

1 5 150

Atoms # full

52 1 2 0 28.406263826847702 397.29423756865765 -214.50466728307208 0 -1 -3
56 1 3 0 17.593050002668377 386.2322990158356 -202.055181173681 0 -1 -3
55 1 4 0 22.585064326595578 385.67815695856183 -205.09715306115226 0 -1 -3
54 1 3 0 26.01123109200357 388.76789493968266 -207.91728257744884 0 -1 -3
53 1 3 0 28.945824396320482 391.82909897524206 -212.15856224629013 0 -1 -3
25 1 2 0 26.60745104244073 394.4558070323755 -198.8121228457475 0 -1 -3
26 1 3 0 31.936046170565596 394.7091511534534 -201.34872977486978 0 -1 -3
42 1 4 0 47.438039043086036 399.02379398970913 -199.54873546154838 0 -1 -3
18 1 1 0 -5.2555828706910805 401.00549707701043 -204.35084845880536 0 -1 -3
16 1 2 0 -12.983430582914023 400.8390049111969 -197.3930957017907 0 -1 -3
17 1 2 0 -8.322987915591815 403.32103775571267 -199.75464163199555 0 -1 -3
19 1 4 0 -1.6124099052010779 403.82221500655913 -207.97171207156336 0 -1 -3
20 1 1 0 4.189828110840106 404.66679141571643 -207.3580877963457 0 -1 -3
21 1 3 0 8.681182341257724 402.5243100785614 -203.57686770446807 0 -1 -3
22 1 4 0 13.836944042996631 402.1232305548316 -200.88772110596605 0 -1 -3
51 1 4 0 24.315340039032144 401.19535854756174 -213.27556555311398 0 -1 -3
50 1 2 0 22.381001654991493 404.85379719983393 -209.27554412546945 0 -1 -3
27 1 3 0 34.25156447726396 399.16086532905854 -204.69041461221695 0 -1 -3
28 1 2 0 31.570354385965285 404.6509438374403 -206.05809550488115 0 -1 -3
49 1 2 0 22.044501421105924 406.0172293984502 -203.5215736121371 0 -1 -3
29 1 2 0 31.69379744410218 410.57798640098207 -204.2847533028872 0 -1 -3
30 1 1 0 33.219284029947644 412.47552531871054 -198.77610520728945 0 -1 -3
15 1 1 0 -15.280758727770028 396.1333883441761 -194.97745283515738 0 -1 -3
12 1 4 0 -10.974276017238546 383.1808835797053 -186.02223840034293 0 -1 -3
13 1 3 0 -14.914004599766933 387.3181301185467 -187.54894366765262 0 -1 -3
14 1 2 0 -13.666823407345579 392.6906922876962 -190.01220906650542 0 -1 -3
62 1 1 0 -5.72829110043178 396.0168781582026 -184.55636433302482 0 -1 -3
60 1 3 0 -0.47102079250252776 395.97295400661665 -193.91373156443717 0 -1 -3
61 1 2 0 -4.865144995944432 396.61717132694804 -190.32618837156153 0 -1 -3
57 1 3 0 11.94951119971857 388.21685866188307 -201.79507456281343 0 -1 -3
58 1 2 0 6.851254330229198 389.88121166272674 -198.8942006095768 0 -1 -3
59 1 1 0 2.2613952822441985 393.49414697819185 -198.79234728419064 0 -1 -3
23 1 2 0 16.584322045784553 398.8450575028762 -197.1664376429636 0 -1 -3
24 1 4 0 21.150368632109963 394.8196947785548 -196.2426554743228 0 -1 -3
40 1 1 0 57.774503173999534 400.7580279070394 -204.79507629565313 0 -1 -3
41 1 4 0 51.86542361774557 401.281645161696 -202.47009789189698 0 -1 -3
38 1 3 0 64.90470461661103 400.4876425159226 -197.16849966202443 0 -1 -3
39 1 1 0 63.31847018389797 401.2294824594307 -202.7500764683058 0 -1 -3
98 1 2 0 8.839397848433356 410.6684078102314 -192.03768831460835 0 -1 -3
97 1 1 0 8.24457387240017 405.43251981293895 -189.41853636737898 0 -1 -3
99 1 2 0 7.927723369007871 413.9947102134671 -196.43964179659667 0 -1 -3
100 1 1 0 9.514420674207011 418.376621633309 -200.02835654633097 0 -1 -3
48 1 1 0 23.080856341204107 408.70439536880457 -198.49895086126855 0 -1 -3
47 1 3 0 24.847064922791787 408.25564106670384 -192.8423096118086 0 -1 -3
46 1 4 0 29.501961011899386 405.80432447180425 -190.4649120960601 0 -1 -3
43 1 4 0 43.75980122666403 398.84936716859386 -195.21955319954407 0 -1 -3
31 1 2 0 35.70982304202941 412.78656627287205 -193.21723386563852 0 -1 -3
44 1 3 0 38.43049298556674 399.24150075860217 -192.82502314819757 0 -1 -3
45 1 1 0 33.152732144694696 401.55411627984745 -191.35132694764383 0 -1 -3
32 1 1 0 40.513263638529516 411.2377291206087 -189.62688064078438 0 -1 -3
33 1 1 0 46.33001158091854 410.35621351811983 -191.0877564466027 0 -1 -3
34 1 1 0 50.95988002601901 406.32550783224764 -190.8351885920509 0 -1 -3
37 1 3 0 62.03658831507387 397.99219873157824 -192.2587638450079 0 -1 -3
36 1 3 0 58.644064976180644 400.2880677215029 -187.7358441629592 0 -1 -3
35 1 2 0 55.92827582600935 405.5176007041985 -187.47295927499815 0 -1 -3
11 1 3 0 -9.656122385032411 377.67539217301766 -184.1857496476708 0 -1 -3
10 1 1 0 -12.465458936971018 374.80045041135014 -179.6601200994089 0 -1 -3
8 1 1 0 -14.382963078419717 375.7973843309593 -169.78650440468573 0 -1 -3
9 1 2 0 -15.93965195377879 375.7770110335489 -175.50171068519666 0 -1 -3
77 1 4 0 -28.741530229479284 390.69298466316855 -163.63429161796836 0 -1 -3
63 1 4 0 -3.3444705072450565 393.0469541982513 -180.16954398569607 0 -1 -3
64 1 2 0 1.4914630974787946 391.7126846384255 -177.15363744032243 0 -1 -3
92 1 3 0 1.4578254687947265 400.05304772707547 -165.57433203567098 0 -1 -3
96 1 2 0 6.0339643687851785 402.8547566766064 -184.15150642055752 0 -1 -3
95 1 1 0 6.88597646280321 400.2343454606084 -179.1634896658736 0 -1 -3
65 1 2 0 5.861511527369006 389.5393278802746 -173.2552243841138 0 -1 -3
66 1 2 0 10.365184190186282 390.0418105594375 -169.09735950172816 0 -1 -3
67 1 4 0 13.366180908110653 392.8096257293128 -164.78617081626732 0 -1 -3
93 1 3 0 4.885900094346492 402.6437397815029 -169.68102504779213 0 -1 -3
94 1 1 0 9.144227346226703 401.65518403785916 -173.773381890819 0 -1 -3
83 1 4 0 -17.232902477911665 366.3382869012614 -158.15031780723422 0 -1 -3
84 1 1 0 -11.652492766222258 364.71199184476114 -156.97426123014057 0 -1 -3
85 1 4 0 -6.591253772747247 367.5672035185594 -156.80742566328047 0 -1 -3
78 1 2 0 -31.15399312586801 386.05298253741046 -166.14986958903282 0 -1 -3
79 1 1 0 -29.627670781294103 380.447613702778 -165.80929415897862 0 -1 -3
81 1 2 0 -22.0944513892213 372.4108995432138 -166.05834801919215 0 -1 -3
82 1 1 0 -20.472220406529388 370.2505629612933 -160.54084383382073 0 -1 -3
80 1 2 0 -25.597840423550597 376.6581402476233 -168.33354025284865 0 -1 -3
7 1 3 0 -12.600970626641091 378.1060030913414 -164.63518901499097 0 -1 -3
6 1 3 0 -13.390527304065296 380.3675615552418 -158.85606925092247 0 -1 -3
5 1 1 0 -13.769952769066688 378.8346177397063 -153.09987998552234 0 -1 -3
89 1 1 0 -1.652322755981852 388.0636932761794 -155.9620513463581 0 -1 -3
86 1 1 0 -3.1514782649641386 371.6064655873458 -153.88861383177257 0 -1 -3
88 1 3 0 -0.2237921833269544 382.6873335531879 -154.59380274700013 0 -1 -3
87 1 4 0 0.013378611454089624 376.8109198458006 -154.10022060991173 0 -1 -3
76 1 2 0 -24.965973662066293 395.3039581691592 -163.22938012404953 0 -1 -3
75 1 2 0 -21.2121856116088 396.16216179663974 -158.84487259035203 0 -1 -3
74 1 3 0 -17.576337607877118 398.69431896599036 -155.39097420158035 0 -1 -3
91 1 3 0 -1.9158218510447265 395.62976633726277 -163.63675953162655 0 -1 -3
73 1 2 0 -12.10047619434993 400.7837561004366 -155.16933170673283 0 -1 -3
90 1 1 0 -3.8079155303563796 391.54299114911714 -159.79092226540865 0 -1 -3
71 1 1 0 -1.5346841227177592 402.5000203394132 -155.25125196961307 0 -1 -3
72 1 2 0 -6.666566209967768 399.4735615121815 -155.79846724231123 0 -1 -3
68 1 2 0 13.82742358450476 396.5104415517257 -160.61328770651835 0 -1 -3
70 1 4 0 4.270340525203659 401.0970506624844 -154.98183940503299 0 -1 -3
69 1 2 0 9.77211686817182 398.86536530995426 -157.15720144511815 0 -1 -3
1 1 4 0 -22.815449774191475 365.847741727293 -136.9982443335195 0 -1 -3
4 1 4 0 -13.85470236905448 375.5279988614651 -148.31375725762982 0 -1 -3
3 1 4 0 -16.532882787373012 370.91279750909587 -145.31654744189996 0 -1 -3
2 1 1 0 -20.280896911277313 368.01310311058876 -141.93562192062797 0 -1 -3

Velocities

52 -0.00014957259520900513 0.002055385571314528 5.109140553203315e-05
56 -0.001166131726811616 6.0644729922660194e-05 -0.0008039425068748381
55 0.0004907967633977254 -0.0003126225671112071 0.0005177295957153748
54 0.0007411918490306953 -0.0002994977827451361 0.0010779084870953359
53 -6.362034914656838e-05 0.0004111193192231179 -0.0004850598928861019
25 -0.0004863244693638498 -0.0016992881055470364 -0.00038783818214827465
26 -9.237731524748057e-05 0.00027655030124530444 0.0003034805788061563
42 0.0010978762216579197 0.0008681275362843608 -0.00012517154789717084
18 0.0018758222394293829 -0.0008295464929182219 -0.00021326519204546492
16 -0.0007211911660771843 -0.0009753751041344086 0.0018860484680051843
17 -0.0019004328334540576 -0.0009409019858847631 -0.00033656810345143474
19 0.00015123950336646532 -0.0005057757294868714 -0.00181271844567386
20 -0.0002798082835595677 -0.0006535374114687101 -0.00015540490114235753
21 -0.0004865065216797464 0.0002361936310661521 4.404144775593413e-05
22 0.00010597375694882903 0.000555499198676268 -2.084919493388051e-05
51 -0.0008453973224202585 0.001446235469328533 0.00039737301975344727
50 0.0021024471173067528 -0.001061146037093702 0.0005205347219179788
27 0.00013140245482239215 -0.0012020296664194464 0.0011850604375573744
28 0.0014435026270137599 -0.0011782930477477048 0.0008047030772952458
49 0.0005979390751541024 -7.870007836947455e-05 -0.0002491804027776177
29 0.00048279032728250164 0.0009596706061368561 0.0007033145801936644
30 -0.0004890114845725354 -2.0151518752641348e-05 -0.000526513883181851
15 -0.0003324318804707002 -0.0019915005188595515 0.0007121646645672967
12 -0.00038468056248365615 -0.001290529307649552 -0.0009929278891774066
13 0.0003061033554478244 0.001542751095778888 -0.0008549377316680295
14 0.00022646985620228933 -0.0008319257027707498 -0.00029071017287808735
62 0.0005115166496429715 0.00012835563392407732 0.00042498235243631875
60 0.0004924926732539991 0.0007105374576382083 -0.0007317051699152392
61 0.000325003018240315 0.0006265427786020346 0.00021548798824247138
57 1.6993873260146305e-05 -0.00045970608335990637 0.0015060526628416983
58 -0.0005994389672086422 -8.205677528985292e-05 0.001207577105429475
59 0.00047436976689129513 0.001457706062139886 -0.0003946131057697558
23 0.00045008064776096455 -9.114986290296447e-05 -0.0002882902257796849
24 0.0009202536919790914 0.0011351656087492288 -0.000662383006018097
40 -0.0012034438346654748 0.0007586362335760268 -0.0003968816345292569
41 -0.0014181782711169943 -0.000529330196110683 -0.00047729082013996403
38 -0.00044370691909096223 0.00018547922538907893 -0.0004401235642080139
39 -5.4457796885350436e-05 0.0009903714430085672 -0.0005484470450721129
98 -0.00010422458604398435 0.0010819858669297146 -0.0005112983217070834
97 -0.0005828208702774214 0.00037655298211238864 -0.00018659435826869143
99 -0.0017197581091553317 0.000722286548322685 -0.0007289201900200602
100 -0.00048144127904948706 -0.0018304160198940498 -0.0004448280500310659
48 3.840279687194185e-05 -0.0003462188251334873 -0.001794630042621741
47 0.0002729749837172377 -0.00047383759986528685 -0.0014511958186384246
46 0.0005970945743291575 0.0005688092646087209 0.0006526115792678028
43 -0.0007223736542219277 -0.0008451607730157662 0.0006873868677262357
31 0.0014764462320023192 -0.00011123988381463057 -0.00030065311818840807
44 0.00039512624479694317 -0.00028588580249400597 0.0011304496426774427
45 0.0006869022182026511 -0.0006976414843178005 -0.00031995613208288156
32 -0.00030746746515034014 0.00018124466928118676 0.0009714908705884053
33 -0.0003168909979074838 -0.0016339105562539397 -6.763812382472362e-06
34 0.00105504390155079 -0.0018110642445721432 0.001548310030513912
37 -0.0017019954608136567 -0.00026197800056279173 -0.0008415466414080199
36 -0.0006096283277631627 0.0008499664257998127 -7.368028070704607e-05
35 -0.00015611560499740438 -0.0006213797214836511 0.0003309643562683936
11 -0.0008005846681405826 -0.0011878561494125907 2.160557854533838e-05
10 0.00016520058484417385 0.0001953453530990403 -0.0005038566149444648
8 0.0014080339023763641 0.00043868911176080425 -0.001512601897833719
9 -0.00016236032732175513 -0.0005892014683426393 -0.00015970638096650988
77 -0.0011501687218332536 -0.00026632216936134894 0.0012602389726830469
63 -0.00012204555871694904 0.00037341792825899237 0.0009679648519806379
64 0.0003785188922216284 0.00041774299310351427 0.002251669062040972
92 -0.00015105813520196437 -2.8201155467794945e-05 0.00048533499693412046
96 0.0007401803723143867 0.0001958822847389032 -0.0008542467014544196
95 -0.0011733350976323301 -0.0004898401242850241 -6.112435573196902e-05
65 0.0012466114159060335 0.0003968094732095946 -0.0002640644075769531
66 -0.0011054825468742072 0.00021120514337988585 -1.630091061855184e-05
67 0.001040093660986054 4.921439388893126e-05 0.0006544234706635097
93 0.0013824597040930002 0.0007631229856077549 -0.0009405708539698388
94 0.00012267390665783936 -0.00010007624596034765 0.0007956346786353191
83 -0.001291885151644808 0.0009987014200252414 -0.0013155277157195853
84 -0.0011549575673323715 0.0005908986215878408 3.6967617653815463e-05
85 -0.0010961139562625042 0.0005549235842273559 -0.0012196017476680638
78 0.001296153392381258 0.0011762093258234263 0.0008081976948052303
79 0.000165183343957438 -0.0007644778123383441 -0.0004360660724931993
81 0.0010776893817714245 -0.0009647216969739449 -0.00034401093145540804
82 2.1821266875216787e-05 0.0007908750313759859 0.0005488616125546163
80 0.00017233608939271695 0.00024312555109904467 0.001233752899959825
7 0.0002538782740471043 0.00019472249845182225 -0.0009375233010007998
6 -0.0009355752543088656 0.00011207101049460131 -0.0006441944712621956
5 -0.0012799714508298504 -0.0008314853098711064 -0.00019565405930425215
89 -0.0006072702398013621 0.00045677927747390056 0.00048381104444309765
86 -0.001280097941472845 -0.0007131517330610974 0.0009618104781295381
88 -0.0006665136007904308 -0.00010971617825739008 -0.0006970517566544107
87 0.0010210484213871403 0.0013232734839319809 0.0013121869931660003
76 -0.002538927352573886 0.0005275436283062129 0.0009480645973888078
75 0.002167636334730088 0.0012675705600372858 -9.54267099347425e-05
74 0.0005544203116581933 0.00018888488496945354 0.0003107256159702766
91 -0.0010459350588875604 0.00048427142103966015 3.562336109197163e-05
73 -0.0007516241622609077 0.0002964409187586579 -0.0007724293785807345
90 0.00029312763298805576 0.0002123429941413331 -0.0015539518185629436
71 -0.00028673935406218 -0.0003963320057602858 0.0004641307428408892
72 0.0012579322970144374 -0.00019704189193898335 -0.0007172657022189417
68 -0.0003640967579719126 -0.00021731362891173054 0.0002347939279276108
70 0.0008216660182593664 0.00031341285517492464 0.0004056997677835191
69 -0.00017274894118769887 -0.00026344875283200756 5.715546760980375e-05
1 -0.0013063365375658176 -0.0017514319924978412 0.00043554750188354465
4 -0.001463105508967688 -2.3415820368638888e-05 0.0015904176253974333
3 -0.0013359961859999805 0.0007429849039293346 0.001898197285883458
2 -0.0003134821150238299 -2.2358550460018095e-06 -0.0004452302774800794

Bonds

1 1 52 53
2 1 56 57
3 1 55 56
4 1 54 55
5 1 53 54
6 1 25 26
7 1 26 27
8 1 42 43
9 1 18 19
10 1 16 17
11 1 17 18
12 1 19 20
13 1 20 21
14 1 21 22
15 1 22 23
16 1 51 52
17 1 50 51
18 1 27 28
19 1 28 29
20 1 49 50
21 1 29 30
22 1 30 31
23 1 15 16
24 1 12 13
25 1 13 14
26 1 14 15
27 1 62 63
28 1 60 61
29 1 61 62
30 1 57 58
31 1 58 59
32 1 59 60
33 1 23 24
34 1 24 25
35 1 40 41
36 1 41 42
37 1 38 39
38 1 39 40
39 1 98 99
40 1 97 98
41 1 99 100
42 1 48 49
43 1 47 48
44 1 46 47
45 1 43 44
46 1 31 32
47 1 44 45
48 1 45 46
49 1 32 33
50 1 33 34
51 1 34 35
52 1 37 38
53 1 36 37
54 1 35 36
55 1 11 12
56 1 10 11
57 1 8 9
58 1 9 10
59 1 77 78
60 1 63 64
61 1 64 65
62 1 92 93
63 1 96 97
64 1 95 96
65 1 65 66
66 1 66 67
67 1 67 68
68 1 93 94
69 1 94 95
70 1 83 84
71 1 84 85
72 1 85 86
73 1 78 79
74 1 79 80
75 1 81 82
76 1 82 83
77 1 80 81
78 1 7 8
79 1 6 7
80 1 5 6
81 1 89 90
82 1 86 87
83 1 88 89
84 1 87 88
85 1 76 77
86 1 75 76
87 1 74 75
88 1 91 92
89 1 73 74
90 1 90 91
91 1 71 72
92 1 72 73
93 1 68 69
94 1 70 71
95 1 69 70
96 1 1 2
97 1 4 5
98 1 3 4
99 1 2 3

Angles

1 1 51 52 53
2 1 55 56 57
3 1 54 55 56
4 1 53 54 55
5 1 52 53 54
6 1 24 25 26
7 1 25 26 27
8 1 41 42 43
9 1 17 18 19
10 1 15 16 17
11 1 16 17 18
12 1 18 19 20
13 1 19 20 21
14 1 20 21 22
15 1 21 22 23
16 1 50 51 52
17 1 49 50 51
18 1 26 27 28
19 1 27 28 29
20 1 48 49 50
21 1 28 29 30
22 1 29 30 31
23 1 14 15 16
24 1 11 12 13
25 1 12 13 14
26 1 13 14 15
27 1 61 62 63
28 1 59 60 61
29 1 60 61 62
30 1 56 57 58
31 1 57 58 59
32 1 58 59 60
33 1 22 23 24
34 1 23 24 25
35 1 39 40 41
36 1 40 41 42
37 1 37 38 39
38 1 38 39 40
39 1 97 98 99
40 1 96 97 98
41 1 98 99 100
42 1 47 48 49
43 1 46 47 48
44 1 45 46 47
45 1 42 43 44
46 1 30 31 32
47 1 43 44 45
48 1 44 45 46
49 1 31 32 33
50 1 32 33 34
51 1 33 34 35
52 1 36 37 38
53 1 35 36 37
54 1 34 35 36
55 1 10 11 12
56 1 9 10 11
57 1 7 8 9
58 1 8 9 10
59 1 76 77 78
60 1 62 63 64
61 1 63 64 65
62 1 91 92 93
63 1 95 96 97
64 1 94 95 96
65 1 64 65 66
66 1 65 66 67
67 1 66 67 68
68 1 92 93 94
69 1 93 94 95
70 1 82 83 84
71 1 83 84 85
72 1 84 85 86
73 1 77 78 79
74 1 78 79 80
75 1 80 81 82
76 1 81 82 83
77 1 79 80 81
78 1 6 7 8
79 1 5 6 7
80 1 4 5 6
81 1 88 89 90
82 1 85 86 87
83 1 87 88 89
84 1 86 87 88
85 1 75 76 77
86 1 74 75 76
87 1 73 74 75
88 1 90 91 92
89 1 72 73 74
90 1 89 90 91
91 1 70 71 72
92 1 71 72 73
93 1 67 68 69
94 1 69 70 71
95 1 68 69 70
96 1 3 4 5
97 1 2 3 4
98 1 1 2 3
