LAMMPS data file via write_data, version 29 Aug 2024, timestep = 408000000, units = real

100 atoms
4 atom types
99 bonds
1 bond types
98 angles
1 angle types

-500.6 500.6 xlo xhi
-500.6 500.6 ylo yhi
-500.6 500.6 zlo zhi

Masses

1 329.2
2 305.2
3 345.2
4 306.2

Bond Coeffs # harmonic

1 7.5 5.9

Angle Coeffs # harmonic

1 5 150

Atoms # full

1 1 3 0 -71.93902167847325 331.86080525673856 -326.092692316614 0 -1 -3
3 1 1 0 -67.16369116931368 341.22451010425146 -324.01357756740276 0 -1 -3
4 1 2 0 -69.23977969835391 345.44581127356736 -321.1586002189154 0 -1 -3
2 1 1 0 -67.74424393685936 335.6134800342447 -325.5784523886527 0 -1 -3
82 1 1 0 -57.02039700294502 371.5396242431099 -318.2803493802662 0 -1 -3
83 1 1 0 -51.9891344404349 374.6708351017578 -318.43969172435567 0 -1 -3
14 1 2 0 -47.65815701896399 333.4543935664091 -303.4320086600636 0 -1 -3
75 1 2 0 -75.99634663387822 345.75002942659285 -306.70677755190684 0 -1 -3
76 1 1 0 -76.61671172857355 351.06403922927933 -304.49167542434054 0 -1 -3
74 1 4 0 -72.87246702685364 340.9004741610378 -306.3635367580354 0 -1 -3
73 1 3 0 -67.30527642787668 340.8092138165669 -308.2367794312567 0 -1 -3
5 1 2 0 -69.05391028458858 348.53718270801687 -316.46735515697367 0 -1 -3
72 1 2 0 -61.9421313964891 339.2904155591216 -306.2652833710403 0 -1 -3
71 1 4 0 -56.798253233104894 340.9873159628076 -304.17349508955533 0 -1 -3
70 1 3 0 -53.510930983223346 345.659531663847 -304.7089445771336 0 -1 -3
17 1 1 0 -38.629114975351584 347.4749867775072 -304.3689868098819 0 -1 -3
16 1 2 0 -40.505695877884385 342.03850649471224 -306.302575970004 0 -1 -3
15 1 1 0 -43.45560986547947 337.04457765690336 -304.6750818420621 0 -1 -3
77 1 4 0 -76.18148221074732 357.14202773947335 -303.19379888797334 0 -1 -3
78 1 2 0 -72.7469332955968 360.82042555225394 -306.5253898188917 0 -1 -3
79 1 1 0 -70.09198288878336 362.22588451970427 -311.2634329186222 0 -1 -3
6 1 3 0 -65.58095285991341 351.1481560452646 -312.7328552002869 0 -1 -3
8 1 3 0 -64.96870177128403 351.74379389918505 -301.47858891438165 0 -1 -3
7 1 3 0 -64.0061848909587 353.12823827509703 -307.0690878180561 0 -1 -3
80 1 4 0 -67.00243408326956 366.88356481438143 -313.6706360780429 0 -1 -3
18 1 4 0 -39.28523471155211 352.3231437952761 -300.9132823961635 0 -1 -3
81 1 2 0 -62.05202942033823 369.8555876788654 -315.30248077972436 0 -1 -3
84 1 1 0 -50.786819441132906 379.623027372719 -315.92509075469485 0 -1 -3
85 1 3 0 -49.31022947818818 381.7068663287448 -310.78862771458887 0 -1 -3
86 1 1 0 -49.668394855439246 382.52938293995487 -304.84325789212977 0 -1 -3
87 1 4 0 -49.502213242403286 385.0580725066448 -299.38411320408 0 -1 -3
13 1 4 0 -52.290580089644706 332.9260017135578 -299.5507706957944 0 -1 -3
12 1 4 0 -56.567503664946564 334.89678600500514 -296.2548158237455 0 -1 -3
11 1 4 0 -60.17193274583056 338.784469949116 -293.7911697562871 0 -1 -3
10 1 4 0 -63.956166589767655 342.96207017581526 -295.8363056633346 0 -1 -3
9 1 1 0 -66.25035929419094 347.76564960932075 -297.39117303553024 0 -1 -3
69 1 4 0 -50.31732266640698 348.4646780132151 -300.57443278212196 0 -1 -3
68 1 3 0 -50.87194804812336 347.5995902402049 -294.9360655960395 0 -1 -3
67 1 1 0 -47.464000598694966 349.53537475174176 -290.1025581645153 0 -1 -3
22 1 4 0 -55.964744374465084 359.864639837146 -294.3124691082503 0 -1 -3
21 1 2 0 -53.23404290318831 360.033928649685 -299.7647132059539 0 -1 -3
23 1 2 0 -57.001564933926524 356.379338341632 -289.79621630915966 0 -1 -3
24 1 1 0 -55.816432592803345 356.5364020888253 -284.0834700154703 0 -1 -3
19 1 2 0 -42.30205283549252 357.10551446339906 -301.1520463269036 0 -1 -3
20 1 1 0 -47.75754165256955 359.3080821323443 -301.7082902617242 0 -1 -3
66 1 3 0 -44.235332598942236 352.6385535320959 -286.31716051553815 0 -1 -3
65 1 3 0 -44.41204024883521 357.9907476841598 -283.9412545262421 0 -1 -3
88 1 4 0 -50.957354407898784 386.41239041496243 -294.0330277993425 0 -1 -3
89 1 4 0 -52.6195830402278 389.84084942057615 -289.9332166590417 0 -1 -3
90 1 1 0 -50.86481502217417 391.19670376196706 -284.41258197642327 0 -1 -3
26 1 3 0 -52.186793994919555 351.77697939291926 -274.91101607422013 0 -1 -3
25 1 4 0 -55.71960999852814 353.31607182052596 -279.26082903302887 0 -1 -3
64 1 2 0 -42.64323068191235 360.57961151965026 -279.07030483428457 0 -1 -3
27 1 4 0 -46.45142321387113 351.7340056842246 -272.5712226592423 0 -1 -3
28 1 2 0 -40.83103065865769 353.34475397228863 -271.81458188997277 0 -1 -3
63 1 2 0 -43.92392409303435 362.7801792744065 -273.9000587671284 0 -1 -3
62 1 3 0 -46.34261537105394 365.9722276670022 -269.93023866456093 0 -1 -3
41 1 2 0 -13.336821248264867 381.78012335773144 -265.6431563142816 0 -1 -3
96 1 1 0 -70.05268764435762 402.136964236725 -275.41437734893856 0 -1 -3
91 1 1 0 -49.01883951928061 395.4649703139945 -280.7369412617693 0 -1 -3
92 1 1 0 -51.13461039161259 398.0239744208758 -275.93239480176123 0 -1 -3
42 1 3 0 -17.733365498783996 384.86329108249294 -268.25008060171547 0 -1 -3
43 1 1 0 -16.479679676475442 390.22451671218687 -268.9800972703829 0 -1 -3
99 1 2 0 -80.21211505648716 412.90933713048173 -278.8840271311792 0 -1 -3
95 1 2 0 -66.72216016707274 399.3079702104517 -271.38376335121956 0 -1 -3
97 1 3 0 -75.30065208395973 402.8317311078527 -277.5830558104927 0 -1 -3
98 1 4 0 -79.46202020875627 406.60857919027404 -279.4936469237277 0 -1 -3
94 1 1 0 -60.796258514041774 398.23801088416326 -270.5498232835917 0 -1 -3
93 1 4 0 -56.17042944508312 400.0827601379551 -273.63137812471524 0 -1 -3
100 1 4 0 -83.19161024363692 417.72584185243124 -279.30759384591744 0 -1 -3
29 1 4 0 -38.46709929440325 357.3170012579489 -267.91431621828633 0 -1 -3
60 1 2 0 -47.72229756829926 369.6679776262902 -259.1125183690964 0 -1 -3
58 1 4 0 -42.365288076932 362.03936675929174 -252.7066634875698 0 -1 -3
59 1 3 0 -45.558748720315066 366.875985404006 -253.99226123912206 0 -1 -3
31 1 1 0 -33.23523560792892 364.85355098601764 -263.2377025213934 0 -1 -3
30 1 4 0 -34.54505565586993 359.6565425648043 -264.47779580064196 0 -1 -3
54 1 2 0 -22.201742667303517 362.9576568172944 -253.84629742104548 0 -1 -3
53 1 3 0 -18.941281698242083 362.51052065477654 -258.547886901299 0 -1 -3
61 1 3 0 -46.55329673832989 368.22107963850374 -264.61883413724354 0 -1 -3
32 1 2 0 -33.36420137927576 369.3437125993147 -259.3051125460863 0 -1 -3
52 1 2 0 -20.928235044370723 366.82870527431373 -262.54962249666374 0 -1 -3
51 1 2 0 -22.366342330812042 372.40566908770614 -262.246068821661 0 -1 -3
50 1 4 0 -23.5414150898991 377.73733184846475 -259.72597526602044 0 -1 -3
33 1 1 0 -34.38321442942642 371.2578077321865 -253.94322711094088 0 -1 -3
49 1 3 0 -23.753644308230445 383.0227301090412 -256.92724974271334 0 -1 -3
40 1 4 0 -12.865935461996354 376.6165317985909 -262.9507713381775 0 -1 -3
39 1 1 0 -10.310504344432482 373.3959080520541 -258.91551596580905 0 -1 -3
38 1 3 0 -12.046075092392131 371.71834129218536 -253.43509977501537 0 -1 -3
44 1 1 0 -16.317188685581474 395.33376329744334 -266.0476599074326 0 -1 -3
48 1 1 0 -21.786160751431478 386.94703951182305 -253.21441317652983 0 -1 -3
45 1 1 0 -15.685041998715171 398.04493500218894 -260.9126723561121 0 -1 -3
46 1 2 0 -18.027717228759094 397.5202961762475 -255.63800386525125 0 -1 -3
47 1 4 0 -19.685908983128247 392.45827277564877 -252.7871202151689 0 -1 -3
57 1 3 0 -37.524423516005676 360.92688992291966 -249.95705258824063 0 -1 -3
56 1 3 0 -31.435853095427593 361.00461296911 -248.3573460300801 0 -1 -3
55 1 1 0 -25.98497377817573 361.34991470714624 -249.1172717640986 0 -1 -3
34 1 2 0 -31.476649909105536 371.1279004014095 -248.7190439908375 0 -1 -3
35 1 3 0 -26.220421390123438 374.49682405115084 -246.97223823089232 0 -1 -3
36 1 4 0 -20.48141753706223 374.11179591031294 -247.48201937689848 0 -1 -3
37 1 4 0 -15.274906390392387 371.49263440989546 -248.53408270092353 0 -1 -3

Velocities

1 -6.812611666035837e-05 -0.00026400515849171426 -0.000480072871929857
3 0.00038081192457700046 -0.00034098078359348513 -0.0003539816147092694
4 -0.001997989315456045 -0.00043510587094413173 -0.0014748044769369898
2 -0.0007687673189869216 0.001173738018300772 -2.7455040494467392e-05
82 0.0015285023736657762 -0.00013012954014361778 0.000896822402376138
83 -0.00023924567033809397 -8.090720800378437e-05 0.0011037178650908025
14 0.0003965750189695207 0.0013867646617436603 -0.0005527654008994244
75 8.082857205769709e-05 0.000303150044468554 0.001583441988023445
76 -0.0013790118921255057 0.0006381241690519036 9.477516854306339e-05
74 0.00010489588357526465 0.001729391186556522 -0.0009462373716674442
73 0.00013737596342251873 0.00027706392358715204 0.00028124646448988115
5 0.000243000567680327 0.001061260041459828 0.0001046689867374665
72 -0.0016185455794226207 -0.0021573902571283186 -0.00011399871043482848
71 6.803417155720744e-05 -0.0004331208547603209 0.00010042639859919348
70 0.0005064634774176502 -0.00022822924460169747 -0.0006303672432954601
17 0.0009389500001152963 0.000746564612310352 4.302680809649559e-05
16 -0.0011860681915908215 0.0015077305957257828 0.00026906517790231346
15 0.0011235926055777144 -0.000811240147626896 -0.0007813833258757414
77 0.00010297611484381668 -0.0003531617366807197 -0.0015647749097561544
78 -0.0002174336689608474 -5.572424423028028e-05 -0.0004685408350501226
79 -0.00017258763858208755 1.4089117618894088e-05 -0.0006449503471536862
6 -0.00028262009056199207 0.0012414195543505504 -0.0009219709402245299
8 -0.001876741091729317 0.00020820906595118055 0.0003121405228575234
7 -5.343733090985627e-05 0.0009395507703354048 -0.0003719184572548924
80 0.0009171238782538589 -0.0005509525571590659 -0.0005779168108869434
18 -0.0006824045858216384 0.00026760632179885876 0.00043286016556934835
81 -0.0003471931616753614 -0.00040232385169944085 -0.0001436096317736214
84 -0.0010153677570019916 -0.0017838756213757268 0.0014129358541535412
85 -0.0014828048761771125 -0.0002960380468754838 -0.0005165377601658476
86 -0.0007013486985142741 4.438557781187604e-05 0.0001419653109813311
87 0.0005016666680152033 -0.0007641313458008734 -0.0009490429122583914
13 -0.00042483431687444825 -0.0006246710268165309 -0.00047162423400686046
12 -0.0001573410227733376 -0.0006849044077927929 0.0009128006663994653
11 0.0014546236021551308 0.0002888328225134896 0.000642057300897001
10 -0.0004486035957980326 -0.0013645795498690371 -0.0013335809131174627
9 0.0006572329746152822 -0.0016040083742187088 0.001296348607510356
69 0.0016677719136179382 -0.0016363881824155296 8.0920686051739e-06
68 -0.001026834592002319 0.0010267451344656052 3.8552026268682706e-06
67 0.0009125556786056057 -0.0006132333881115033 -0.0006074254594034489
22 0.0013475461294318414 0.001658968534616622 -0.00012707880055534668
21 -0.00019353265108753673 -0.0003552448167266037 0.00034176200313461427
23 -0.0004501909885644818 0.0009175504453775605 0.0014151676172635085
24 0.00024622846683849053 -0.00033528282143394534 -0.000778884110993127
19 0.0005343802253373585 -0.00026346784690937 -0.0011384581580580258
20 0.0007152126225912323 -0.0007400622462565396 0.0010705463333791593
66 -0.0005827172799042188 0.0004456549373032266 -0.0005157546505436405
65 0.00040354187261637276 -0.0002832577901260751 0.0006451107449750668
88 -0.0004017206743090561 0.0004890581688821123 -0.0003628744581476117
89 -0.0002495729270395082 -0.00040572178442438043 -0.00014475734126741377
90 0.00021206224535017627 0.002124617262970379 0.002001715975282329
26 -0.0012125343684825168 0.00019193248566117945 -0.0006124662706843051
25 0.0008916269162432299 0.001348690502026135 0.00029518688146562875
64 0.0006419207570959182 0.0010947692033748664 0.00023351450799889595
27 0.0005050871065206833 0.0010012988640159758 0.00019993765314188912
28 0.000517696147308081 -0.0005521146334635732 -0.0005754565343490271
63 -0.0007367508691643746 0.0006215649946407312 -0.00013730828129512518
62 -0.0007835761608212769 -0.001247682238084154 -0.0003575406277014326
41 -6.844754010271547e-05 0.0010439481437840685 0.0005108841425176291
96 -0.0002268155674071217 -0.00011481511755041114 0.0006559073937396064
91 -0.0005360954235082903 -0.0009638910370104886 -0.001045384964553586
92 0.000861016383348386 -0.0012647614943036786 0.001452787388987159
42 -0.001265821331590496 -0.0009302455058975779 0.0008899912277099182
43 0.00025576005726530394 0.0002855107034533249 -8.794386463417603e-05
99 0.000522368883485437 -0.00028648065213773767 -0.0007407806748961514
95 0.0005610378036321295 -0.0012521752000548153 0.001260030994129372
97 -0.00037527492992220606 0.0011381820128578257 0.0008506352844575289
98 -0.00023824842469175365 0.00019327147085207222 0.00041206559285129934
94 -7.967190530232443e-05 0.00013556119339429903 -0.0008234995192245439
93 0.001357531124476341 0.00011414247183436008 -1.798044692444703e-05
100 -0.001116392921722737 -0.0009041931224242455 -2.945180836633481e-06
29 -0.0009629779861721876 -0.001900549904345528 -0.0007258910760504819
60 -0.0003696014770200812 0.0019204813016839492 0.0008167437137872892
58 -0.00041062577704418867 -0.001113990515977778 0.0007595835119894073
59 -0.0003265310056969048 -0.001006619151572776 0.0013760045490464451
31 -0.0006169818767378345 0.0006326167258853682 0.0007684975747383438
30 -0.0006355297543263794 -0.0008944846805958608 -0.0005053216864240903
54 8.751191445754469e-05 -0.0011846901525609623 0.00023391643860299466
53 0.0003741276700297171 0.0005850451674631586 0.0018468861502624865
61 0.002393239632571532 0.0007606827705864718 0.0008822877200644831
32 -4.9708186175853115e-05 0.0020619483696366083 0.0006721615386573587
52 -0.0004770267061790306 0.0009497150357281303 -0.00120301427879887
51 0.00037392735871121224 0.0016312882213831844 0.0006081412575771209
50 -0.0004360020437935164 0.000547603306362318 -0.00048580307123599354
33 -0.0013850147935110095 0.0005619325221354961 -0.0020340472307197243
49 -0.0008984527395581551 -0.0007486074332272343 0.00041632704395677363
40 0.0022091330938768055 -0.0015513387156814477 9.274166843058273e-05
39 0.0002456963508407282 -0.00010853080408991937 -0.0017315278153404111
38 -0.00017329950117459046 0.0008372363086501991 0.0005155849903765524
44 -8.903909173480012e-05 0.0001849792885724241 0.0005670829071095353
48 -0.0013703608183495038 0.0010951768934492653 -0.0004052942742107647
45 0.0008006393992440955 -0.0011927129983629174 0.00035243453578918455
46 -0.000783323204459123 -0.0004300199918541158 -3.0537165306359e-05
47 -0.001961721574478016 -0.0003190936180466306 -0.000566309544752104
57 0.0015903043301844643 -0.0022096680201477213 0.0008686998673599087
56 0.0007524708058114985 0.0007264089598824832 -0.0014283432199849052
55 -0.0011142450080841664 -0.0016876975126065676 0.000530713800381687
34 0.0007800373327926468 0.000689462831732687 -0.001534076061332852
35 6.290979027801e-05 0.0005421939020627037 5.5959965640894236e-05
36 -0.00036103336515189946 0.0005285126532466899 0.0011639279282833535
37 -0.0017071653343891534 -0.0007243144131343795 2.6243569198656767e-05

Bonds

1 1 1 2
2 1 3 4
3 1 4 5
4 1 2 3
5 1 82 83
6 1 83 84
7 1 14 15
8 1 75 76
9 1 76 77
10 1 74 75
11 1 73 74
12 1 5 6
13 1 72 73
14 1 71 72
15 1 70 71
16 1 17 18
17 1 16 17
18 1 15 16
19 1 77 78
20 1 78 79
21 1 79 80
22 1 6 7
23 1 8 9
24 1 7 8
25 1 80 81
26 1 18 19
27 1 81 82
28 1 84 85
29 1 85 86
30 1 86 87
31 1 87 88
32 1 13 14
33 1 12 13
34 1 11 12
35 1 10 11
36 1 9 10
37 1 69 70
38 1 68 69
39 1 67 68
40 1 22 23
41 1 21 22
42 1 23 24
43 1 24 25
44 1 19 20
45 1 20 21
46 1 66 67
47 1 65 66
48 1 88 89
49 1 89 90
50 1 90 91
51 1 26 27
52 1 25 26
53 1 64 65
54 1 27 28
55 1 28 29
56 1 63 64
57 1 62 63
58 1 41 42
59 1 96 97
60 1 91 92
61 1 92 93
62 1 42 43
63 1 43 44
64 1 99 100
65 1 95 96
66 1 97 98
67 1 98 99
68 1 94 95
69 1 93 94
70 1 29 30
71 1 60 61
72 1 58 59
73 1 59 60
74 1 31 32
75 1 30 31
76 1 54 55
77 1 53 54
78 1 61 62
79 1 32 33
80 1 52 53
81 1 51 52
82 1 50 51
83 1 33 34
84 1 49 50
85 1 40 41
86 1 39 40
87 1 38 39
88 1 44 45
89 1 48 49
90 1 45 46
91 1 46 47
92 1 47 48
93 1 57 58
94 1 56 57
95 1 55 56
96 1 34 35
97 1 35 36
98 1 36 37
99 1 37 38

Angles

1 1 2 3 4
2 1 3 4 5
3 1 1 2 3
4 1 81 82 83
5 1 82 83 84
6 1 13 14 15
7 1 74 75 76
8 1 75 76 77
9 1 73 74 75
10 1 72 73 74
11 1 4 5 6
12 1 71 72 73
13 1 70 71 72
14 1 69 70 71
15 1 16 17 18
16 1 15 16 17
17 1 14 15 16
18 1 76 77 78
19 1 77 78 79
20 1 78 79 80
21 1 5 6 7
22 1 7 8 9
23 1 6 7 8
24 1 79 80 81
25 1 17 18 19
26 1 80 81 82
27 1 83 84 85
28 1 84 85 86
29 1 85 86 87
30 1 86 87 88
31 1 12 13 14
32 1 11 12 13
33 1 10 11 12
34 1 9 10 11
35 1 8 9 10
36 1 68 69 70
37 1 67 68 69
38 1 66 67 68
39 1 21 22 23
40 1 20 21 22
41 1 22 23 24
42 1 23 24 25
43 1 18 19 20
44 1 19 20 21
45 1 65 66 67
46 1 64 65 66
47 1 87 88 89
48 1 88 89 90
49 1 89 90 91
50 1 25 26 27
51 1 24 25 26
52 1 63 64 65
53 1 26 27 28
54 1 27 28 29
55 1 62 63 64
56 1 61 62 63
57 1 40 41 42
58 1 95 96 97
59 1 90 91 92
60 1 91 92 93
61 1 41 42 43
62 1 42 43 44
63 1 98 99 100
64 1 94 95 96
65 1 96 97 98
66 1 97 98 99
67 1 93 94 95
68 1 92 93 94
69 1 28 29 30
70 1 59 60 61
71 1 57 58 59
72 1 58 59 60
73 1 30 31 32
74 1 29 30 31
75 1 53 54 55
76 1 52 53 54
77 1 60 61 62
78 1 31 32 33
79 1 51 52 53
80 1 50 51 52
81 1 49 50 51
82 1 32 33 34
83 1 48 49 50
84 1 39 40 41
85 1 38 39 40
86 1 37 38 39
87 1 43 44 45
88 1 47 48 49
89 1 44 45 46
90 1 45 46 47
91 1 46 47 48
92 1 56 57 58
93 1 55 56 57
94 1 54 55 56
95 1 33 34 35
96 1 34 35 36
97 1 35 36 37
98 1 36 37 38
