LAMMPS data file via write_data, version 29 Aug 2024, timestep = 408000000, units = real

200 atoms
4 atom types
199 bonds
1 bond types
198 angles
1 angle types

-1000.6 1000.6 xlo xhi
-1000.6 1000.6 ylo yhi
-1800.6 1000.6 zlo zhi

Masses

1 329.2
2 305.2
3 345.2
4 306.2

Bond Coeffs # harmonic

1 7.5 5.9

Angle Coeffs # harmonic

1 5 150

Atoms # full

106 1 1 0 820.8982325678272 -854.1725671132625 -1183.4819055560263 -1 0 0
133 1 4 0 813.7649458220611 -866.1044690689375 -1173.4839978555972 -1 0 0
132 1 1 0 809.4191835101922 -862.3832210962812 -1174.6158899828472 -1 0 0
131 1 3 0 808.6549504082697 -856.9472457396345 -1175.023794920604 -1 0 0
104 1 1 0 825.4173951200156 -859.4994201470912 -1174.1312964899587 -1 0 0
105 1 2 0 821.8951421543866 -857.9274135087486 -1178.8854669396082 -1 0 0
103 1 4 0 828.4968786681533 -861.0424613384052 -1169.7192770760942 -1 0 0
107 1 1 0 820.9262873369502 -848.0213850040129 -1183.1727564631833 -1 0 0
108 1 1 0 818.3330654986722 -842.8790172740185 -1182.3297713437983 -1 0 0
109 1 1 0 817.03215213448 -838.3076848603182 -1178.629544665098 -1 0 0
176 1 2 0 844.2534098804507 -822.2047013496937 -1174.2270119827967 -1 0 0
177 1 3 0 846.4944899929138 -822.7801417466312 -1179.7065840202617 -1 0 0
179 1 4 0 857.321101674535 -822.5654931991494 -1183.8701796328837 -1 0 0
178 1 4 0 851.5532616998289 -824.2537487935301 -1182.85308757753 -1 0 0
168 1 2 0 820.6822805026602 -799.3370761627896 -1168.363872203602 -1 0 0
160 1 1 0 829.4485776591355 -814.6700918622565 -1170.2150021892076 -1 0 0
169 1 4 0 825.6206475832059 -802.1896932973756 -1166.6591460151917 -1 0 0
159 1 3 0 835.2268166717594 -814.0492894788551 -1170.6280393107813 -1 0 0
158 1 4 0 839.8749809838966 -811.5654218384922 -1173.2628255786858 -1 0 0
157 1 4 0 845.2346024103789 -810.9469099823165 -1174.825914225556 -1 0 0
180 1 3 0 863.201240707902 -820.9673192410902 -1183.068744355297 -1 0 0
156 1 2 0 850.5056524257279 -813.0063280881523 -1176.2162653249852 -1 0 0
155 1 3 0 855.8031965112798 -814.6272937456711 -1173.7647584374272 -1 0 0
181 1 2 0 866.2350197979692 -817.9481537281958 -1178.8140703293236 -1 0 0
2 1 4 0 863.9545824331943 -885.1227045615079 -1153.3888725818165 -1 0 0
135 1 4 0 823.5226423932318 -872.0203800813725 -1170.7551048006649 -1 0 0
136 1 4 0 826.9721858434942 -875.1268144618612 -1166.9229644029117 -1 0 0
138 1 1 0 836.2707430871818 -876.0511274925979 -1160.9431726734194 -1 0 0
137 1 2 0 832.3882433862592 -876.5667975648032 -1165.1783988735438 -1 0 0
200 1 1 0 839.4366353215244 -880.966010926906 -1152.2918333351204 -1 0 0
139 1 3 0 839.136890961675 -872.1304796469842 -1158.2437473215282 -1 0 0
6 1 4 0 851.910480480483 -871.3335990036535 -1161.5684163753856 -1 0 0
5 1 2 0 852.9774837784979 -876.8080850254859 -1162.157647357479 -1 0 0
4 1 2 0 857.5943881119757 -880.6654024274858 -1161.167989242772 -1 0 0
3 1 4 0 862.3419036892609 -882.056382738283 -1158.3155073570535 -1 0 0
134 1 4 0 819.1734108495181 -868.4521493555504 -1171.922259646512 -1 0 0
102 1 2 0 829.8852429377271 -862.552277892769 -1163.9877843222198 -1 0 0
101 1 1 0 831.1092796609851 -867.3477603097232 -1160.4982041296055 -1 0 0
100 1 3 0 829.0210861950637 -868.0674727830611 -1155.1346199807228 -1 0 0
7 1 3 0 849.9872274460675 -866.6339261767318 -1158.6252060663828 -1 0 0
8 1 4 0 847.4429081768538 -861.2210819410022 -1158.8578101709904 -1 0 0
192 1 2 0 857.2617589243481 -855.5483947566494 -1161.4040182352508 -1 0 0
193 1 3 0 859.4950151364684 -860.179263036892 -1158.2280813601212 -1 0 0
194 1 3 0 862.6614037708682 -864.391957663722 -1156.5691529073695 -1 0 0
130 1 1 0 810.2191991468353 -851.363807830293 -1173.3714875746196 -1 0 0
129 1 1 0 814.8573511617001 -847.3923228773457 -1172.5423398879868 -1 0 0
128 1 4 0 819.5896307583648 -847.9633632333404 -1169.2498037613457 -1 0 0
111 1 2 0 820.8137549893438 -834.0127897663858 -1169.4757274452186 -1 0 0
110 1 1 0 818.320093892114 -833.6067815657326 -1175.0417964916294 -1 0 0
124 1 1 0 835.4094208007484 -833.9903040104754 -1171.9652781025745 -1 0 0
125 1 1 0 834.4941354514973 -839.759288121979 -1171.6807761312457 -1 0 0
127 1 4 0 824.6850962927541 -844.9514840616755 -1170.055849100937 -1 0 0
126 1 3 0 830.2209089520547 -843.516906218667 -1170.6024448360483 -1 0 0
114 1 2 0 831.9262885093326 -837.9962230270878 -1159.5998456876584 -1 0 0
113 1 4 0 825.6676894160969 -838.5857684221205 -1161.2462223667383 -1 0 0
112 1 2 0 822.0395921204686 -835.1025731987677 -1163.7005760548366 -1 0 0
190 1 2 0 854.880486975229 -844.1990717611907 -1161.9902178780785 -1 0 0
189 1 3 0 854.3043775228958 -839.563437892362 -1158.2800058458622 -1 0 0
150 1 4 0 863.588350144673 -837.8499955058332 -1168.81350242667 -1 0 0
191 1 1 0 855.5240613130046 -850.0991616944916 -1162.3238387724182 -1 0 0
149 1 4 0 865.4356583930692 -843.0856876499852 -1166.5615341879718 -1 0 0
148 1 4 0 864.8078914468504 -847.3366470538207 -1162.288950730171 -1 0 0
147 1 3 0 866.4925240434472 -849.6621144824867 -1157.0150506572254 -1 0 0
123 1 4 0 833.8522538109983 -829.5793503108888 -1168.6640998689759 -1 0 0
122 1 3 0 831.1394446942496 -825.3683089297876 -1165.5514338456212 -1 0 0
121 1 4 0 828.9095055446725 -822.3097310300111 -1160.6480262881541 -1 0 0
120 1 2 0 831.319512615262 -821.0173197719961 -1155.340122729637 -1 0 0
175 1 3 0 844.7504212662578 -822.9217458421203 -1168.2190616232579 -1 0 0
115 1 3 0 835.6411335559327 -833.7728709676684 -1159.7074230958017 -1 0 0
116 1 2 0 841.2170251326205 -832.2854813549644 -1158.0404414516695 -1 0 0
117 1 1 0 841.8785466953103 -827.452388662309 -1154.510189153558 -1 0 0
151 1 3 0 860.9054443351617 -832.7484789335003 -1168.2308868673092 -1 0 0
152 1 2 0 860.2467313019972 -826.9692939461739 -1167.4382190123736 -1 0 0
153 1 3 0 860.4934189871788 -821.3454250682568 -1166.5479139018516 -1 0 0
185 1 3 0 868.7878721726303 -821.9853573216519 -1158.2533107160468 -1 0 0
184 1 3 0 870.9284936611608 -819.5848792984153 -1162.9104248059382 -1 0 0
183 1 3 0 871.7579909535531 -819.1000115051064 -1168.690577842374 -1 0 0
167 1 4 0 815.2052871419168 -799.28146163505 -1165.9557439392026 -1 0 0
166 1 4 0 810.153252202279 -802.7680572177582 -1164.7447946341458 -1 0 0
165 1 3 0 809.3564605232181 -807.256956035534 -1160.979778575724 -1 0 0
170 1 2 0 829.867983770105 -803.860396256963 -1162.815907451412 -1 0 0
171 1 3 0 834.1557078481638 -808.1139876271562 -1161.4894088298386 -1 0 0
164 1 4 0 811.7944582449073 -811.5367986600207 -1157.9249897597913 -1 0 0
163 1 1 0 817.4344600000093 -813.5043987193917 -1157.6008473499292 -1 0 0
162 1 1 0 822.3032342242435 -815.2052795495415 -1160.7682542163357 -1 0 0
161 1 3 0 825.0962770241215 -814.098861543466 -1165.9548434675921 -1 0 0
172 1 3 0 839.3589266107497 -809.7979556774978 -1160.457479765482 -1 0 0
174 1 3 0 844.1475325138605 -819.7820796167806 -1163.2445137536045 -1 0 0
173 1 4 0 842.8922272807931 -814.6804537722389 -1160.6420549090506 -1 0 0
154 1 4 0 859.8517141857646 -817.0967020442303 -1170.39249289629 -1 0 0
182 1 1 0 868.7401838529588 -819.6472336359362 -1173.6353538735486 -1 0 0
50 1 2 0 796.6883294978452 -960.7945348056804 -1135.6987225396529 -1 0 0
51 1 2 0 802.4349337991231 -960.7342892073802 -1135.3914962166034 -1 0 0
36 1 3 0 774.6216309536615 -908.5826144103405 -1145.666404291389 -1 0 0
35 1 3 0 769.2207757624161 -906.1784262743811 -1144.6899790444313 -1 0 0
34 1 4 0 766.297984542925 -901.0206239406382 -1144.0215506373474 -1 0 0
37 1 2 0 780.7210553748203 -910.2211236236386 -1144.5831335617154 -1 0 0
38 1 3 0 785.2280826161535 -911.1485711722311 -1140.2640494120992 -1 0 0
39 1 3 0 787.7786582385676 -913.3515895961721 -1135.657039280907 -1 0 0
33 1 4 0 762.7843496278257 -898.3018620135076 -1140.26535268888 -1 0 0
32 1 1 0 762.5091912986426 -897.1874727258929 -1134.3412289169046 -1 0 0
77 1 4 0 771.5435256904204 -887.0115216816126 -1136.3037594077234 -1 0 0
76 1 2 0 773.6470484422327 -891.7208408428193 -1139.1858137340937 -1 0 0
75 1 2 0 776.6424612069509 -897.0336367478008 -1138.6923014101583 -1 0 0
24 1 2 0 786.9467491277567 -890.2806249099231 -1139.5169618248074 -1 0 0
23 1 2 0 786.6726061086478 -885.9020798228623 -1143.9020571556173 -1 0 0
1 1 4 0 868.5519597724489 -886.7138868037534 -1149.6844126583526 -1 0 0
21 1 4 0 788.2054109993053 -874.6430844570261 -1144.9511513810048 -1 0 0
22 1 4 0 786.6376097990864 -880.4611972246784 -1145.9966972468922 -1 0 0
20 1 2 0 791.62063615981 -870.6834647774263 -1142.3883380663299 -1 0 0
85 1 4 0 798.6580336606514 -879.0428925681223 -1147.7484432433578 -1 0 0
87 1 1 0 800.4887854433341 -868.1696750182945 -1150.1004340132706 -1 0 0
84 1 3 0 799.3328172781393 -882.3299524988037 -1142.9210287946994 -1 0 0
86 1 4 0 799.0374211745767 -873.8075416297648 -1150.4510294962013 -1 0 0
198 1 4 0 850.6858139730723 -881.1542147465581 -1149.2151302425552 -1 0 0
199 1 4 0 844.9015875220136 -881.4874653691086 -1149.9416820809827 -1 0 0
197 1 3 0 854.3939818982161 -876.2820151100482 -1148.6776725834816 -1 0 0
140 1 1 0 842.8338569810857 -871.0559048586312 -1153.8860667511535 -1 0 0
196 1 3 0 858.2578967010288 -872.3881840033748 -1149.6522269349655 -1 0 0
195 1 1 0 861.7542655225491 -868.4541004046266 -1152.392158664937 -1 0 0
19 1 1 0 796.3056791568318 -867.154017208975 -1141.3398237588758 -1 0 0
18 1 3 0 801.8523209728114 -865.5997087028942 -1139.8129903192714 -1 0 0
90 1 2 0 806.5253541983989 -852.2325827269138 -1149.5881909357915 -1 0 0
16 1 4 0 811.7603666081615 -863.5634159633461 -1143.3000839584056 -1 0 0
88 1 2 0 799.976113970271 -861.9747984015909 -1151.136322494318 -1 0 0
89 1 1 0 801.8605105312511 -856.3322805858592 -1149.5837592176067 -1 0 0
15 1 4 0 816.3403124800196 -862.1311043681777 -1146.4094843052762 -1 0 0
91 1 1 0 809.434713534252 -849.2081953871266 -1145.0425424963303 -1 0 0
17 1 1 0 806.431851800747 -862.6356826023747 -1140.7149084455452 -1 0 0
99 1 4 0 827.2982278769383 -869.521867500314 -1149.725922209233 -1 0 0
98 1 2 0 823.2703498824275 -872.42000328662 -1146.4789123765995 -1 0 0
14 1 3 0 820.3420919463674 -858.8881191312232 -1148.4077618650479 -1 0 0
13 1 1 0 825.8901650582832 -856.5837492081087 -1148.0194679094204 -1 0 0
12 1 1 0 831.5154893494185 -856.4960502668898 -1147.8586549401002 -1 0 0
97 1 2 0 821.2163532293677 -870.764988391164 -1140.8680443527414 -1 0 0
11 1 1 0 837.3679826314308 -854.7061709724859 -1148.4480544068447 -1 0 0
9 1 3 0 845.7932419086899 -857.4914218692455 -1155.210620680813 -1 0 0
141 1 2 0 845.3384711541743 -867.5443586265559 -1149.9402332599338 -1 0 0
142 1 4 0 849.5654184955142 -867.2863890401746 -1145.9171535512182 -1 0 0
10 1 1 0 842.8354086900077 -856.775469022076 -1150.1386692517976 -1 0 0
143 1 2 0 854.0704182143409 -863.1351227034847 -1145.6255842187115 -1 0 0
144 1 3 0 856.15951306513 -858.0579760223306 -1147.8342508966123 -1 0 0
145 1 3 0 860.7395669464818 -855.0388709411271 -1148.4889302194858 -1 0 0
146 1 4 0 864.6851810655374 -853.3878238169721 -1152.8389292801344 -1 0 0
92 1 1 0 812.6305095560783 -849.7062569467538 -1140.379848167149 -1 0 0
188 1 3 0 858.2860473069745 -835.7507217703127 -1156.427803953562 -1 0 0
118 1 1 0 840.5185212593133 -821.8181492941076 -1154.1302259766092 -1 0 0
119 1 1 0 835.844556271411 -818.3587637143986 -1153.4061971361355 -1 0 0
186 1 4 0 864.1955518748106 -825.4368759998415 -1156.95807627531 -1 0 0
187 1 1 0 860.9703779436444 -830.5365555669896 -1157.5961593133748 -1 0 0
49 1 1 0 791.4157162606563 -958.0616012728042 -1136.396941329105 -1 0 0
61 1 4 0 794.3844290224963 -956.8725652251397 -1120.6929972384894 -1 0 0
62 1 3 0 797.5440140643685 -953.5514753208391 -1124.5020940728164 -1 0 0
48 1 2 0 787.9105884628974 -953.8298522081595 -1134.4622541970186 -1 0 0
63 1 4 0 797.4463578715518 -950.0513614574054 -1129.1118736478898 -1 0 0
52 1 4 0 807.0874737909927 -960.3132102566781 -1132.119232194618 -1 0 0
53 1 3 0 810.7427130082447 -955.9284533942632 -1130.022947365405 -1 0 0
54 1 4 0 810.8524780628994 -950.5630451838683 -1128.0923634854285 -1 0 0
46 1 3 0 781.4253235317863 -945.3966501742788 -1134.7501065447618 -1 0 0
45 1 4 0 780.3039050147614 -941.6575869230803 -1130.5042278277126 -1 0 0
47 1 3 0 785.9129705748093 -948.8160170511286 -1136.177522781683 -1 0 0
66 1 1 0 790.7562572025581 -938.6349684383995 -1138.8290558314445 -1 0 0
65 1 2 0 794.6835262673177 -941.8814255368554 -1136.093500742144 -1 0 0
64 1 1 0 796.5749001710585 -946.2671751071665 -1133.3887452082406 -1 0 0
55 1 1 0 809.6451712040727 -946.671253365588 -1123.9110035231793 -1 0 0
69 1 3 0 777.238211260213 -927.9244761965678 -1137.4441569701137 -1 0 0
70 1 3 0 774.8385676443243 -922.813188818306 -1137.0282288221647 -1 0 0
68 1 2 0 781.085053362016 -931.9604279480334 -1139.1218240710105 -1 0 0
44 1 4 0 779.9620038013604 -936.2753791908281 -1128.0609550393344 -1 0 0
43 1 2 0 778.8945906920871 -930.3610224715611 -1126.7662476807368 -1 0 0
42 1 3 0 781.0573911403154 -925.196822297442 -1126.9986162983241 -1 0 0
67 1 4 0 785.6595058231284 -935.5391813965165 -1137.323005974116 -1 0 0
71 1 2 0 774.6279878669803 -917.5411536888023 -1134.9446375947998 -1 0 0
73 1 2 0 775.4737050683706 -906.5698017952255 -1131.9208425262236 -1 0 0
72 1 4 0 773.6740587941014 -912.1018830502935 -1133.0235343936597 -1 0 0
41 1 2 0 785.7059982649538 -922.1635293296455 -1127.9507598994835 -1 0 0
40 1 1 0 787.9947703983762 -917.7137718048081 -1131.4658537717362 -1 0 0
31 1 3 0 763.6065263302453 -893.2826771530522 -1130.3701127106608 -1 0 0
74 1 1 0 775.923629114726 -901.29883282511 -1134.6188843469877 -1 0 0
30 1 1 0 765.8195108252137 -892.6258593614709 -1124.8334625519635 -1 0 0
29 1 3 0 771.8607715680905 -891.191781713425 -1123.023093350541 -1 0 0
28 1 4 0 777.1695486971341 -888.279783668827 -1122.3407236204218 -1 0 0
27 1 3 0 782.7559304930774 -889.1118949136907 -1124.0867883186231 -1 0 0
26 1 2 0 786.6297339717129 -891.5962546820715 -1127.905045561391 -1 0 0
25 1 1 0 786.2499334066216 -892.2629174676321 -1134.062942919176 -1 0 0
78 1 2 0 774.149183740655 -883.3976060929423 -1132.298835463542 -1 0 0
79 1 4 0 777.8300496035891 -878.695062825858 -1131.5621823206022 -1 0 0
80 1 3 0 783.3383249967386 -878.1348633952244 -1130.3437487209308 -1 0 0
83 1 3 0 797.5988794452702 -881.7802300198982 -1137.5504911160447 -1 0 0
81 1 3 0 789.0535522137926 -879.0542711075259 -1131.640391507385 -1 0 0
82 1 1 0 793.2818506485731 -881.8825322067894 -1133.9894180387494 -1 0 0
93 1 1 0 813.2163983474336 -853.703835308021 -1135.8997064368232 -1 0 0
94 1 1 0 814.327318518544 -858.9714000798543 -1133.461231080598 -1 0 0
95 1 1 0 818.3263369713237 -862.8868355977721 -1133.2304687032533 -1 0 0
96 1 2 0 821.1379226350471 -866.5765093933322 -1137.0509776359047 -1 0 0
60 1 1 0 793.7941817681241 -958.344748732785 -1114.7398008440573 -1 0 0
59 1 4 0 797.7261919898967 -957.0221734500467 -1110.6606657158536 -1 0 0
58 1 4 0 801.2022220023784 -952.7119001819051 -1112.0885922270995 -1 0 0
57 1 1 0 804.1374400549588 -948.2460183339385 -1114.6752796678015 -1 0 0
56 1 2 0 806.5929811759519 -945.9797105441777 -1119.288489501164 -1 0 0

Velocities

106 0.0014361191339127464 0.0001243401321502951 -0.0006805463977198666
133 0.0016471172948966228 -0.0013039292287914499 -0.00023634483698791717
132 0.0007843352655551212 0.0005522312073410693 8.973733187165322e-05
131 0.00037764063682004163 -0.0006855873881210424 -0.0004266602217744527
104 0.00015384394686090584 -0.0003807491696655018 -0.0012172170836015777
105 -0.002697032377135107 -0.0002703830696428532 -0.0011576791789863717
103 -0.0005964756921921964 0.0006667408945121439 2.26847684140182e-05
107 0.000992310014042948 0.0006759764257986098 0.0011255291512450457
108 0.0005761608660336647 -0.0002162049990506753 -0.0007600843037868846
109 -0.00038009224612860784 0.0007416567581950916 -0.00030731909578174307
176 -0.0018821663072488208 0.00047056425243926044 -0.0010591725739607222
177 0.0007400951039209027 0.0003709161609782332 0.000182132280179188
179 0.0010249271924873543 -0.00010208353750949399 0.002233744906339408
178 -0.0014395227567125975 0.0009222500798650289 -0.0001337930756790257
168 -0.0009615960067195828 0.0018718149156170885 -0.0002279987799150916
160 -6.0691962343599895e-05 -0.0003095057012821424 0.0003886684518437744
169 3.34551099960135e-05 0.0007724509120777644 0.0009151222899253904
159 0.0007331007205093536 6.72896215761615e-05 0.0015881907975179915
158 -0.0004072026027050547 0.000436815634868673 0.0012144793672524041
157 0.0014984747327518252 0.0008619960691289699 -0.0004995605098272812
180 0.0002022068096724971 0.00022029508133605724 -0.0004046977576330337
156 -2.858806478286082e-07 -0.001437983041940167 -0.00036126098349340165
155 -0.000586462930199653 0.00042830353617230804 0.0013251163961444505
181 -0.0017000438427969198 -0.0008417311771160149 0.00020741313837638122
2 -0.0006892235804488433 -0.0010511258178978846 0.0005898545609762536
135 0.00021553185456326277 -0.0005450422534217648 -0.000292350989863538
136 -0.00021506938436629286 -0.0006258178164472623 0.0005310093445021996
138 -0.0005199579047786542 -0.0012874345495524071 -0.0016623348861833406
137 0.00029990415525684545 -0.001576723521110639 -0.00026085438460171385
200 0.0005547190022260974 0.00030394093682616763 9.649311118146663e-05
139 0.00021668726159566925 -0.0016469882676623726 0.00040921115973325303
6 0.0011369787848030566 0.0007704655476540795 -0.0008680616379579245
5 0.0009366784213518004 0.0004885699661010157 0.0009749252752375157
4 0.0011682570474478848 -0.0018782902150163048 0.00011913550733235084
3 0.001126213457365441 8.167634663563229e-05 -0.0009040212173930244
134 0.0004812911564656578 -0.0005722635261188346 -0.00013465813881700808
102 -0.0006386119308960637 0.0007478611622975196 0.0013867199045987956
101 -0.0004304543278300865 -0.0009255695786134561 0.0017075690744328465
100 -0.0008408389201391108 0.00031443381699034227 -0.001016737392364429
7 0.0009933885593137414 -0.00012519698975863974 0.0007820596798638994
8 2.9499044050293656e-05 -0.00021100273617187992 0.0007821735401721486
192 0.0012184441562578857 0.0002691674089385938 0.0001661252713539817
193 4.747741057088012e-05 -0.0010799236058387752 0.0009483313802004633
194 -0.0006733672600542681 0.0007860897733986605 9.03941334613899e-05
130 0.000596155313023429 -0.00010145401581155482 0.0010240822337089423
129 0.00042887057043923077 0.0007844372814882637 -0.0009653722654682558
128 0.0003294689480241961 0.0007526506538347566 -0.0015928057950532828
111 0.0008542887558314158 0.00011148748530952843 -0.0014064687060927055
110 -0.0002382797540292039 0.0005901719789537204 -0.00020013025625077724
124 -0.000765990288976348 -7.25424720932065e-06 -1.8155666169436394e-06
125 0.0007114828662739406 0.0012362617792222909 0.0005199516395386616
127 0.0007726896191542621 -0.0012029574302867864 -0.0008087103877756898
126 0.0005957677551408948 0.0003671370258782959 -0.000842033655826346
114 -0.0003109624022878248 0.0003521682605337293 -0.0008188870508817026
113 -0.00015028456804354762 -0.000187686738791141 0.0023592028444181273
112 0.0014651971051233591 0.00052111983906885 -0.000359707321927996
190 -0.0016607754919427534 -0.0005569001763289098 -9.3697068579797e-05
189 -0.0004246455296589417 0.0013975804264869018 -0.0010326273412873518
150 -0.0009112202950336332 -0.0013892462362242127 -0.000148297583573501
191 0.00021350234560824836 0.0002639242386539306 -0.0012258315951969097
149 0.0005357969979815653 -0.00032742962742801304 -0.00015514319409157197
148 0.0002102445135531983 -0.0003959424342729884 0.00013384212311134814
147 0.00037392720230592985 -0.00042123480512567586 -0.0007484040782296177
123 -0.0007050879516600826 -4.663056455454747e-05 -0.0009517961026832184
122 0.0001949984713291284 0.0003246883118727921 0.00018130799879357139
121 -0.0004422068073454088 0.00041109374184693324 -0.0010795551313840144
120 -0.0018422639641875109 -0.001058161397510454 0.0005925306869076744
175 0.0004779974013907885 0.00035142057750424513 0.0007058499610590768
115 0.0005858782913467434 -0.0005021335940822268 -0.0015741677293943808
116 -0.0017771367199498848 -0.0012903293898024585 0.0013490772220012249
117 -8.611222298172653e-05 -0.00014679738554642277 0.000727180468871157
151 -5.5568300759785045e-05 0.0007318732593502009 -0.00047539734022192525
152 -0.0001858163630678844 -0.001357957458625597 -0.00027701856278519114
153 -0.000301060574527586 0.0007708254230105103 0.00034608159983769154
185 -8.364891639051033e-05 -0.0005293601538595861 -0.00019591298311771714
184 0.0005655052613840994 0.0008049243929392012 -0.0009171313630646455
183 0.0006397443684240178 0.0002660279322956325 -0.002224832252173416
167 -0.0013973748363764124 1.2775016514556684e-06 0.0017229104553860587
166 -0.0002777361072603956 0.0013108621848271296 -0.00041734518037956486
165 0.0003082856690646161 -0.0007313972726947718 -0.0006579387355271505
170 6.196155630908963e-06 -0.0008315425462401733 0.0020032184160852836
171 0.0010063606907829432 0.0006785154550614105 0.002451842876376481
164 -0.0009409959398314142 0.00014605873651451042 -0.002035472225454533
163 -0.0004950222524568444 -0.0012144860380067632 0.0006823021614119553
162 8.62067661340374e-05 0.00021024316608132438 0.00036492270427100127
161 -0.00019756210334530137 -0.00132175985344047 -0.0016113772961591196
172 -0.0007946764942871651 -0.0007603826106117373 -0.0002516084767426452
174 0.0017229415378338742 -0.0010168537456977484 -0.0005412446429317482
173 -2.3136984474560853e-05 0.00035948097656640995 -0.0009522853408028098
154 0.0005730760820593248 -0.0008337959770961586 -0.001570159875372713
182 -0.0009483225871775319 0.000791804903597535 -0.0006337299615294329
50 -0.00010390793469590925 0.0009190063942753557 0.0014626008794418547
51 0.0004774459294815576 -0.0003406399994742778 0.000828728654404796
36 7.077821919263201e-05 0.00038277237986888757 0.0005039843000504661
35 -0.0009097525577023397 0.00041491585650560913 0.0008118748990201233
34 -0.0005856283982865563 0.0006528690298298257 0.00019490997165128794
37 -0.0019359013565999126 0.0007052095423165593 0.00035310031647982414
38 0.0004739716583586885 0.00016581351437319232 0.00020384073162214787
39 -0.00047035739003699974 0.0006611873176974712 -0.00036554335524740703
33 0.0005425335298053537 -0.0006744288026585799 -0.0004654608652105206
32 -0.001827436495809535 0.0013672197456186183 0.0010468670107409775
77 -0.0008267845379566503 0.0003014710028006942 -0.0009244086617665526
76 0.00037657349117788434 -0.0009971143739792366 -0.0008437121388612082
75 1.562700152665761e-05 -0.0010605622091223671 0.0004218606253474505
24 0.00029332334122616355 -0.00040546176013446945 0.0011460183781282737
23 0.0009934169678618065 0.000884053989420803 0.0009318933828087495
1 6.980495247335192e-05 0.0015648862821201158 -0.0002443652138828843
21 0.001007527588751592 2.1163311913331274e-05 0.0011637707865529145
22 -0.002892495308729232 -0.0001677061935222674 0.0015070118609664424
20 0.001121724652395154 0.0009710737995713862 0.0006256787385115467
85 -0.0009304642085799774 -0.0008181523076650661 -0.0007529359264072977
87 -0.0005660548883772502 0.00038822477475592885 0.0016958976843565027
84 4.207599924706181e-05 2.856734136204114e-05 0.00013458288233028247
86 0.0005115000185975446 0.0001223487833433784 -2.496197696122301e-07
198 0.0005035159892771156 0.002298656297556932 0.0005873172374378558
199 0.0021478094130539015 0.0005822405349911821 0.0002077706600062711
197 -0.0003817337355311391 0.0006144561558202203 0.0005081934968901832
140 -0.0004237760190376366 -0.0009269855366956529 0.0006468784036137839
196 0.001473558363963201 0.001012304682938018 5.2387070177079756e-05
195 -0.0003609378658537225 -0.0008558389949580289 -0.000360501125397618
19 0.00043826318978275677 -0.0005720094907812852 -0.0012161996583232267
18 0.0009172480547971185 0.0015534503008926134 -0.0005599011493299476
90 0.00023102237733715534 -0.001243224591318491 -0.0007443291284508981
16 0.00011439119493308311 0.0004238510303005656 0.0007251974168237629
88 -0.0010030337175852562 0.0007698690038820198 0.0002646597613717213
89 0.0004982151365557288 8.451504832964383e-05 -0.0003170817255291156
15 -0.000858644787968442 -0.001001553871058016 -0.0003009384224317316
91 0.0009425448274672074 0.0004598265427257545 -0.00040426117753527375
17 0.00071855661992423 0.0001976669309532406 0.00010957044293057486
99 -0.0009861828691529661 2.8545714781220325e-05 -0.0010962067851617808
98 -0.0008554315099486726 -0.0019262935331923554 -0.00040765765924570557
14 -0.000467114748094468 0.0010291788515105725 0.0002552839909940203
13 0.000309579347114649 -0.001962293807143796 0.00017849247052750748
12 -0.0010829846139375344 -0.0001907615175417585 -0.0005631045024299993
97 -0.00031671170463469327 0.00015165630871715764 0.0004399183930922169
11 0.00018356055108918423 0.00047166451867566595 0.0005712811110025266
9 0.0006890754879694216 -0.0006823170167661762 0.0004696836526403208
141 -0.0004570933125903837 0.0014030595813550016 -0.0007621549673408593
142 -0.0012196548954254518 0.00047918093205386443 -0.0005118500759267777
10 -0.001200549213692964 -0.001006078507371092 -0.0002218981330640953
143 7.132105347100278e-05 -0.0010789015397918726 -0.0005449767370387822
144 0.0009273883058723346 0.00012947738803303265 -0.0002642779992519926
145 -0.00018063333850550645 -5.8894888735640015e-05 -0.0006419688785597336
146 0.0009991730567339347 -6.107148502417506e-05 0.0005051767877741269
92 0.00015526958015508777 -0.000263602130048806 -0.0003033902782496012
188 0.0007477237420708692 -0.00045834138166989997 -0.000711179016091559
118 0.001011140785009286 -0.00016760035451502178 0.0009868992839947464
119 -2.9232708887477667e-05 0.0006764671458425065 0.00018039709443317181
186 -0.00016221868772246375 -0.0001928216414744808 7.080803585441977e-05
187 -0.0010096881426851423 0.0013267759702579112 -0.0005484933703850138
49 -0.0005420792326245959 0.0007033580792011148 -0.0001843868302824295
61 -0.00017469123547386603 -0.00022493048759088805 0.0015564383171804501
62 -0.0007158644150622333 0.0015328730496377673 -0.0010745350723532165
48 0.0001390352370682135 -0.0006251477173727085 0.0015216462721356946
63 -0.0005731314876611035 0.0008153792677421694 -0.001039858444698988
52 -0.0011943687680794448 -0.0008696987561377839 0.0008081307685804767
53 0.00037986315218691295 -0.00035328342920948054 0.0001988425737853797
54 -0.0010762168706586151 0.0006020144579997561 0.000738974949264882
46 -0.0007725639448048264 -0.0014229487259157989 -0.002028345279676414
45 0.000488729206160802 -0.0007841898647930734 0.00021211393110648772
47 0.0007576378448386419 0.0004851115567810127 -0.0003392177983910531
66 -0.00191475166810859 0.00037387388733504083 -0.0006881636701660737
65 0.001164611519923671 -0.0008731902998015446 -0.0006682809725736308
64 0.0002903150282990207 -0.00025299403240955164 -0.00021454326861585342
55 -0.0004846138927574911 -0.0004286345218112091 0.0003218087254693753
69 0.0006710390640554436 -0.00015222622863472917 0.0002541508979333797
70 -0.0005533059904755757 -0.0009453400835254633 -0.0002830326639234234
68 -0.0011226441998644367 0.0021769054871196526 0.0001325536888382351
44 -0.0004449232959596162 -0.0018693017572894177 0.0005678661968487589
43 -0.0013471704164135696 -0.0015141914520829414 8.563435922478597e-05
42 -0.0004370156305749157 0.00017621394907448308 0.0005864152622385197
67 0.0005987295756028095 0.0010998629622388913 -0.00032732304790650534
71 1.9092184817740318e-05 -0.00042961185827244264 -0.0018645886321072738
73 -0.00025810823546206435 0.0013123714107563704 -0.001183605991126388
72 0.0009707429272302855 -0.00131354812784856 0.0004745234652741642
41 -0.0002038227024534538 6.288783487350314e-05 -0.00011405249862133076
40 -0.0002375069525788286 -0.0010121419315323168 -0.00048676757198766517
31 -6.178002178337067e-05 0.00017330389890381345 0.0005545288346328579
74 -0.0010089147547844418 -0.0014135153284243892 0.001284657122107074
30 -0.00034943752993384726 0.0009612627261825474 0.000598215270993121
29 0.0018805623163799976 -0.0002590416209007719 0.00011353001548505228
28 -0.0011009879184619782 0.00021823426101817445 0.0002768920873289801
27 -5.660239518879315e-05 -0.001114036024146252 -0.0009088063359852684
26 -0.00022972890195649187 0.00040965628430326777 -0.0011492481725285724
25 0.000332263250884057 0.0009437126856776752 -2.013059334126827e-05
78 2.2309321284362222e-05 0.0001326820357908186 0.0009087940680341405
79 0.00011162955428925109 -0.0021351635071473157 0.0005469799750054172
80 0.0008201644097838471 0.000182160172404587 -0.0002635281651156226
83 -0.0006659971154733767 -0.00047960523552491936 -0.0002925752811672698
81 -0.0020350833455799865 0.0008613604389280451 9.192223461200583e-05
82 0.0004181566051785094 0.0014234611144446953 0.000732741564829317
93 0.0002977562225797772 0.0007493476995163595 6.343302616567396e-05
94 -0.00045092107540747574 -0.0012230040194260057 0.0003158848378961502
95 0.00012452821169096868 0.0005608050677554581 0.0005379965253706386
96 -3.6900500006336704e-05 -0.00033363109462431373 -0.0010471270434036796
60 -0.0002993608909700554 0.0006310913558230869 -0.0003642996654932963
59 0.0012581177703975082 0.0003585352731079147 -0.0004563709491363743
58 -0.00010900730321427427 4.464009102003062e-05 0.0009625290584743596
57 -6.522072778893144e-05 0.00011636610837111382 -0.0008517919622695368
56 -0.0006556215572060401 6.230589278162851e-05 0.0002789620734066924

Bonds

1 1 106 107
2 1 133 134
3 1 132 133
4 1 131 132
5 1 104 105
6 1 105 106
7 1 103 104
8 1 107 108
9 1 108 109
10 1 109 110
11 1 176 177
12 1 177 178
13 1 179 180
14 1 178 179
15 1 168 169
16 1 160 161
17 1 169 170
18 1 159 160
19 1 158 159
20 1 157 158
21 1 180 181
22 1 156 157
23 1 155 156
24 1 181 182
25 1 2 3
26 1 135 136
27 1 136 137
28 1 138 139
29 1 137 138
30 1 139 140
31 1 6 7
32 1 5 6
33 1 4 5
34 1 3 4
35 1 134 135
36 1 102 103
37 1 101 102
38 1 100 101
39 1 7 8
40 1 8 9
41 1 192 193
42 1 193 194
43 1 194 195
44 1 130 131
45 1 129 130
46 1 128 129
47 1 111 112
48 1 110 111
49 1 124 125
50 1 125 126
51 1 127 128
52 1 126 127
53 1 114 115
54 1 113 114
55 1 112 113
56 1 190 191
57 1 189 190
58 1 150 151
59 1 191 192
60 1 149 150
61 1 148 149
62 1 147 148
63 1 123 124
64 1 122 123