LAMMPS data file via write_data, version 29 Aug 2024, timestep = 408000000, units = real

100 atoms
4 atom types
99 bonds
1 bond types
98 angles
1 angle types

-500.6 500.6 xlo xhi
-500.6 500.6 ylo yhi
-500.6 500.6 zlo zhi

Masses

1 329.2
2 305.2
3 345.2
4 306.2

Bond Coeffs # harmonic

1 7.5 5.9

Angle Coeffs # harmonic

1 5 150

Atoms # full

53 1 1 0 -11.726570565512706 435.51444487709165 -174.8022920871076 0 -1 -3
20 1 1 0 -35.897714425693344 443.3010156614168 -172.99403907517967 0 -1 -3
21 1 2 0 -40.605481929240746 443.29900582700844 -169.52754298095346 0 -1 -3
50 1 4 0 -28.299155676693008 437.8516071490849 -173.18684004058377 0 -1 -3
51 1 2 0 -23.28473155106749 436.8545907131782 -176.14697987227666 0 -1 -3
19 1 4 0 -33.608215769126936 446.7184695240134 -176.91751664208016 0 -1 -3
18 1 3 0 -28.383397008812164 449.348453851563 -178.54287979133002 0 -1 -3
17 1 4 0 -22.970121370111674 447.2631719208431 -179.26959166063764 0 -1 -3
16 1 1 0 -18.407575545430397 446.93400252713536 -175.51931925557744 0 -1 -3
49 1 1 0 -28.971263137893775 438.4090788118874 -166.71448271476498 0 -1 -3
52 1 2 0 -17.465020212760944 436.324935550582 -176.8713681123642 0 -1 -3
15 1 3 0 -13.780777018875462 445.603922649079 -171.63265108324507 0 -1 -3
54 1 2 0 -5.706646120604265 435.8979482238988 -174.26934343274453 0 -1 -3
14 1 1 0 -11.823102027563372 442.9150305611115 -166.96265797092227 0 -1 -3
55 1 1 0 -1.0688599315258083 438.7465431091192 -171.62045351638727 0 -1 -3
56 1 4 0 0.8772515574389612 443.7629998808362 -168.45910490325014 0 -1 -3
41 1 3 0 -53.317667161895905 467.0016347754742 -165.62128307790093 0 -1 -3
42 1 4 0 -51.65894977750474 461.4940071707475 -167.61694578983997 0 -1 -3
44 1 3 0 -42.11426221016939 455.9023277542287 -164.9114075320408 0 -1 -3
45 1 2 0 -37.53442795446337 455.5612883100736 -162.2787969545385 0 -1 -3
43 1 4 0 -47.14809338303047 457.9164704742218 -167.6469205490271 0 -1 -3
40 1 1 0 -54.34962351254884 472.81584972733503 -165.2220827021457 0 -1 -3
34 1 1 0 -50.458222122260395 472.4925706293936 -178.24368181506418 0 -1 -3
35 1 2 0 -52.79776323152547 475.60017503039506 -182.83049035375674 0 -1 -3
36 1 1 0 -55.65132948652722 480.91261085966147 -182.58949173295866 0 -1 -3
38 1 3 0 -57.89395040979845 481.6602206112953 -171.61220672158848 0 -1 -3
31 1 1 0 -38.55784578564961 465.1105297021292 -170.3384151529147 0 -1 -3
33 1 3 0 -47.142841826104764 470.0957608006355 -174.36869801623905 0 -1 -3
32 1 4 0 -42.559573434735924 466.7129587399284 -174.3131165307854 0 -1 -3
37 1 4 0 -56.751799477263546 483.09326342080857 -177.2117994246929 0 -1 -3
68 1 4 0 18.56113633371545 423.1281522016948 -161.32861092504396 0 -1 -3
77 1 2 0 18.199573194237118 430.7368320035462 -155.53984250088547 0 -1 -3
78 1 4 0 12.816374352324226 432.4995580242183 -156.32424828660027 0 -1 -3
79 1 4 0 7.58813916086508 433.02062624920194 -154.02045711792073 0 -1 -3
66 1 4 0 12.124295593658976 422.385573488714 -153.12119768352213 0 -1 -3
69 1 4 0 23.052106651138274 422.28412047529036 -165.1194193499566 0 -1 -3
67 1 2 0 14.22241807146206 420.35900769196564 -157.97994149460897 0 -1 -3
70 1 3 0 28.03391390882729 425.0019132505037 -165.93320363575117 0 -1 -3
74 1 1 0 34.9452544316274 429.3989268427073 -155.79584584670735 0 -1 -3
73 1 4 0 38.22116917222269 427.346267579099 -160.30165291188945 0 -1 -3
72 1 4 0 38.6172567020146 426.3264955827638 -165.99886866415403 0 -1 -3
71 1 1 0 33.38248167183554 426.7533737261621 -168.4838626251381 0 -1 -3
22 1 2 0 -43.067078320992906 442.1306065791476 -164.12039848291144 0 -1 -3
23 1 3 0 -43.03092316106515 444.19182001026894 -158.69396368828717 0 -1 -3
24 1 3 0 -44.943960144397806 447.6109363477444 -154.1152018467854 0 -1 -3
47 1 2 0 -33.527402581471186 446.1633451161618 -159.68413956746429 0 -1 -3
48 1 1 0 -31.838610394015884 441.5445314652001 -162.9558970618195 0 -1 -3
11 1 4 0 -13.832975652874282 434.89635169794917 -152.92830812492178 0 -1 -3
12 1 4 0 -14.803011221589808 435.1874031763883 -158.59305547902613 0 -1 -3
13 1 3 0 -13.73202147642782 438.3866409827529 -163.04178896991408 0 -1 -3
81 1 3 0 -1.5587379367572105 439.8422408697299 -155.66133538023638 0 -1 -3
82 1 1 0 -5.169242868150249 444.1503158291877 -157.31147725230238 0 -1 -3
83 1 3 0 -7.327479064660938 448.99466643222746 -155.06105452795725 0 -1 -3
57 1 2 0 5.569747424278216 445.7208827997852 -165.84213044980962 0 -1 -3
80 1 4 0 2.284440348177275 435.53240704604525 -153.8719736555481 0 -1 -3
58 1 1 0 6.268368156007392 447.7455158080245 -160.483864429694 0 -1 -3
59 1 3 0 5.602561809378627 448.47826474303207 -154.82159787854843 0 -1 -3
60 1 1 0 6.306090187410998 445.9044903514009 -149.69593474037993 0 -1 -3
75 1 2 0 29.533695075884058 429.82486024124125 -154.15379202950658 0 -1 -3
76 1 3 0 24.109763298344667 429.67080917549026 -155.57527797001356 0 -1 -3
25 1 2 0 -42.57171459805772 450.7711862600159 -150.0051485188393 0 -1 -3
26 1 3 0 -38.12924719385041 454.40383011226186 -148.5696808226854 0 -1 -3
27 1 1 0 -36.339168642206594 459.7578874783829 -150.70759871202372 0 -1 -3
28 1 1 0 -36.554862735206456 464.83807196121757 -153.90061010975066 0 -1 -3
46 1 3 0 -33.51412797802352 451.9704589558879 -160.99729330427067 0 -1 -3
84 1 4 0 -11.692176273591935 450.37058472159833 -151.15957317719128 0 -1 -3
39 1 2 0 -57.72116174486063 476.2867435490305 -168.72498705859107 0 -1 -3
30 1 1 0 -35.60508428751804 465.46323440396077 -165.14905044287178 0 -1 -3
29 1 2 0 -34.62289349877341 465.9107804084932 -159.40934163023334 0 -1 -3
65 1 3 0 10.101714803939903 422.6899642684162 -147.66809854367625 0 -1 -3
64 1 3 0 7.267407399470171 425.0011282470967 -142.8824903851944 0 -1 -3
63 1 4 0 5.544229846610812 430.41111164985125 -142.13967777779794 0 -1 -3
10 1 3 0 -14.742280781876625 437.0425946788944 -147.4310007233664 0 -1 -3
9 1 4 0 -16.00859970248691 440.91700560908566 -142.94631145663934 0 -1 -3
8 1 2 0 -13.292431224049055 445.44137634259044 -141.01693494948896 0 -1 -3
7 1 2 0 -10.271472078850366 450.5303533523773 -141.70525763685922 0 -1 -3
61 1 1 0 6.670118409695642 440.78139755906005 -146.70819199198934 0 -1 -3
62 1 2 0 4.450333041515777 436.2394515116523 -143.77693371864913 0 -1 -3
85 1 1 0 -15.531211872712396 454.4511625455114 -148.51728249975045 0 -1 -3
86 1 1 0 -17.73595565986065 457.16540221882696 -143.64222746399486 0 -1 -3
87 1 2 0 -16.29706623544046 461.18591188261234 -139.62085567016175 0 -1 -3
6 1 4 0 -5.63846888599964 454.37111939642614 -141.61636169114823 0 -1 -3
88 1 4 0 -13.346746408862908 462.82464395312246 -134.7096241703937 0 -1 -3
5 1 2 0 -2.7800903208568006 459.3328188829087 -140.85055625865087 0 -1 -3
4 1 1 0 -0.1399635052761206 464.2386335974118 -138.51552173707466 0 -1 -3
3 1 4 0 1.8217399921968818 469.0396349755871 -141.80916912362753 0 -1 -3
2 1 1 0 6.760283147553431 470.1395645615887 -144.58459725150675 0 -1 -3
1 1 3 0 12.823250217960517 470.61654754760787 -144.83818367093568 0 -1 -3
89 1 1 0 -10.73299437741783 461.8443044164328 -129.48888885480375 0 -1 -3
90 1 4 0 -7.182791510341456 458.1797427909678 -126.31141519654282 0 -1 -3
91 1 3 0 -5.3494789004577985 459.39222123698056 -120.62236872886581 0 -1 -3
92 1 3 0 -3.6957771093927736 464.27606870963115 -118.19007649636895 0 -1 -3
93 1 1 0 0.22405831429835946 468.3781066817139 -116.7649827258442 0 -1 -3
94 1 4 0 0.9002709533224502 473.14559647201077 -114.04761435738101 0 -1 -3
95 1 3 0 2.651644651956006 478.7490949261954 -114.76719237617095 0 -1 -3
96 1 3 0 7.378654525106879 481.3598576383656 -117.15906868972861 0 -1 -3
97 1 4 0 13.255957217381571 481.79468469752834 -117.4161315124433 0 -1 -3
98 1 2 0 18.813728851361038 479.9649668420584 -116.14030901090081 0 -1 -3
99 1 2 0 24.621768165308378 479.53588668863785 -118.03661220455487 0 -1 -3
100 1 4 0 28.491782907777523 475.32680926629524 -119.56442300426974 0 -1 -3

Velocities

53 0.000738412567307286 0.00017175074208639196 -0.00035531783696439445
20 -0.00048110231154983505 -6.10912224163258e-05 0.0011897856135605178
21 0.0007159420997964984 -0.001022883462155677 -6.4414397742432e-05
50 -0.00040937624438712347 0.0005888283564330617 -0.00035837858981381553
51 -1.4533636397180741e-05 0.0012730213235149705 0.00019092878568854101
19 -0.0006031237071533522 0.001615543015882219 -0.00013414434310844516
18 0.0011136825185138245 -0.0005580517717119027 -0.0015528208780315744
17 -0.00038752776700494207 -0.00118503104745923 0.0006360066489784752
16 -0.0007686772151351892 -0.00026612962261127085 0.0003646005297543981
49 0.0008292997872439146 -0.0004251398596018425 0.0002376968927381861
52 -0.0006063625721252341 0.00017784770424542304 0.0013401825666070248
15 0.00031462458668869665 0.0007842918907833649 0.00023270478923439252
54 0.0009347776257586702 0.00041021031257759027 -0.001318190549491701
14 -8.204103658308804e-05 -6.132338708375567e-05 0.0009761626156433123
55 0.00016978200647309275 -0.00025812054252888307 -0.0012480101855934461
56 2.7618838851186463e-05 -9.671656318724063e-05 0.0011621678995093652
41 0.00023188589758560668 0.0009351345549355037 0.000526855558534916
42 -0.0005314603155882857 1.5325464874221755e-05 -0.0007356809985740778
44 -0.0011627079850824128 7.440974932886042e-05 0.001358651070007122
45 -0.0016167223748226867 -0.0007562440393948378 0.0016023240231701284
43 -0.0008105876658867577 0.0020099012652719287 -0.0003152893001519395
40 -0.00016628407233312473 4.879402725378655e-05 0.0023643923167525247
34 0.0001562169013570585 0.0006144340168115285 -0.0015218780979778855
35 0.0011831947322687604 -0.0004355311788041491 -0.00047563068882274266
36 0.0008406969519397318 -0.00017160378100087624 -0.0013986590161520515
38 -0.00038895738076832263 3.770539896486495e-05 -0.0012358922093117697
31 0.0005096090516387609 -0.0006826059213337505 -0.00040020341183482337
33 4.6815625035620115e-05 0.00030499033729279135 0.0007893775132412279
32 -0.0017203846833618577 -0.00037844284638969617 -0.0015916904779466913
37 0.0006104054159003353 -0.00029395184374987344 0.0006645077619753594
68 0.000602718731640181 -0.0018279870277138907 0.0003147801067769644
77 0.0014106753158685261 -0.0009866954140493897 0.0011273973274039143
78 -0.0005174421996664438 -0.0008950690503716445 -0.0020909012651628466
79 0.00017023418292926555 -0.0015509464828583333 0.00011006117444343205
66 -0.00018732028512608443 -0.0006735979362581446 -0.0010454269243837812
69 0.0017821491253352726 0.0006866386614226673 -0.0004938204351981472
67 0.00025272837710131726 0.0015104731135184876 0.00028032873230321296
70 -0.0016031351348077154 0.001026351627290336 0.00035087177829113087
74 0.0011893594734822353 -6.376721705793108e-05 0.00018496770379063682
73 0.000504869175166424 -0.0009054622752467112 0.0015462080821496847
72 0.00018690721687752274 2.1950069701907218e-05 -0.0013483432692194075
71 -0.0015600965851044245 0.0005321185229683042 -0.001942440955187647
22 -0.0022357373588750163 0.001870953568551299 -0.0012001714865725402
23 9.310232070804692e-05 -0.00013667208984551477 0.00131007331137779
24 0.00036541171081948997 0.0003620809053116077 -5.774498239017194e-05
47 0.0018222991995641385 0.0001541945184689079 0.0015773236151853326
48 0.0014064236560942126 0.00033952082701079215 0.000819730720893279
11 -5.007314545451961e-05 0.002726639082414136 0.0005280053534680143
12 -0.0004449555461426008 0.0013621197727482451 -0.0005039085979765236
13 -0.00047481870309470833 0.00039623502068086635 0.0009982254885500493
81 -0.0003481572671763339 0.0010477736332963725 -0.00016699471120405
82 0.0006414787417913308 -0.001154399466668409 0.0006357538054801599
83 -0.001523653322985675 -0.0010548372036312567 -0.00046863982551961797
57 -0.0017761121136235696 -0.0008063829687285412 -0.0004095732899775061
80 0.0012999677052258373 1.9840372315869202e-05 -0.0003602506119598972
58 -5.354793477256319e-06 -0.00037701754316018973 0.0008141756827604057
59 -0.0003289007449072571 0.0007270901704490188 0.0012231087957291764
60 0.0005650402049684936 -0.0007337977676824398 0.0005463277425099709
75 -0.0004366464505543739 -0.0010450441574198 0.0002562854494156491
76 -0.00013800438527688229 0.0015317971417304502 0.00021038375692689502
25 0.00148363448528475 0.0004950527656090723 0.0005286501995875915
26 -0.0017789945992299399 -0.00043424451562331127 0.0012917484524331703
27 -4.822195824633191e-05 -0.001244863374289953 -0.00029389002200556365
28 0.0010350183336936536 -3.43146630696755e-05 0.0010494600825434815
46 0.0002773424238078334 0.00040256470960520555 -0.0016262143504421327
84 -0.0002558521106243543 0.0008094950685820676 -2.6409064561905827e-05
39 -0.00028401515053685505 -0.0024089968962544175 -0.0003788353929551562
30 0.0003839472743508513 -0.0019637790617227343 -0.0005201330534505658
29 -0.001142144477696199 1.973894764945201e-05 -0.0004161782668527418
65 0.00032527128388284634 0.0006515782584694124 -0.001031551776073886
64 -0.0002292882909262754 0.0002113895416658046 -0.00044333385048533306
63 -0.0009422682117946809 0.0003074133943981645 0.0009996636247063906
10 -0.00041601724765229925 -4.705810445180848e-06 -0.0005240537814970254
9 0.00013224894328315337 -0.0017526312310724881 0.0002714233013809841
8 -0.0003208762116925633 -0.001094921026688552 -0.00013005657371938534
7 -0.00028559872271188185 0.00014537480557560604 0.0012610791118704066
61 0.00015569336987910428 3.691265157502984e-05 0.000235119829192674
62 0.0010376130095546615 -0.0005588708789092692 0.0008204372387363206
85 -0.0013205885677728623 0.00023259537287378856 0.0005101300602795551
86 -0.0007100519073348691 0.0009706827791388379 -0.002139852806134235
87 -0.001199143144036734 0.0003160697252757711 -0.00010293723685627423
6 -0.0005934112312753574 0.0003834414708941293 -4.5343905639133574e-05
88 -0.0005799336962178672 1.9047102632827617e-05 -0.0007233681674438297
5 0.0005416357643533632 -0.001453431311521386 -0.0010303135347747116
4 -0.0001976615405633793 0.0008406796991834027 0.00042527127524370095
3 -0.00035349192774078713 0.0005790986232038977 0.0004824184859224442
2 0.00026957684197005417 -0.0007513620777479852 0.0004564724613875854
1 -0.0007390541484808701 0.0015268917087485265 -0.00020514995407573954
89 -0.0005255205622077448 -0.001291866705058759 0.0012225463689777335
90 -0.0001254882569935427 -2.0693549110295445e-05 -0.00047182058737415275
91 -0.0002980749719501696 -0.00014372783073679084 0.0013969248696177406
92 -0.00021000536574927565 0.00011136497495662536 -0.0015341060973738186
93 -1.204145865409294e-05 -4.047181810801785e-05 0.0006461748321404615
94 -0.0006426989435556193 7.09897183792147e-06 -0.0010093041921855259
95 0.0008974836013823129 -0.0016244515837120805 0.0014264092670143037
96 0.0004907409854341432 -0.00013097193079632092 -0.0003781595030877404
97 -0.0005669121625433558 -3.713748767615805e-05 0.00023808128379554223
98 0.0002594691082508188 -0.0007601294295469961 -0.0008799781652443473
99 -9.60867280495972e-06 0.0014043282956207352 -9.494735068334393e-05
100 -0.0006147815880753251 0.00022649081954942272 -0.0008165929666173542

Bonds

1 1 53 54
2 1 20 21
3 1 21 22
4 1 50 51
5 1 51 52
6 1 19 20
7 1 18 19
8 1 17 18
9 1 16 17
10 1 49 50
11 1 52 53
12 1 15 16
13 1 54 55
14 1 14 15
15 1 55 56
16 1 56 57
17 1 41 42
18 1 42 43
19 1 44 45
20 1 45 46
21 1 43 44
22 1 40 41
23 1 34 35
24 1 35 36
25 1 36 37
26 1 38 39
27 1 31 32
28 1 33 34
29 1 32 33
30 1 37 38
31 1 68 69
32 1 77 78
33 1 78 79
34 1 79 80
35 1 66 67
36 1 69 70
37 1 67 68
38 1 70 71
39 1 74 75
40 1 73 74
41 1 72 73
42 1 71 72
43 1 22 23
44 1 23 24
45 1 24 25
46 1 47 48
47 1 48 49
48 1 11 12
49 1 12 13
50 1 13 14
51 1 81 82
52 1 82 83
53 1 83 84
54 1 57 58
55 1 80 81
56 1 58 59
57 1 59 60
58 1 60 61
59 1 75 76
60 1 76 77
61 1 25 26
62 1 26 27
63 1 27 28
64 1 28 29
65 1 46 47
66 1 84 85
67 1 39 40
68 1 30 31
69 1 29 30
70 1 65 66
71 1 64 65
72 1 63 64
73 1 10 11
74 1 9 10
75 1 8 9
76 1 7 8
77 1 61 62
78 1 62 63
79 1 85 86
80 1 86 87
81 1 87 88
82 1 6 7
83 1 88 89
84 1 5 6
85 1 4 5
86 1 3 4
87 1 2 3
88 1 1 2
89 1 89 90
90 1 90 91
91 1 91 92
92 1 92 93
93 1 93 94
94 1 94 95
95 1 95 96
96 1 96 97
97 1 97 98
98 1 98 99
99 1 99 100

Angles

1 1 52 53 54
2 1 19 20 21
3 1 20 21 22
4 1 49 50 51
5 1 50 51 52
6 1 18 19 20
7 1 17 18 19
8 1 16 17 18
9 1 15 16 17
10 1 48 49 50
11 1 51 52 53
12 1 14 15 16
13 1 53 54 55
14 1 13 14 15
15 1 54 55 56
16 1 55 56 57
17 1 40 41 42
18 1 41 42 43
19 1 43 44 45
20 1 44 45 46
21 1 42 43 44
22 1 39 40 41
23 1 33 34 35
24 1 34 35 36
25 1 35 36 37
26 1 37 38 39
27 1 30 31 32
28 1 32 33 34
29 1 31 32 33
30 1 36 37 38
31 1 67 68 69
32 1 76 77 78
33 1 77 78 79
34 1 78 79 80
35 1 65 66 67
36 1 68 69 70
37 1 66 67 68
38 1 69 70 71
39 1 73 74 75
40 1 72 73 74
41 1 71 72 73
42 1 70 71 72
43 1 21 22 23
44 1 22 23 24
45 1 23 24 25
46 1 46 47 48
47 1 47 48 49
48 1 10 11 12
49 1 11 12 13
50 1 12 13 14
51 1 80 81 82
52 1 81 82 83
53 1 82 83 84
54 1 56 57 58
55 1 79 80 81
56 1 57 58 59
57 1 58 59 60
58 1 59 60 61
59 1 74 75 76
60 1 75 76 77
61 1 24 25 26
62 1 25 26 27
63 1 26 27 28
64 1 27 28 29
65 1 45 46 47
66 1 83 84 85
67 1 38 39 40
68 1 29 30 31
69 1 28 29 30
70 1 64 65 66
71 1 63 64 65
72 1 62 63 64
73 1 9 10 11
74 1 8 9 10
75 1 7 8 9
76 1 6 7 8
77 1 60 61 62
78 1 61 62 63
79 1 84 85 86
80 1 85 86 87
81 1 86 87 88
82 1 5 6 7
83 1 87 88 89
84 1 4 5 6
85 1 3 4 5
86 1 2 3 4
87 1 1 2 3
88 1 88 89 90
89 1 89 90 91
90 1 90 91 92
91 1 91 92 93
92 1 92 93 94
93 1 93 94 95
94 1 94 95 96
95 1 95 96 97
96 1 96 97 98
97 1 97 98 99
98 1 98 99 100
