LAMMPS data file via write_data, version 29 Aug 2024, timestep = 408000000, units = real

200 atoms
4 atom types
199 bonds
1 bond types
198 angles
1 angle types

-1000.6 1000.6 xlo xhi
-1000.6 1000.6 ylo yhi
-1800.6 1000.6 zlo zhi

Masses

1 329.2
2 305.2
3 345.2
4 306.2

Bond Coeffs # harmonic

1 7.5 5.9

Angle Coeffs # harmonic

1 5 150

Atoms # full

132 1 4 0 806.4878894886085 -922.0623689707497 -1050.9170166820322 -1 0 0
135 1 1 0 803.2942845596954 -934.6081603219794 -1047.7786853921355 -1 0 0
134 1 3 0 808.3308339620863 -931.2240379694767 -1047.7318298036216 -1 0 0
133 1 2 0 810.3746110163355 -926.4738062173469 -1050.0680729954206 -1 0 0
140 1 4 0 811.509610313492 -920.3357458748316 -1040.2117777583987 -1 0 0
130 1 4 0 800.452422992635 -916.8815304484319 -1043.0265879068922 -1 0 0
129 1 1 0 801.0061196922632 -911.194447313231 -1040.7993529789526 -1 0 0
131 1 4 0 802.2908857295103 -919.7023253648279 -1047.8627297279425 -1 0 0
142 1 4 0 815.9423532275133 -910.7132335480054 -1044.5315656919083 -1 0 0
141 1 2 0 814.2061089324277 -915.0839191292251 -1040.7173851267228 -1 0 0
143 1 3 0 817.5426507944973 -905.4314513105255 -1043.9484820100358 -1 0 0
144 1 2 0 819.5804354555463 -900.4750220953453 -1040.7495983951308 -1 0 0
120 1 1 0 834.6852617509599 -902.1560866407409 -1042.9153637174477 -1 0 0
113 1 4 0 812.1841368673114 -886.4261807030547 -1037.3417662334114 -1 0 0
114 1 3 0 813.9462293056724 -888.4299152222382 -1042.2866325092957 -1 0 0
115 1 4 0 817.484397941317 -888.2588454931619 -1046.86668666263 -1 0 0
117 1 3 0 825.5683115422875 -894.890167763736 -1052.095405724864 -1 0 0
116 1 1 0 821.372450561817 -890.9702370453049 -1050.4500212816295 -1 0 0
148 1 2 0 827.0479204546806 -883.9336020114646 -1042.8130697510126 -1 0 0
118 1 4 0 830.941380519075 -895.5747108209267 -1050.3427722407853 -1 0 0
145 1 1 0 824.4092241190089 -897.9214937036157 -1038.4519698149088 -1 0 0
147 1 3 0 829.8908413156877 -888.4039313485443 -1040.8783711788215 -1 0 0
119 1 4 0 833.768193437547 -900.340465820203 -1048.2001789250742 -1 0 0
151 1 4 0 814.8109577903172 -873.0279203677198 -1041.0956078334941 -1 0 0
150 1 2 0 817.3742255671042 -877.8286980999166 -1043.1926856934117 -1 0 0
149 1 3 0 822.8321440166811 -880.5260263666875 -1043.8282802250374 -1 0 0
89 1 1 0 766.8898607490246 -815.1841549252206 -1032.203955315903 -1 0 0
91 1 2 0 775.1873962413212 -815.3180659021622 -1038.8616812351302 -1 0 0
92 1 3 0 780.9258111417657 -815.3262710282013 -1037.0238056180651 -1 0 0
90 1 3 0 769.5395426613031 -816.102816255518 -1037.166680994705 -1 0 0
73 1 3 0 744.2739041140111 -782.2944620603241 -1040.9216412269107 -1 0 0
46 1 4 0 756.7675058448834 -791.5911343442563 -1040.949091935984 -1 0 0
45 1 2 0 761.2402003359231 -790.6615023735499 -1044.5170726485644 -1 0 0
80 1 1 0 775.6926622759482 -792.0487114669378 -1037.3689527881254 -1 0 0
44 1 2 0 764.3499166432275 -787.243457140556 -1048.3761670731915 -1 0 0
43 1 3 0 768.5773942107216 -783.5346285221182 -1048.6900730139016 -1 0 0
74 1 3 0 749.7095507815811 -780.0662827435294 -1042.3085929082656 -1 0 0
75 1 1 0 755.15956629879 -778.9785458568979 -1040.636839020395 -1 0 0
76 1 3 0 758.5768390091964 -777.742939926905 -1035.9305416078794 -1 0 0
41 1 2 0 778.026951133189 -779.380158499007 -1044.4141083381446 -1 0 0
42 1 2 0 773.2089311146755 -780.2736455325022 -1047.7022626807473 -1 0 0
40 1 1 0 781.4503374318131 -778.8523383265797 -1039.647628500833 -1 0 0
137 1 4 0 803.0897376483794 -933.6439880576272 -1037.3903848775003 -1 0 0
136 1 1 0 801.6182955204056 -935.9601573021176 -1042.343400153262 -1 0 0
138 1 3 0 805.312057246638 -928.1603151077092 -1037.124180583802 -1 0 0
139 1 1 0 810.1249800281176 -925.2551865650705 -1038.0120244353843 -1 0 0
128 1 3 0 804.3982418121917 -907.9327824165485 -1037.5054842803331 -1 0 0
127 1 1 0 809.8993134734869 -906.919602958109 -1035.6105025645747 -1 0 0
125 1 2 0 819.5656060086267 -903.1802063842417 -1030.6807318601666 -1 0 0
126 1 3 0 814.3808522177368 -903.7688675562333 -1033.1202294895136 -1 0 0
122 1 1 0 830.6243383836954 -910.8070070465924 -1035.977512892278 -1 0 0
123 1 1 0 826.3282210307297 -910.0961196009881 -1032.177960727421 -1 0 0
124 1 3 0 823.7431461372317 -906.1978165261618 -1028.7959212088474 -1 0 0
121 1 1 0 833.6655272677249 -906.2355304028748 -1038.459001314427 -1 0 0
112 1 3 0 810.8528120794713 -883.2902402158074 -1032.4556210527087 -1 0 0
146 1 4 0 828.8553364112876 -893.7105615368663 -1039.0615020891305 -1 0 0
111 1 1 0 813.7891109235991 -881.1891253034527 -1028.102049133286 -1 0 0
154 1 3 0 811.207297589686 -871.4207830520603 -1026.8301558280289 -1 0 0
153 1 3 0 809.1345435672013 -872.2238056415001 -1032.519653335754 -1 0 0
152 1 4 0 809.775191340079 -872.5094582649516 -1038.0265832092539 -1 0 0
110 1 2 0 818.6238594217053 -879.1311730079361 -1025.359766437804 -1 0 0
109 1 4 0 823.7858995215231 -876.6676864547408 -1027.2010795120582 -1 0 0
108 1 2 0 824.0177636973542 -872.7733536164048 -1031.4325171749988 -1 0 0
102 1 3 0 798.9992291156007 -855.2582824812592 -1026.635579564367 -1 0 0
101 1 2 0 794.2453048242708 -852.3350116293238 -1026.1376399739715 -1 0 0
103 1 2 0 803.8125955381664 -858.60868319528 -1028.9378310782856 -1 0 0
104 1 2 0 808.3036685534126 -858.8130905277213 -1032.0487862787897 -1 0 0
105 1 2 0 813.5965429071184 -860.2231676720274 -1034.184521805234 -1 0 0
107 1 4 0 821.1633312129691 -868.4793755598449 -1034.916693043731 -1 0 0
106 1 2 0 818.9012624908615 -862.8586814189008 -1034.6444429893043 -1 0 0
167 1 2 0 782.1035506196348 -837.4892786179668 -1026.32184712945 -1 0 0
168 1 2 0 783.3204657334744 -835.7124404914058 -1020.814074671412 -1 0 0
166 1 4 0 784.8309128498073 -841.4593613052891 -1029.7188488000213 -1 0 0
165 1 4 0 790.1884199346233 -842.5817980757364 -1032.0597290326841 -1 0 0
164 1 3 0 794.4565436649709 -845.4418102844943 -1034.8521749485806 -1 0 0
100 1 2 0 790.9540396785867 -849.8244127287012 -1021.9605152320947 -1 0 0
163 1 2 0 799.6310033207106 -847.8608902586685 -1035.0400962640588 -1 0 0
162 1 2 0 805.7224956784959 -847.1168995732163 -1034.8851477195767 -1 0 0
161 1 3 0 809.8013339637813 -845.3723573585261 -1030.9920847711958 -1 0 0
25 1 3 0 766.3545859105104 -826.2732818126829 -1022.1271527291683 -1 0 0
26 1 3 0 770.8094428241351 -823.1731260583381 -1023.864284535475 -1 0 0
27 1 3 0 774.8830639832702 -819.1946278383261 -1022.4465438464478 -1 0 0
93 1 2 0 784.1848477275971 -817.0654221900124 -1032.659682227624 -1 0 0
94 1 1 0 785.3935580086727 -821.3104185126633 -1028.895960693963 -1 0 0
95 1 3 0 788.9326590881373 -825.9027025914127 -1028.7084066343489 -1 0 0
88 1 3 0 765.5115777154427 -811.5246515626343 -1028.1470446864114 -1 0 0
87 1 4 0 767.2883374926939 -809.7057272477359 -1022.9234342223233 -1 0 0
86 1 1 0 770.4470175927653 -804.9152294433941 -1020.8788132758096 -1 0 0
31 1 4 0 775.4861731456623 -805.887505478513 -1035.6284665796015 -1 0 0
28 1 2 0 779.5538333114317 -815.6583524178761 -1023.4450352887852 -1 0 0
29 1 3 0 780.2185222342641 -810.7143063606552 -1026.8107937600214 -1 0 0
30 1 2 0 778.2955099038481 -807.2414834641045 -1030.8341010473478 -1 0 0
70 1 1 0 740.4097883023287 -789.6960476012202 -1029.2744316684539 -1 0 0
69 1 3 0 739.4789460718438 -786.056060136345 -1024.0658967477978 -1 0 0
72 1 2 0 740.6922948009906 -786.2938087928251 -1038.666034818903 -1 0 0
71 1 1 0 738.1534214751317 -789.4851906714075 -1034.5443724987251 -1 0 0
47 1 4 0 753.602822081001 -791.6385040767696 -1035.7767249340172 -1 0 0
48 1 1 0 752.723975748748 -788.4278612329682 -1030.8443792735347 -1 0 0
34 1 1 0 766.2504405218623 -796.3333033611426 -1026.6341781596886 -1 0 0
49 1 4 0 751.9160530374897 -783.2507818586506 -1028.8855466115463 -1 0 0
35 1 1 0 768.7149745917866 -791.8869937851356 -1024.3085755340137 -1 0 0
32 1 4 0 770.1185826735954 -804.0038770226295 -1034.5030930610692 -1 0 0
33 1 3 0 766.8630998571813 -799.5772368196139 -1031.8426609974465 -1 0 0
79 1 2 0 772.0533839864037 -787.4393689323664 -1036.4694713687343 -1 0 0
84 1 4 0 778.9964950873829 -798.1458113247476 -1021.8855513818962 -1 0 0
36 1 2 0 773.2577209443666 -788.2949530098608 -1023.4575355631389 -1 0 0
81 1 1 0 780.9154228581868 -794.0223018117605 -1036.3928024812362 -1 0 0
82 1 3 0 783.0945622951646 -794.3734347744967 -1031.0829232116464 -1 0 0
83 1 4 0 782.2438386421226 -795.0503898180374 -1025.6896795500284 -1 0 0
54 1 1 0 728.1011607705949 -780.5183040389223 -1030.3688784418387 -1 0 0
55 1 2 0 727.1763223071152 -784.3570297344048 -1025.9390690547618 -1 0 0
53 1 4 0 733.0217353491295 -777.7932086668918 -1031.4761049269123 -1 0 0
50 1 2 0 749.6661344952444 -777.9476529360822 -1028.9370427609608 -1 0 0
52 1 4 0 738.5487164670112 -775.5328209106374 -1032.5069661000568 -1 0 0
51 1 3 0 744.3694287177346 -775.4957669601423 -1030.5760677099033 -1 0 0
78 1 3 0 768.1075194288155 -783.2524972242123 -1035.162754348864 -1 0 0
77 1 1 0 764.163085811214 -778.7133870285062 -1035.1748620256128 -1 0 0
37 1 2 0 777.1573720276193 -783.9590155435744 -1024.3000451413143 -1 0 0
38 1 2 0 780.3551605955865 -781.176718595521 -1028.3791603674963 -1 0 0
39 1 2 0 781.5659213586002 -780.7811047770077 -1034.2189930719956 -1 0 0
196 1 1 0 769.0095436420125 -878.5949734075874 -1009.0303622308822 -1 0 0
197 1 2 0 773.812141146003 -877.2259547006526 -1012.4843452901237 -1 0 0
198 1 1 0 776.5873696074808 -874.3167541621108 -1016.7347688893597 -1 0 0
155 1 4 0 814.1566499500071 -867.0542357010019 -1024.0062761157772 -1 0 0
200 1 1 0 773.476966262029 -866.79300114735 -1024.5251698052025 -1 0 0
199 1 1 0 776.2974960587253 -871.6957559895855 -1021.9750769876587 -1 0 0
156 1 3 0 815.7206356421116 -863.4425654503561 -1019.7681593364487 -1 0 0
157 1 1 0 812.4034748861249 -860.5693622015017 -1016.2318807349263 -1 0 0
158 1 2 0 809.3025931927705 -855.7194964437098 -1017.2832695495027 -1 0 0
22 1 1 0 763.8271779015555 -841.5674979096515 -1016.485626608325 -1 0 0
21 1 1 0 763.5902353572493 -843.6163338725963 -1010.5508408134414 -1 0 0
20 1 4 0 765.4704184541862 -843.0299924046083 -1005.1129640723254 -1 0 0
169 1 1 0 780.6788543090684 -833.4538973107204 -1015.794556808431 -1 0 0
99 1 1 0 791.813257106408 -844.533372815112 -1018.6038401290566 -1 0 0
98 1 3 0 793.3911988144627 -838.8352945367936 -1019.2806070350289 -1 0 0
160 1 1 0 810.77533867678 -847.7468030712095 -1025.506210988581 -1 0 0
159 1 3 0 809.1157781368944 -851.3361432678049 -1021.147049778335 -1 0 0
24 1 3 0 765.802739685401 -832.0741781374486 -1021.8508747231859 -1 0 0
23 1 2 0 764.4600664695491 -837.5670275482903 -1020.5520983138476 -1 0 0
172 1 1 0 765.4299247620378 -830.7147574915814 -1010.7273142849295 -1 0 0
173 1 4 0 760.8504752419794 -830.9918216591198 -1006.9959403670728 -1 0 0
170 1 2 0 776.6162250160472 -829.7350851201309 -1013.5201904951554 -1 0 0
171 1 3 0 770.7479656565441 -828.1920018709467 -1012.5333713768048 -1 0 0
96 1 2 0 792.637469864872 -830.1313285742156 -1026.3611698587665 -1 0 0
97 1 1 0 793.0434754758056 -833.641291729908 -1021.6451399304558 -1 0 0
85 1 2 0 774.1099204489767 -800.5543778191583 -1020.1172964779579 -1 0 0
68 1 2 0 736.367126520421 -781.9907060222369 -1021.6770629430328 -1 0 0
56 1 1 0 726.9212241682923 -786.0535450797407 -1020.6128269398718 -1 0 0
57 1 3 0 724.8428890516808 -785.1970232589184 -1015.217392113688 -1 0 0
58 1 3 0 725.4435602963036 -785.6619165075845 -1009.5895033650748 -1 0 0
67 1 3 0 735.995518921602 -777.7770358484914 -1017.6061278221908 -1 0 0
66 1 4 0 735.1350007464534 -772.1446570185648 -1015.3446212175218 -1 0 0
65 1 2 0 738.5708541994468 -770.2970069845131 -1010.6518522772366 -1 0 0
64 1 4 0 739.1753883761455 -768.6863470231758 -1004.7694732560337 -1 0 0
63 1 1 0 737.6480461868308 -767.0430370725906 -999.4446511544276 -1 0 0
194 1 2 0 762.9923522235435 -875.0832175077794 -999.9307283934592 -1 0 0
195 1 1 0 764.5338835015871 -877.8792664167681 -1004.8694098265721 -1 0 0
190 1 3 0 749.493372199929 -859.9083797262891 -995.9444281656896 -1 0 0
189 1 4 0 745.5463630864052 -860.878591642122 -991.58985025504 -1 0 0
191 1 2 0 755.0301752922082 -861.4445651034955 -995.3635386478414 -1 0 0
192 1 1 0 758.648800347418 -865.861904486892 -994.3054327677579 -1 0 0
193 1 1 0 761.4703109682157 -870.799132090405 -996.5383526011445 -1 0 0
8 1 3 0 746.3094596159754 -835.54396001555 -990.8991316704048 -1 0 0
9 1 1 0 743.9637988954047 -830.1343664895957 -991.3955115099025 -1 0 0
7 1 3 0 750.7148421090859 -839.6773154742699 -990.9471707885017 -1 0 0
6 1 2 0 755.6662750258114 -842.2959953887886 -989.5331603921821 -1 0 0
5 1 4 0 760.4528530679477 -839.4117544003193 -988.2091846910894 -1 0 0
19 1 4 0 766.9767931995087 -840.0637110433596 -1000.2343028654673 -1 0 0
10 1 3 0 744.708193446252 -824.46503260549 -990.9685376578802 -1 0 0
11 1 1 0 746.65834687388 -822.0254541863143 -996.2645296326538 -1 0 0
176 1 2 0 757.3700073556738 -827.5144119860173 -991.4419440844131 -1 0 0
12 1 2 0 750.2163378328119 -818.8869958133417 -999.7669384252005 -1 0 0
175 1 2 0 756.4963504698721 -828.5117961582578 -997.080492629866 -1 0 0
174 1 3 0 758.26261559175 -830.0142255984033 -1002.3653027729356 -1 0 0
13 1 2 0 756.1000445610149 -818.9782384792841 -1000.9116431358829 -1 0 0
18 1 3 0 769.382552199889 -835.8146424230837 -997.9338234012321 -1 0 0
17 1 4 0 771.3905337584798 -830.3937690279124 -998.1283397753962 -1 0 0
16 1 3 0 768.991834865788 -825.0909776250996 -997.3537465456411 -1 0 0
15 1 4 0 765.6334868031238 -820.765697519466 -995.3211988646791 -1 0 0
14 1 2 0 760.1852247666973 -817.9100603872816 -996.8883450791639 -1 0 0
59 1 3 0 726.2607837086076 -782.9117925082342 -1004.3171955093794 -1 0 0
60 1 1 0 727.2018303997252 -778.7837593809787 -999.8527003217446 -1 0 0
61 1 1 0 730.1950259311511 -774.6595006792036 -996.8736250678672 -1 0 0
62 1 1 0 733.4772313970847 -770.0044834691801 -996.6967111682675 -1 0 0
186 1 1 0 741.3553091300561 -865.77219307702 -979.2084675301097 -1 0 0
188 1 3 0 742.1593214812583 -865.1013583666899 -989.236460493481 -1 0 0
187 1 1 0 740.3109118713386 -867.3243170754517 -984.5517644865386 -1 0 0
185 1 4 0 742.980424892968 -861.6375300002209 -975.4115850018878 -1 0 0
184 1 1 0 741.6456270601419 -856.3090290303168 -973.3007174060998 -1 0 0
183 1 1 0 740.5367620111915 -850.3872816101064 -974.0959311403716 -1 0 0
180 1 4 0 745.9398411553706 -835.2093994816312 -975.101336777029 -1 0 0
182 1 4 0 740.8771021746259 -844.9279296357099 -972.4624571664776 -1 0 0
181 1 2 0 742.4721617335356 -839.2204955723568 -972.8224406689112 -1 0 0
177 1 2 0 755.9679717149374 -827.8929836204953 -985.9220836451624 -1 0 0
4 1 1 0 763.858053412332 -834.7791799770933 -989.9111606900143 -1 0 0
179 1 4 0 750.4525593867323 -835.4797861131995 -978.3487860729126 -1 0 0
178 1 1 0 754.2302657469596 -832.6150800753383 -982.3227861950446 -1 0 0
3 1 3 0 766.7533760400653 -830.1826519607491 -987.6918583757868 -1 0 0
2 1 3 0 767.7875006410505 -826.1415637323005 -983.2501912519824 -1 0 0
1 1 2 0 768.1743164662909 -820.1748681142399 -983.4370864412132 -1 0 0

Velocities

132 -0.0006826965552167169 0.0007520006603554775 0.0016497249034363609
135 0.0004485905915467774 0.0009932507405340557 -7.758592207328727e-05
134 0.0007601301939736207 -0.00042404391596085104 -0.0013461587825743116
133 -0.00021768723162311478 0.00017343052259038083 -0.00034048713246678705
140 0.0005526814291637905 0.0003258917269185058 -4.602551765405977e-05
130 0.0013575592138774792 0.0005670973556781728 -0.0005388147858193553
129 -0.0004620184255160754 0.0003014284508801425 -0.0006073295007444658
131 0.0010706667427898395 -0.0018487427042987608 -0.001179606667426748
142 -0.00022950056854246888 0.00027247576589933006 -0.002013274049246403
141 0.0018631833244638974 -0.00010680599879162406 0.001074470868303546
143 -0.0005808817513289002 -0.00019338846466302067 0.00010122971711648986
144 6.43000451701177e-05 -0.00012288475938664558 0.0001516702462909149
120 -0.0015066294022490826 0.0001959263828095473 -0.0018760922498379069
113 0.001087174441307547 0.0006376512525696564 -0.0001954052360236315
114 -0.0006147250423613074 -0.0005854153532211738 -0.0005016230787147434
115 -0.0026538886571005637 0.0006676596342839815 -0.0013988577246866513
117 -0.0012912148457707164 -0.0006927604235226767 -0.00022786935183339487
116 0.0026700695038925455 -0.00022719408426925163 0.00014221665236796937
148 -0.001367391206748059 0.0006114750063924903 0.0012468931542228448
118 0.0005639749994931887 -0.001160492903558247 -5.917623839721843e-05
145 0.0014368814327724232 -0.0005485592107837362 0.00012576111394573228
147 -0.0009165662803109667 0.0004926033750610851 -0.00125069272137876
119 0.0003430507966448515 -0.0004772340389897493 6.082289023617409e-06
151 0.0006518762743182525 -0.0005519990753367319 -0.00038188781575632954
150 -0.001491626660253822 0.00010319092979717921 -0.0014381922594382777
149 -0.0009150180010682999 0.0011044046008379393 -0.0004138346252645128
89 -0.0015786258307628127 0.00029365725408250266 -0.00010481943912452476
91 0.0005456521980637754 -0.00045684005289222475 0.0010402829496359252
92 0.0003771219138324307 -0.0001058757431791377 0.0006563160467782666
90 0.0009668986184038137 0.0008018468683068685 0.000877087984383002
73 -0.0003248579818441377 -0.00018644310820243944 -0.00017366394961953105
46 0.0004821880813957334 0.0003415916003860905 -0.00013518141797535746
45 0.0016572906261822099 0.0005253307941398047 -0.0002889944999801564
80 0.0008360623449856782 0.0008318019607783265 -7.147857929410186e-05
44 -0.0013414724360464017 -0.00030308839931607215 -0.00016552591384529403
43 -0.00024742691291790064 0.002862930662712748 -0.0010432863469112643
74 0.0002914125149398521 -0.00011197903275287593 0.0001868943555127626
75 -0.00045288145725039475 -0.00025398108647701806 -0.00032743416146325464
76 -0.00048385860415034443 -0.000679874144990916 -0.0009756647623018865
41 0.0005786178068623248 -0.0012915480116633855 -0.0003125752533070539
42 -9.922071385951439e-05 0.0006228346868532347 0.00014411939679434224
40 0.00022976520726677096 -5.038780960351669e-05 -0.000796484821912067
137 0.0010556285110295326 -0.00020948179064143502 0.0007935150781154468
136 -0.0007248715137746099 -0.001250231932180919 -0.002187294767204931
138 0.002552470330526066 0.0007341768898242052 -0.0009788345475773234
139 0.0007342477030709011 0.0010897010461266763 -0.0003775527815001689
128 0.0004165199485709312 -0.001488018991836843 -0.0002472467455446376
127 -0.0019661631676681944 0.00014332347926557118 -0.00011256145032717606
125 0.0005431329845132037 -0.0012950304332916885 -8.683566939525943e-06
126 -0.0004202998056136529 0.0005858795517801941 -0.0010057234279664427
122 0.0007191401510391606 -0.0007803187357610184 0.00013846782144298977
123 -0.0016823259321877588 -0.0004055673551555305 0.0020114767919022386
124 0.002049921765664157 0.0012933168516893712 6.391404253712815e-06
121 -4.315854767002102e-05 -0.0007233278981814113 0.00028654085624675026
112 0.0012994481331378282 -0.0007554692879263449 -0.00022041278320679574
146 0.0009116694053826786 -0.0013878707485352026 -7.256854705270347e-05
111 -0.0005074747947459313 0.00046794962933542254 0.0016690850839631182
154 0.0013855626386324977 0.0013438059433145892 -0.0012131914372687758
153 -0.0009619978295083722 -8.833505233343324e-05 0.0005888491809212163
152 -0.0004866377168830561 -0.001025499617146671 -0.000476077825813143
110 -0.0007609464885913725 0.00023096800013540947 0.0009818588528663
109 0.0006283289575553392 0.0008840197582186732 0.0014121684120955269
108 -0.0001682756300775581 0.0005909041618836677 -0.00021542517568035985
102 0.00032059128414767274 -0.0008038328838260992 0.0004307754442736177
101 -0.0005321299759645973 0.0005103117052004039 -0.00011009466972274725
103 -0.00031796959650279755 -0.00015534577242690416 -0.0007439245792396888
104 -0.00014024573970727492 0.00022992620873893012 -0.001088944534284667
105 -0.0021939661320694677 -0.0012031316532342446 0.00110797111419813
107 0.00029692281799564857 0.0004179563155183222 -0.0012921680948746533
106 0.0001127132587680204 0.0014147257656434052 -0.0005204517469182562
167 0.0018112242909107503 -0.001431865959849135 -0.00032821530325681666
168 -0.0007491415343253343 -0.0008253627922113808 0.0012870902885167765
166 -0.0006885954777977285 -0.003050075160524705 -1.438247304173414e-05
165 -0.0012276800569098322 0.00020767527113740937 -0.00020432621081736276
164 -0.0002767848869827097 -0.001199787228995024 -0.0010932675467428144
100 -0.0005964875696906276 0.0005181407329378383 0.0006483002450204218
163 8.752087878658501e-05 0.00014786565917689732 0.0004829955615594025
162 -0.0013146883114907588 0.0009982418842820265 -0.00036165423586469804
161 0.0006017430089120765 -0.0002882613848640806 1.941182546560733e-06
25 -0.0007552591496615173 0.0002035163675327394 -0.00030994540527419403
26 0.000521493148356044 -0.00073781482264976 0.0008289161487863468
27 -0.0005305061347948407 -0.001135844958812816 -0.00033324274897777057
93 0.0003344027286399079 0.0004096408236469975 -3.583881362795742e-05
94 -0.0005212327038817638 0.0004912345184203806 0.0010470911412371782
95 0.00023153469452809442 -0.00021447748638433683 -0.001162189198885735
88 0.0009105942208996948 0.0007925286234690858 0.0015827207595709198
87 0.00036214093643969445 -0.00024468229074611634 0.0007308706862396397
86 -0.0007645593704239986 0.00026295244837484674 -0.0015069526388644726
31 -0.0011650519567136934 0.0010684462986586018 0.0012269544001919
28 0.0009230361172145198 -0.0010054059947089576 -0.0013422247275510476
29 3.6887204617496694e-05 -0.0006796023311868958 0.0006106522386464099
30 0.0012251327621351068 0.001455439451193535 9.990215428757637e-05
70 0.0007770964680428605 0.002431842332097844 0.0003493796896754847
69 -0.0002511250529382121 0.0010723776039140193 -0.0006751081620232587
72 2.5732981635333092e-05 -0.0004974507100838517 0.0011081208944540512
71 2.8359739981816373e-05 0.0005113041232988864 0.0004743924318765506
47 -0.0005597368301345105 -0.0005912570504783547 -0.0011108635799144519
48 -0.0021010235589682923 0.0007649918506797557 0.0008629151329968098
34 -0.003375375414619202 0.0006501214414385854 -5.106410783601326e-05
49 0.001544579782874417 0.0006834703198258236 -0.0006833339511460308
35 0.0009423357070508627 -0.0001229255374136109 0.0008731817660297888
32 -0.002252576210135646 0.0012712238016158838 -0.0005666481758412868
33 -0.0010622252678657465 0.0003741017739768855 0.0013458422236696393
79 -0.0014335649391657218 0.00022833862279957512 -9.30789588561922e-05
84 0.0009113160781838199 -0.0002949663664532316 0.0011102373724476836
36 0.001788357529499776 -0.0009376957518639387 -0.0002377987248576337
81 -0.0017089809892547095 0.00021774283332075912 -0.0009526978033247521
82 0.0007984114093769482 0.0007222473869479903 0.0017460244742702445
83 -0.00069438155124834 0.0009110890762169826 -0.0010396026075521756
54 0.0003996152638103392 -0.0008864213676353557 0.0004457293447120784
55 -4.903605961538409e-05 -0.000897127322591643 -0.0005581643974870511
53 -0.00109879350318889 0.001981591541407651 0.001026009354051836
50 0.00023622508625275516 0.0008904378705397999 0.00011421351238339807
52 -1.0338527051283998e-05 -0.001045317140087481 -0.0009923659185144124
51 0.00044460901252514563 0.0005363541406866384 0.0016964268145069773
78 0.0004687449014199386 -0.0008909360912769625 0.00010849241974158347
77 -0.0001652410950386541 0.00012359601090229362 0.0007970423868872418
37 -0.001066665335332079 -0.001265403729285966 0.000554385662153704
38 0.0008125492790641494 -0.0004411046030132518 -0.0007039512557108273
39 0.0008028724033944151 0.0006831665286119292 -0.0009267919912901335
196 -0.00046907642527801844 -0.0005965252263791491 7.685904081815439e-05
197 0.0007541045023870121 1.5671929033528628e-05 -6.526465866065799e-06
198 -0.0008718623335168578 -0.0004881025113293554 -0.0014681595969138447
155 -7.547105931208004e-05 -0.0002939032205839715 -0.0007793926046622335
200 -0.0014372655635788072 -0.001034163779941135 -3.6359761200901155e-05
199 -0.00015176397627671693 -0.0004882581089935048 -0.0004948192988912818
156 -0.0012575214002727131 0.00047511562482661874 0.0007819075891288597
157 -0.000256093515131661 0.001743426575698854 0.0004058721723311357
158 0.00026529366547671914 3.0315735384037813e-06 -0.0009925168453864517
22 0.0011137402325985728 0.00039976170107003004 -0.0008895622336184988
21 0.0007385121787460138 -0.0003149707505361784 0.0022422051750985842
20 0.0006278740438373435 0.0008378387662603886 -0.0006924230957294597
169 3.127906063413443e-05 0.00083955506202686 0.00042029865107820285
99 -0.00010232627284519457 0.0013923312288303706 -0.00047864589700544956
98 0.0017249271932720293 0.0005341751843782499 -0.0005052456853387776
160 0.00018086725877041243 0.0021842084112523195 0.00010086511654754965
159 0.0018538318893009322 -0.0010666996652174926 0.00019657224321642234
24 0.0005500880261218686 -0.00026500414221200156 0.0006917851363685831
23 0.0018056863000532597 -0.0005032232471003734 -0.0013074368200988555
172 -0.001462127296418841 7.297252083955479e-05 0.0011717259168055403
173 -0.0006778285172898279 0.00011977368683405158 -0.0014593672892961231
170 3.910003710676874e-05 -0.0003310141462607956 0.00036033662745835367
171 1.735199792890992e-05 0.0007998710772356487 0.0012066496022273944
96 0.0007277421954003221 0.001373044319688468 0.0018670903779805961
97 0.000624757638597998 -0.0006358563202528823 -0.00036813684480890797
85 -0.00024206266502826263 -0.0008684640338653025 0.001913994404237704
68 8.48439352104122e-06 0.000286825993418204 0.0004180693280004525
56 0.000528243090140144 -2.9349942753803785e-05 -0.0015489775044887093
57 0.0008848585709406213 0.0006278396042920598 0.0009456736940428636
58 0.001863459673636517 -0.0005224433362004707 0.0004064389287131313
67 -0.0011381916567321894 -0.00012851614568545487 -0.00022112327818356518
66 0.0010981881999685315 -3.9193160457701815e-05 2.9663687439601617e-06
65 -0.0014949915907904465 4.1590093824610915e-05 0.000746515345984946
64 0.0003082436389606377 -0.001258520752992151 -0.00019800511541936768
63 -0.0020156135083124233 -0.0010690530968514359 -0.00010572653528299277
194 -0.000902209249227578 -0.0016561594363078106 0.0012308673306913255
195 -0.0011908543259189204 -0.00046179113106409173 0.0007850008669924285
190 0.0004618935459976513 -0.0005591083271216283 -0.0002695502040312455
189 0.00030567657857411413 -9.455125908216913e-05 -0.00027511505039701174
191 9.185336639703911e-05 -0.001048771524096404 0.00038369823623373014
192 6.131618355516116e-05 0.001648562500719883 -0.0004567380618562159
193 1.6985780188015403e-05 -0.0020917786140133457 -0.001955795576088204
8 -0.0010036567332795613 0.0007806602221146376 -0.00016947286685946878
9 -0.0003248250208235023 -0.0002504658659618865 -0.00041176997725437246
7 -0.0005009778934991432 0.0001549832874330441 0.000343479971027536
6 -0.0009788529374159724 -0.0012045351076606558 0.00010237049241335661
5 -0.00021217808864050906 0.0007416585028458416 0.0014955397809188126
19 -0.0004237060852627487 -0.0002723963504805797 0.0007722813772168801
10 0.000699103005846283 0.0013470518668531348 -0.00016105850027721698
11 -0.00028054006188464825 0.0007374658329986764 0.0011226349130257665
176 -0.0004729269921332139 0.0004031353203955473 0.0006177920156925393
12 0.0006814382001150991 -0.00034358484102231437 -0.0006925852108276891
175 -0.0013073642109563165 -0.0013777346327287136 0.0001306609397525046
174 -0.0013150858364385798 0.00019182000975263914 0.0011298865201384636
13 -0.000476529546564144 0.00035172092976019627 0.0002918183288731816
18 -0.001079630063744347 0.0011892595703854258 -0.0004885708749856461
17 -0.0003536751239421753 0.0005342283751153632 -1.6965643663061176e-05
16 1.9148734924630728e-05 -0.00030330984281176307 -0.0004927698350446284
15 -0.0008025452965603412 -0.0017881456001092987 -0.001067244487822617
14 0.0002477077619076715 0.0003447077028010852 0.0010101433154258847
59 -0.0007617996188306917 0.0013986758619634308 -5.97544195516927e-05
60 -0.0003988818826275378 -0.0009506757084369762 -0.0002940294026727255
61 -0.0003153656126264741 -0.0006704455657992905 0.0011518975066758998
62 0.000260060687786103 -0.001795283369193944 0.0002442054528216276
186 -0.0008008896353071205 -0.0002629597277636605 -0.0016134340571022602
188 0.00046732763146379403 -0.00021108201081073327 0.0011079968120991752
187 -2.915937109518614e-05 -0.00015747125130639576 -0.0009797301407649796
185 0.000590412593186102 -0.00023403744973735235 0.00018129763514129616
184 0.0006487438595004849 -0.0009514344288133983 0.0008202913405780269
183 0.00045129718794320074 -0.0003321401896114269 0.00039975466351458317
180 -0.00028327293333399163 0.000532793215085004 -0.0016569566170916883
182 0.0005215988874340419 -0.0007879704257233176 -0.00020619443375065574
181 0.0005322168201332304 -0.0015657129126834949 0.0022454732341510076
177 0.000780847649702108 -0.000180804023542042 -0.0005128856260681922
4 0.0006374805425319905 -0.0005234340144075295 0.00027256082813909986
179 -0.000349430953197144 0.00039703595077570633 -0.0013011876387597893
178 -0.0007617800639012774 0.0010658050513616805 0.0006125002417964755
3 0.000916926818868344 4.15294242520024e-05 -8.270827791771066e-05
2 -0.00038199934439670755 -0.00040183765385937154 -0.0008404842169883115
1 -0.0006640415694157328 -0.0006187602575748284 -0.0005259103376535317

Bonds

1 1 132 133
2 1 135 136
3 1 134 135
4 1 133 134
5 1 140 141
6 1 130 131
7 1 129 130
8 1 131 132
9 1 142 143
10 1 141 142
11 1 143 144
12 1 144 145
13 1 120 121
14 1 113 114
15 1 114 115
16 1 115 116
17 1 117 118
18 1 116 117
19 1 148 149
20 1 118 119
21 1 145 146
22 1 147 148
23 1 119 120
24 1 151 152
25 1 150 151
26 1 149 150
27 1 89 90
28 1 91 92
29 1 92 93
30 1 90 91
31 1 73 74
32 1 46 47
33 1 45 46
34 1 80 81
35 1 44 45
36 1 43 44
37 1 74 75
38 1 75 76
39 1 76 77
40 1 41 42
41 1 42 43
42 1 40 41
43 1 137 138
44 1 136 137
45 1 138 139
46 1 139 140
47 1 128 129
48 1 127 128
49 1 125 126
50 1 126 127
51 1 122 123
52 1 123 124
53 1 124 125
54 1 121 122
55 1 112 113
56 1 146 147
57 1 111 112
58 1 154 155
59 1 153 154
60 1 152 153
61 1 110 111
62 1 109 110
63 1 108 109
64 1 102 103
65 1 101 102
66 1 103 104