LAMMPS data file via write_data, version 29 Aug 2024, timestep = 408000000, units = real

100 atoms
4 atom types
99 bonds
1 bond types
98 angles
1 angle types

-500.6 500.6 xlo xhi
-500.6 500.6 ylo yhi
-500.6 500.6 zlo zhi

Masses

1 329.2
2 305.2
3 345.2
4 306.2

Bond Coeffs # harmonic

1 7.5 5.9

Angle Coeffs # harmonic

1 5 150

Atoms # full

100 1 2 0 -94.64479765416357 454.2421339153554 -288.41777802496 0 -1 -3
99 1 2 0 -97.63069820766746 451.8260278244057 -284.1600348812902 0 -1 -3
97 1 1 0 -100.38982640990774 451.8985281716445 -273.10446941491745 0 -1 -3
96 1 4 0 -101.60328517703176 447.9480128613672 -268.98447759273625 0 -1 -3
98 1 1 0 -98.50808915614529 452.39320566078777 -278.4133962403976 0 -1 -3
1 1 4 0 -69.84341791299553 401.9464158135918 -260.52410666639946 0 -1 -3
3 1 4 0 -78.00624911367306 407.8787794322594 -265.07953271432604 0 -1 -3
2 1 3 0 -72.71115914942352 405.7959375031561 -263.9887233428806 0 -1 -3
4 1 1 0 -81.18557786466349 412.71928863744847 -264.3282503308912 0 -1 -3
8 1 1 0 -87.34255508596502 432.0727651616292 -265.9461629931143 0 -1 -3
6 1 4 0 -80.58373208672931 424.62323978734145 -264.17383994002876 0 -1 -3
7 1 4 0 -82.25981241375584 429.38056418407297 -266.43919644166067 0 -1 -3
5 1 1 0 -81.05372042699211 419.02942980096213 -263.95014609354615 0 -1 -3
95 1 4 0 -104.44577990896634 447.98963130726827 -263.9162262714414 0 -1 -3
94 1 2 0 -104.11044503952388 447.3838774246651 -258.18527195881876 0 -1 -3
9 1 2 0 -90.32516539076391 436.3418492287566 -262.64884921760364 0 -1 -3
11 1 2 0 -91.47486787369286 448.2644195405111 -262.2086952302373 0 -1 -3
10 1 1 0 -89.99475052516912 442.37215789241037 -263.06610563849017 0 -1 -3
92 1 3 0 -97.49503000365223 449.81859529817484 -249.77034090379738 0 -1 -3
93 1 3 0 -101.34728681321491 446.83730032490024 -252.9586371029778 0 -1 -3
12 1 2 0 -94.63212508116536 453.47889703011754 -262.9650210434832 0 -1 -3
13 1 2 0 -97.54335993191619 458.0083580136711 -260.9831570232959 0 -1 -3
15 1 2 0 -106.46744364272811 459.4238521424367 -254.0281196184776 0 -1 -3
14 1 4 0 -102.46507766272306 459.4601899690119 -258.2131978206118 0 -1 -3
91 1 2 0 -93.14902595675674 453.36824365161675 -247.66722084532267 0 -1 -3
16 1 2 0 -108.41230643969531 457.8425409871885 -248.49102096274603 0 -1 -3
17 1 1 0 -106.50759446073225 455.6043513348987 -243.52514687643702 0 -1 -3
18 1 1 0 -103.51113443842597 455.87616486467516 -238.56782905280699 0 -1 -3
90 1 1 0 -91.94781129458615 453.74686522799135 -242.24109609887765 0 -1 -3
88 1 4 0 -86.52031828861634 459.7384737382034 -234.14158162475178 0 -1 -3
89 1 2 0 -87.755398555116 456.07419402874797 -238.8539278784342 0 -1 -3
87 1 4 0 -86.11790227459406 464.6614489420656 -231.31672125908202 0 -1 -3
86 1 4 0 -90.82191155348411 468.34722838311774 -230.25074438640965 0 -1 -3
60 1 1 0 -62.332621744910796 447.26901975276877 -225.00399979685375 0 -1 -3
61 1 3 0 -64.18617564589682 449.3436448442895 -220.2745606424128 0 -1 -3
58 1 2 0 -54.16833236141033 448.0240767597037 -232.78261492559284 0 -1 -3
59 1 2 0 -59.691299366384904 447.32667548893056 -230.37026616597146 0 -1 -3
36 1 3 0 -50.80820523335606 445.5519898719234 -219.37149955340186 0 -1 -3
38 1 2 0 -41.90739840543182 441.65665562694466 -223.14456619514016 0 -1 -3
37 1 3 0 -47.56416825497816 441.4052988849164 -222.00728340264558 0 -1 -3
57 1 4 0 -48.172211755491766 449.35755595533493 -232.38447024030404 0 -1 -3
56 1 4 0 -43.52554239898408 451.71893406530086 -229.87369298287464 0 -1 -3
55 1 2 0 -39.94179119025719 452.28226411456507 -224.85722931158065 0 -1 -3
39 1 1 0 -36.87947333818976 442.9125008870313 -220.54505474179314 0 -1 -3
80 1 1 0 -108.33787641516352 462.7568019886406 -218.6420431562588 0 -1 -3
79 1 1 0 -103.996689699222 463.7800213386042 -214.2133346724013 0 -1 -3
81 1 4 0 -108.4056367886405 463.7661896677923 -224.24175381892786 0 -1 -3
19 1 1 0 -99.39269439452029 454.9696243695303 -234.48670263554297 0 -1 -3
20 1 1 0 -97.85091780150371 456.70939593989203 -228.81021292545427 0 -1 -3
21 1 4 0 -97.48483461959259 460.7544805386819 -224.65864244084722 0 -1 -3
74 1 3 0 -80.73959735996294 462.65979680016005 -220.12672702197065 0 -1 -3
73 1 1 0 -79.04862725614616 467.9174400494635 -221.73147129418433 0 -1 -3
75 1 4 0 -82.81613296781806 458.81180445963275 -216.0047128713341 0 -1 -3
35 1 3 0 -52.73512795949841 451.11232444680434 -219.4443296462743 0 -1 -3
33 1 4 0 -54.331390778973415 462.7566556992646 -218.86610232838956 0 -1 -3
34 1 2 0 -52.92281637558004 456.6899696185668 -218.84784089864485 0 -1 -3
54 1 3 0 -38.687704964471926 454.3295522426968 -219.2500152077125 0 -1 -3
82 1 2 0 -107.9005714184489 467.90223421114626 -228.85661330115553 0 -1 -3
83 1 3 0 -105.74295594606849 472.9083029842128 -230.14217723020826 0 -1 -3
85 1 1 0 -94.69035243094116 472.50758753226245 -231.59563080202145 0 -1 -3
22 1 2 0 -98.37051235075535 466.1766959344445 -222.4297759005276 0 -1 -3
84 1 2 0 -99.7804560128134 474.6531663207062 -229.75132673148204 0 -1 -3
23 1 2 0 -95.45819742186322 470.43781033441786 -219.0695720484827 0 -1 -3
72 1 4 0 -76.69877725502559 473.2549560046318 -222.1160817491084 0 -1 -3
71 1 1 0 -74.13136262496269 477.38722383813734 -218.68985929398212 0 -1 -3
70 1 4 0 -71.41679213601722 480.5638614838827 -214.6547809064285 0 -1 -3
51 1 2 0 -47.48889576258518 446.257166529657 -207.6538634935345 0 -1 -3
52 1 4 0 -43.09819053202027 448.80986917202944 -209.9543976089159 0 -1 -3
50 1 4 0 -49.75418569898965 447.39827632301353 -202.2490998054779 0 -1 -3
40 1 4 0 -33.30847984879215 441.93492586208436 -215.73305769110686 0 -1 -3
41 1 1 0 -30.09896591306354 444.69123907707205 -211.51492795736263 0 -1 -3
78 1 1 0 -98.8119207004754 460.501778265879 -214.01379211178522 0 -1 -3
76 1 1 0 -87.78370318134425 458.3494667618348 -212.8281274599635 0 -1 -3
77 1 3 0 -93.69779615374547 459.41927293402006 -211.51791630979852 0 -1 -3
29 1 1 0 -73.27933877412725 465.25996315041624 -211.37764363299644 0 -1 -3
30 1 3 0 -68.95553777967288 467.67923994370324 -214.05519751741187 0 -1 -3
28 1 2 0 -77.61073011961987 464.6303202226756 -206.96525918549796 0 -1 -3
27 1 2 0 -82.8834968798169 465.1425035335578 -204.7574922853903 0 -1 -3
62 1 3 0 -63.53979750332517 452.91476077296613 -215.71084854542167 0 -1 -3
32 1 1 0 -58.60972409790346 466.55207204279196 -217.1713559982147 0 -1 -3
63 1 2 0 -61.405571550706426 455.7898475289272 -210.76126170773634 0 -1 -3
66 1 2 0 -60.97231530202987 469.61989226801734 -203.001144204046 0 -1 -3
64 1 1 0 -58.4865955459929 460.5929079168754 -208.3351808742052 0 -1 -3
65 1 2 0 -60.29749094894443 464.2364495485136 -203.85650639441639 0 -1 -3
53 1 3 0 -40.8947340565741 452.44383899146624 -214.05321502737175 0 -1 -3
42 1 4 0 -31.20512386591866 447.6281859803059 -206.2666499036132 0 -1 -3
43 1 3 0 -33.28750020927706 446.9757182179505 -200.53685530029966 0 -1 -3
24 1 4 0 -93.8574471041093 472.83385544280196 -213.74720819097988 0 -1 -3
25 1 4 0 -91.23269106172557 470.9075446622557 -208.7325690474428 0 -1 -3
26 1 2 0 -88.25506473084161 466.3422061617172 -205.91335814935604 0 -1 -3
31 1 3 0 -63.434610844445004 469.40481238169446 -214.48713346570602 0 -1 -3
69 1 3 0 -67.8874847503709 481.90304139267215 -209.9393325745965 0 -1 -3
68 1 4 0 -63.356632804274945 478.9026778300685 -207.67552845394286 0 -1 -3
67 1 2 0 -63.44973336721482 474.9074420574926 -203.80279858403387 0 -1 -3
49 1 3 0 -49.583374717465205 446.3382184189282 -196.56896456356046 0 -1 -3
48 1 1 0 -45.15275824862425 446.3385942851483 -192.90154059299968 0 -1 -3
47 1 1 0 -42.27581954128799 449.9667680313883 -189.32194797592143 0 -1 -3
45 1 1 0 -32.48189906463704 452.5781508205595 -191.03304441953372 0 -1 -3
46 1 1 0 -37.375603526263845 453.1291138408873 -187.69164696675142 0 -1 -3
44 1 4 0 -33.34195553855137 450.89967463056513 -196.5023330429038 0 -1 -3

Velocities

100 -0.0001158960226873232 -0.0007691650783663265 0.0014545373405007215
99 -0.00011713446339502096 -0.0003293253182604572 0.0007974730966650427
97 7.880984094945131e-05 -0.0001257844581782243 -0.0003139930395662865
96 0.0014378826936261172 0.00042675550575471406 4.011415916904405e-05
98 -7.334089504055633e-05 0.00029241982341630024 0.0014275306501258008
1 -0.00030020348123501264 -0.00016865298010573633 0.0005834950537306962
3 -7.664496488260194e-05 -0.0002365762836217277 -0.0024843491610154417
2 -2.2889493472125905e-05 0.0007196003360863738 -9.1501656029836e-05
4 -0.00012705708776061992 -0.0007049358100068317 -0.0013961255086987537
8 -0.0015797629697931594 -6.341795014420602e-05 -0.0013312071079432009
6 8.123832693555965e-05 -0.00014544162326400468 -0.0004225460958345235
7 0.0004076095962171469 -0.0001657083204692913 -0.0008107506366838807
5 0.0003261479124055633 0.0002503771771280798 -0.0004622465892587461
95 0.0001252477943314623 -0.0010235213174056503 -0.0006360250639076007
94 -0.0004002574317082339 -0.0010328479943270217 -0.0009058458633221171
9 0.0010512999540989994 0.00027082456112146745 -4.948082639926115e-05
11 0.000405688709837131 0.0002282607939016182 0.0009348629761096752
10 0.0019333034839951687 0.0011829779709562132 -0.0011852577182411548
92 0.00010015450503022568 0.0013315789637342091 0.0011125218754605595
93 -0.0006556253455278772 -2.884050960705494e-06 0.0003609159518519308
12 -0.0008317804015757593 0.0008577543516544796 0.00010901223385791432
13 0.00029671542047992336 0.0010359464719084397 -1.0570908157665581e-07
15 0.0007981445747319648 0.0014788450657970253 -0.0015883261524850887
14 2.506648571189394e-06 -0.0011277222642812393 -1.1359706624512937e-05
91 -0.00029758402462188725 -0.0005857112795160678 0.0002311424836428218
16 -0.0002418396142423585 -0.0021365746539547385 0.0021523855033452315
17 -0.0003913195043532876 -0.0015448524827423986 -0.0017296661583351871
18 0.0005638335619565193 0.00039434600540655173 0.001372129468029664
90 -0.0003077093536755715 -0.0012143398717832784 -0.0017515452617748511
88 -0.0007194580462168384 0.0003311649667600036 -0.00018831965014118383
89 0.00027320343820910867 -0.0011987002842194453 0.0007889974120724317
87 -0.0002351030556902095 0.0015832619480947313 0.0012360420035476987
86 -0.0008065242950441702 -0.00045858329808783755 0.0018050422368422058
60 -0.00020150636109016976 5.8661264255564594e-05 0.0005030773887296429
61 0.0007170393951833433 0.0006855118281011244 -0.0003587066899437096
58 5.554191050551279e-05 1.7028680114471435e-05 0.0023433866406588626
59 0.001519244928278446 0.0007028278441185762 -0.0002903443736420317
36 0.0010195165785414264 0.0004943897058419829 0.00098835378518045
38 0.0003659933688508578 0.0003575257962690711 0.0022370470303388857
37 5.564694160858249e-05 0.00014973688572728883 0.0005455981174982155
57 -0.0003819707080633817 0.00044076337967773705 0.00021575087049258506
56 -0.0002170779827871501 0.0011250098143015172 0.0015144064969058017
55 -0.0011202991924303218 0.00024619319558415615 -0.00030889511798864257
39 0.00020620269691319605 0.00035380622448808895 -0.0012872751787707845
80 0.0007672495645888405 5.116404576830469e-05 -0.0011820965535286633
79 -1.5706417040409956e-07 0.0001172569331191398 -0.0005509122941985807
81 -0.00143007475515399 7.642206969166012e-05 -0.0004149763984053448
19 -0.0001448875881730457 -0.0006803800917384485 0.00048379846103782214
20 -0.00119990673129837 0.0004969731953332826 -0.000518421038398366
21 -0.0008800149281502759 -0.0007661903249404163 0.0008252940382057424
74 -0.0006021359063506493 -0.0005344128099269376 0.0018288606115864905
73 0.0017644261955876348 -3.4605838469835356e-05 -0.00032862328312822844
75 0.0014506959765009425 0.0014643913358604295 -0.00027007972383970004
35 -0.0018795870400169815 -0.00013999624122872816 7.996380317463056e-05
33 0.0010071248600507096 -0.0009429229519137703 0.0005455926100469445
34 1.4607988827659446e-05 0.00025595661911482896 0.0008366129493954203
54 0.0007364863575458552 0.0006737285628532219 -0.0009074646119025663
82 -9.47085493571303e-05 0.00022342513801668887 0.0011255131908943056
83 -0.0008100319205533798 -0.001725128371898776 -0.0006617748121243621
85 0.001027290999633458 -0.00017493072099389025 -0.0007750865220967178
22 -0.0014280410720956202 -0.0009695776163847729 0.00020713555808068827
84 0.0013037428758096831 0.00013605629979751102 -0.001147982085231517
23 0.00027511239498327703 -0.00024466849197284844 0.00029660529084150867
72 0.0011290272239399496 0.0013367377329254143 0.001032905343842159
71 -0.001461239636014473 1.799479608316538e-05 0.0002943331045086245
70 -0.0009451266449069676 -0.0005332951646323728 3.678771539755196e-05
51 -0.0007016582574725999 0.00015726994542345732 -1.2544338183551196e-05
52 -0.0005108359637809254 -0.00016354764867057556 0.0006610803474820354
50 0.00020409910605311525 0.0012563294127530462 -0.0006503582832300832
40 0.001527933981073986 0.0005559074973335404 0.0002485147494473156
41 -0.00028082838117434865 -0.0016538784936072969 -0.001247711020223176
78 -0.0004830585034630638 -0.00041046626067954697 0.0011776931430066283
76 9.58403059296875e-05 -0.0003510705673140286 -0.0010930510066511948
77 -0.001828152440615858 0.0016194704447480138 -0.0003931460676504396
29 -4.7632909605133606e-05 1.6375598249876543e-05 0.000929105666389429
30 0.0004918537328006945 0.0003073824982796129 -0.00022032269408267207
28 -0.0007729341452406851 0.0006675949710895904 0.00048147934640343246
27 -0.00044267557656289363 -0.001218322304248274 0.001180428550577903
62 0.0006458058827159441 0.000492022333549542 -0.0014621090906843002
32 0.0011354708651051457 0.0006824895110104372 -5.437903574618357e-05
63 -0.00015228317859719434 0.0006804636575162933 1.7932992686501145e-06
66 -0.0005057217408535111 -0.0015126843551217012 -0.0007543421208568321
64 -0.0017640798240960887 -0.0004900195030308297 -0.0005757570465109506
65 0.0009937958724594825 -0.0009696089460377904 2.0018345698400065e-05
53 -0.0016659689663203624 -0.0004230166884692816 -0.0005088721620362024
42 -3.505435970937708e-05 -0.000582576693419925 -0.000515099177438812
43 0.0008913029009844991 -0.0005782503680571906 2.0581762527805948e-05
24 -0.0018662155354050717 0.0005846207685182188 0.0009095768784063185
25 -0.0009320326641986997 0.00022602934784321776 -6.136548185611717e-06
26 0.0008973594854585819 0.001977931351658706 0.0006330432892480475
31 -0.0006253255406555846 0.0006048023723225208 -0.00023201624079047836
69 -0.0014773875729483378 -0.0011875850416351752 -0.001746033878515532
68 -0.0008765254875792105 0.0009430965029947837 -0.0002965446289192249
67 -6.469185638813842e-05 -0.0006276456431716698 0.0008807000739366546
49 0.0012949366166484788 0.00012884042350451042 -0.000630752873505233
48 -0.0015709141951303117 -0.0005101810886137421 -0.000498257613845139
47 -0.0001566899099273391 0.0006654897606927756 0.0012673895993595915
45 -0.0004924259427474528 -0.0005207818284959542 0.0007752718516710839
46 -0.0002746881818536065 -0.0005442836040468794 0.0002619002486514157
44 0.00045875084040394995 -0.0008605686805560223 -0.0005456670781670427

Bonds

1 1 99 100
2 1 97 98
3 1 96 97
4 1 98 99
5 1 1 2
6 1 3 4
7 1 2 3
8 1 4 5
9 1 8 9
10 1 6 7
11 1 7 8
12 1 5 6
13 1 95 96
14 1 94 95
15 1 9 10
16 1 11 12
17 1 10 11
18 1 92 93
19 1 93 94
20 1 12 13
21 1 13 14
22 1 15 16
23 1 14 15
24 1 91 92
25 1 16 17
26 1 17 18
27 1 18 19
28 1 90 91
29 1 88 89
30 1 89 90
31 1 87 88
32 1 86 87
33 1 60 61
34 1 61 62
35 1 58 59
36 1 59 60
37 1 36 37
38 1 38 39
39 1 37 38
40 1 57 58
41 1 56 57
42 1 55 56
43 1 39 40
44 1 80 81
45 1 79 80
46 1 81 82
47 1 19 20
48 1 20 21
49 1 21 22
50 1 74 75
51 1 73 74
52 1 75 76
53 1 35 36
54 1 33 34
55 1 34 35
56 1 54 55
57 1 82 83
58 1 83 84
59 1 85 86
60 1 22 23
61 1 84 85
62 1 23 24
63 1 72 73
64 1 71 72
65 1 70 71
66 1 51 52
67 1 52 53
68 1 50 51
69 1 40 41
70 1 41 42
71 1 78 79
72 1 76 77
73 1 77 78
74 1 29 30
75 1 30 31
76 1 28 29
77 1 27 28
78 1 62 63
79 1 32 33
80 1 63 64
81 1 66 67
82 1 64 65
83 1 65 66
84 1 53 54
85 1 42 43
86 1 43 44
87 1 24 25
88 1 25 26
89 1 26 27
90 1 31 32
91 1 69 70
92 1 68 69
93 1 67 68
94 1 49 50
95 1 48 49
96 1 47 48
97 1 45 46
98 1 46 47
99 1 44 45

Angles

1 1 98 99 100
2 1 96 97 98
3 1 95 96 97
4 1 97 98 99
5 1 2 3 4
6 1 1 2 3
7 1 3 4 5
8 1 7 8 9
9 1 5 6 7
10 1 6 7 8
11 1 4 5 6
12 1 94 95 96
13 1 93 94 95
14 1 8 9 10
15 1 10 11 12
16 1 9 10 11
17 1 91 92 93
18 1 92 93 94
19 1 11 12 13
20 1 12 13 14
21 1 14 15 16
22 1 13 14 15
23 1 90 91 92
24 1 15 16 17
25 1 16 17 18
26 1 17 18 19
27 1 89 90 91
28 1 87 88 89
29 1 88 89 90
30 1 86 87 88
31 1 85 86 87
32 1 59 60 61
33 1 60 61 62
34 1 57 58 59
35 1 58 59 60
36 1 35 36 37
37 1 37 38 39
38 1 36 37 38
39 1 56 57 58
40 1 55 56 57
41 1 54 55 56
42 1 38 39 40
43 1 79 80 81
44 1 78 79 80
45 1 80 81 82
46 1 18 19 20
47 1 19 20 21
48 1 20 21 22
49 1 73 74 75
50 1 72 73 74
51 1 74 75 76
52 1 34 35 36
53 1 32 33 34
54 1 33 34 35
55 1 53 54 55
56 1 81 82 83
57 1 82 83 84
58 1 84 85 86
59 1 21 22 23
60 1 83 84 85
61 1 22 23 24
62 1 71 72 73
63 1 70 71 72
64 1 69 70 71
65 1 50 51 52
66 1 51 52 53
67 1 49 50 51
68 1 39 40 41
69 1 40 41 42
70 1 77 78 79
71 1 75 76 77
72 1 76 77 78
73 1 28 29 30
74 1 29 30 31
75 1 27 28 29
76 1 26 27 28
77 1 61 62 63
78 1 31 32 33
79 1 62 63 64
80 1 65 66 67
81 1 63 64 65
82 1 64 65 66
83 1 52 53 54
84 1 41 42 43
85 1 42 43 44
86 1 23 24 25
87 1 24 25 26
88 1 25 26 27
89 1 30 31 32
90 1 68 69 70
91 1 67 68 69
92 1 66 67 68
93 1 48 49 50
94 1 47 48 49
95 1 46 47 48
96 1 44 45 46
97 1 45 46 47
98 1 43 44 45
