LAMMPS data file via write_data, version 29 Aug 2024, timestep = 408000000, units = real

100 atoms
4 atom types
99 bonds
1 bond types
98 angles
1 angle types

-500.6 500.6 xlo xhi
-500.6 500.6 ylo yhi
-500.6 500.6 zlo zhi

Masses

1 329.2
2 305.2
3 345.2
4 306.2

Bond Coeffs # harmonic

1 7.5 5.9

Angle Coeffs # harmonic

1 5 150

Atoms # full

45 1 1 0 34.81593119723167 321.84186639363156 -335.8232855789962 0 -1 -3
43 1 1 0 43.07819364087185 326.03330794198433 -341.33964945548445 0 -1 -3
44 1 4 0 38.3057128818194 322.28557175977227 -340.38465721758485 0 -1 -3
42 1 2 0 45.751277874942446 330.88110968929396 -340.3636111897258 0 -1 -3
24 1 4 0 33.839588469899006 342.965867218399 -331.58056972790877 0 -1 -3
26 1 2 0 39.69417206900698 338.16725482625105 -334.8983835645434 0 -1 -3
25 1 1 0 38.814246009762655 343.80889192582026 -334.15618673047925 0 -1 -3
41 1 3 0 49.26018483102446 334.41258082992505 -337.2922208479767 0 -1 -3
40 1 3 0 53.459703273329694 336.1342420409849 -333.3431343685345 0 -1 -3
46 1 2 0 34.52547736948747 321.88483851137556 -329.8106020701278 0 -1 -3
27 1 3 0 41.12180927246801 333.02813437760716 -332.4182772521843 0 -1 -3
28 1 1 0 45.528941545455965 330.07929329086375 -328.73679729681265 0 -1 -3
47 1 2 0 34.474203715055204 324.4728829634314 -324.23106850851315 0 -1 -3
48 1 4 0 36.70126934126134 327.69620874143845 -320.152206973211 0 -1 -3
49 1 4 0 38.709056492540974 333.003246926188 -318.9023051033375 0 -1 -3
29 1 3 0 50.28040695797249 326.3543283893168 -326.60342046053256 0 -1 -3
30 1 1 0 55.95629362521702 325.6678037214578 -328.7503687480604 0 -1 -3
31 1 4 0 61.39641226325645 327.54456987250524 -327.56749708561244 0 -1 -3
32 1 4 0 66.3405349802166 328.94798764682076 -324.83973753294936 0 -1 -3
33 1 1 0 71.0544435801431 329.2615579203457 -320.9904075269943 0 -1 -3
34 1 1 0 71.99778423271252 332.2887222017254 -315.7904982842779 0 -1 -3
62 1 2 0 15.722566178826206 344.3601992623727 -322.77595096472504 0 -1 -3
23 1 1 0 31.083454434782105 339.500698824556 -328.1865353684101 0 -1 -3
63 1 2 0 17.86203933105671 342.2889128633769 -317.94255231191073 0 -1 -3
22 1 1 0 28.002360427883517 340.49130110435124 -322.7306389509562 0 -1 -3
21 1 3 0 28.715778113003736 343.55567793803704 -317.84516517402363 0 -1 -3
61 1 3 0 17.30900425431164 348.4938266868305 -327.07916157188055 0 -1 -3
50 1 1 0 38.898595557344144 339.11406231390305 -318.85673001020587 0 -1 -3
51 1 2 0 43.62541377039231 342.4243382988902 -320.2108628109876 0 -1 -3
52 1 4 0 48.169234872398164 345.8541595839173 -319.6921198893732 0 -1 -3
37 1 1 0 60.05320585775393 339.03579264493504 -318.57277542236943 0 -1 -3
53 1 1 0 52.75617980188727 349.7925560961609 -320.5866094352511 0 -1 -3
39 1 4 0 55.512433658435725 339.3186560939991 -328.5905996523193 0 -1 -3
38 1 1 0 56.430733223609444 339.7696697636495 -323.2247506368793 0 -1 -3
90 1 4 0 -0.029725245050982764 354.6692668506728 -315.6258403326473 0 -1 -3
60 1 2 0 22.642302459282657 349.3191944386138 -329.316461279174 0 -1 -3
59 1 4 0 27.54516206272273 352.5636846422292 -330.412525125434 0 -1 -3
58 1 3 0 33.52669510686997 352.97457777857244 -330.12529835991484 0 -1 -3
57 1 4 0 37.934214485052046 357.1173678863383 -328.8285677121089 0 -1 -3
56 1 1 0 43.73484595513586 359.1697289506292 -328.5387438697857 0 -1 -3
54 1 3 0 52.49717645773485 354.9458865416555 -323.041333039611 0 -1 -3
55 1 1 0 48.726366094220154 357.4459295722825 -326.3546687577005 0 -1 -3
35 1 1 0 69.69646256235727 337.77282843313884 -314.6911395246133 0 -1 -3
92 1 3 0 2.090156094984845 345.11538395896383 -312.04323326698716 0 -1 -3
93 1 2 0 4.952015357935671 342.41996254415653 -307.4335153710977 0 -1 -3
91 1 4 0 -1.5961860015557103 349.47379038488396 -313.5753321673494 0 -1 -3
94 1 1 0 6.188671925968108 340.75876615732267 -301.92099142043156 0 -1 -3
20 1 3 0 29.774971851014357 349.28451254803116 -317.1580575279227 0 -1 -3
64 1 3 0 19.33392524694792 345.22649266710283 -312.8400695510714 0 -1 -3
65 1 4 0 22.180899914504355 348.4817033121824 -308.96592206232725 0 -1 -3
36 1 2 0 64.58682074666257 340.62447501755486 -315.6692368232368 0 -1 -3
89 1 1 0 -1.2664752625040179 360.089134680556 -313.6009051090521 0 -1 -3
14 1 4 0 8.034335897729532 354.5945261894876 -305.22343278682257 0 -1 -3
13 1 1 0 5.694196609683167 350.60384217938173 -301.7485898778313 0 -1 -3
15 1 4 0 9.702214265883354 357.09249320057336 -310.1351807004569 0 -1 -3
88 1 3 0 -0.1450001656991018 365.52232201566824 -316.03320137645017 0 -1 -3
16 1 1 0 13.554590758676433 360.8507000553992 -312.7438956261024 0 -1 -3
66 1 1 0 22.302979721453998 353.23387268819005 -305.39420422522414 0 -1 -3
19 1 2 0 28.119090008495508 354.95906909330773 -316.6804996274924 0 -1 -3
67 1 1 0 21.6139614209459 358.36715592571346 -302.4464506976352 0 -1 -3
18 1 3 0 23.507548744821797 358.84240378471026 -318.0994737869882 0 -1 -3
17 1 4 0 19.059537113571153 361.23187821209973 -315.031752351354 0 -1 -3
68 1 3 0 18.90472608294917 363.6566723534436 -303.3213550607223 0 -1 -3
69 1 1 0 14.42910071503824 366.9355929475665 -304.5341254030974 0 -1 -3
87 1 4 0 0.5111951765422619 370.82198127685814 -313.57508610454096 0 -1 -3
86 1 1 0 -1.267776473929046 373.23640636557224 -308.38091404675276 0 -1 -3
71 1 4 0 12.235143904764236 375.6987974020595 -311.54114228154134 0 -1 -3
72 1 3 0 9.362290914246712 380.67100329428814 -312.76070815984474 0 -1 -3
85 1 4 0 -0.14192949358488474 376.4081608500327 -303.6180318390906 0 -1 -3
70 1 4 0 13.889779474297695 371.9709198918117 -307.1768504940157 0 -1 -3
73 1 2 0 6.1091145672033305 384.431146752614 -309.44107523936003 0 -1 -3
75 1 4 0 -1.8361557952401881 386.7911070699071 -300.78755780878384 0 -1 -3
74 1 1 0 2.6141643282794615 385.62442008926564 -304.66573422987955 0 -1 -3
8 1 3 0 -11.117122768891333 337.69775738892093 -284.18476392968023 0 -1 -3
9 1 2 0 -7.810451484354929 340.3708620118125 -287.97263077591816 0 -1 -3
10 1 3 0 -4.532231212329549 345.17800438501877 -289.1696407528995 0 -1 -3
11 1 4 0 -0.48655476695554517 348.5966146702011 -291.8288020350754 0 -1 -3
97 1 4 0 4.229276482115897 338.6451091148271 -285.8944696357495 0 -1 -3
96 1 3 0 5.66284194244722 341.2919369141683 -290.82022044465754 0 -1 -3
95 1 2 0 6.134053027543633 339.8469330813726 -296.3225023598528 0 -1 -3
12 1 3 0 2.3539493193623047 350.79214931429686 -296.71474216622664 0 -1 -3
78 1 2 0 -7.233716771071061 375.12455541416205 -291.55562662862417 0 -1 -3
79 1 4 0 -4.446153568975055 370.1002366408 -290.18175062209394 0 -1 -3
77 1 4 0 -5.957343316013763 379.4757195565267 -295.1427951948123 0 -1 -3
80 1 4 0 -0.10314283664159768 366.56130338266036 -288.9123704210203 0 -1 -3
84 1 3 0 3.5306091320790456 375.4941805717286 -299.30318959085025 0 -1 -3
83 1 3 0 8.109810755068366 374.35799711554733 -295.8763251250535 0 -1 -3
82 1 4 0 10.229219489559474 369.9671569562431 -292.46346488642047 0 -1 -3
81 1 1 0 5.863097689828794 366.9117628995052 -290.0009187053703 0 -1 -3
76 1 2 0 -5.662666450269999 385.14980374118664 -296.7939341112806 0 -1 -3
5 1 4 0 -10.026552318163256 327.05135837993913 -270.8082553750343 0 -1 -3
4 1 2 0 -11.825691605540818 322.14376664143714 -268.48045225483 0 -1 -3
6 1 4 0 -10.426770552939832 330.99312548617553 -275.13387399932714 0 -1 -3
7 1 2 0 -10.297748876131198 333.29352358673776 -280.2326572217656 0 -1 -3
100 1 3 0 -5.171087627054069 339.36830794735334 -274.12539371593596 0 -1 -3
98 1 1 0 3.6793566057521176 339.00641048853504 -279.98534542370476 0 -1 -3
99 1 3 0 0.48743036091308084 339.40203388577686 -275.01712026991834 0 -1 -3
1 1 4 0 -17.49257937418518 307.44111291000354 -263.83511707033426 0 -1 -3
2 1 2 0 -14.702603670039784 312.8063833194048 -265.2365038425841 0 -1 -3
3 1 4 0 -10.338632582341136 316.6972913909984 -266.6985217866114 0 -1 -3

Velocities

45 -0.0005700607366545422 0.0008748982169665056 8.584845959638868e-05
43 -0.0007597599591683948 -0.00040542931909101523 4.146265530767469e-05
44 -0.00036282928183615034 8.753686805692317e-06 -7.75833880625934e-05
42 4.304698692805691e-05 0.0005934722123980021 -0.0007604237073903889
24 -0.0015073543849047535 0.0004739488756772212 4.977448072749798e-05
26 -5.551061576296504e-05 0.0009006901457746763 0.0007294879884416122
25 -0.0014217183391475963 -0.0008476400383154337 0.00010875051418353748
41 -0.00043196645151809477 -6.546189215492124e-05 -0.0002189671333934198
40 -0.0008909354882677749 -0.0014459012826449455 3.2791648801678166e-05
46 -0.00043004182109521546 0.0003710234375918917 -0.0015562142804389778
27 1.4825297702377208e-05 0.00018997644578946473 0.0004075750706621256
28 -3.8352798731742606e-05 -0.0010810536883142142 -6.088912821190898e-05
47 -0.0008256462971878381 4.219217195896657e-05 0.0005207627191544666
48 0.001428556296537977 -0.00016249571683653327 0.001359787589482386
49 0.0002598766420442681 0.0004134375056420733 0.0022385348755646958
29 -0.0005995023097697843 0.0008271753264398221 -0.0007356368531505809
30 -0.001994413367491611 6.58552697481393e-05 0.0018859460374587515
31 0.0007240689232181238 -0.0006281283506874671 -0.0010021443074744887
32 -0.00015120230277318485 -0.00016328128721145062 0.0013054677721080535
33 0.001146829392406951 -0.0015671674951498174 -0.0017034022075759375
34 -0.0007053321966025809 0.0016962057022566388 0.0012506344317698439
62 -0.0011599314020060883 -0.002133055320255115 0.0013047392461075847
23 0.0010289006867585263 -0.00024146282572600232 0.0013246539634912964
63 -0.0008511005921225959 -0.00021537867521487185 0.00034150493569822427
22 3.781961125451087e-05 0.00011646967001269075 -0.0006301514136740993
21 -0.0005014652380037144 -0.0005947065593472104 0.00034913723502861984
61 -2.8323978419935776e-05 0.00012645853638300046 -0.0009535913802668183
50 0.0008052519040928945 -0.00030867757696835204 0.0006742186420636607
51 0.0021785391451645793 -0.0006642012534489503 -0.00037136502311874446
52 0.00046092441240331075 0.00023397011738039938 5.625224167042975e-05
37 -0.0007048190761334064 0.00021097453721587864 6.020897012587231e-05
53 0.0014821939829298145 -0.00033970282748216015 0.0011281153137737688
39 0.0016451685120039967 -0.0010190314929948115 -0.00044489753767139545
38 -0.00014876861426179892 0.0005639233518211558 0.0002514996755374622
90 0.0002942755617920879 0.0010971873009499177 0.0003574246893851545
60 0.0008129138364993552 0.001275024138989234 0.0006504141396176536
59 0.000981957189965468 0.0015720041272123525 -0.00021574300110662942
58 -0.0004603076474825695 -0.0010167887235064757 0.00017393084629210037
57 -0.001386058534262633 -0.00019773503302238394 0.00011286848203536406
56 -0.0009741972249551961 0.002067331879498446 0.0007017502553766508
54 -0.0005617814553123996 0.00012937244266729667 -0.0006056316247374162
55 -0.00014876794300509974 0.0003233746366606547 -0.0010767400663240871
35 -0.00012316608179509204 -0.0013522061797439807 -0.00010174126018899779
92 -0.0011974665326956765 -0.0019290816196995298 0.0006770486352576624
93 0.0020841680305279777 -7.848108561107988e-05 -0.0003214260902349584
91 0.0014671510531899855 0.0007068988063401441 0.000735927064825667
94 0.00017233921202853793 0.00032080005651846086 -0.00048001425518745154
20 -0.00040365104714665945 -0.00024700667870652894 -0.00011155078176704155
64 1.204157415426804e-05 0.0006436224516986006 -0.0005091794638289195
65 0.0005566795469333838 0.0009002889649334279 0.0003549207847727537
36 0.0006009140549842275 0.0025639345714132504 0.00032387799725588044
89 -0.0009154381372007579 -0.0005981669450033845 -0.001082551189490963
14 5.100631877482452e-05 -0.00021329186563244057 0.00028694074117714214
13 0.0013474556193354065 0.00025021121098628624 -0.00046586801689668173
15 -0.0006926552947150939 0.0012178305862408031 -0.00021803756061160277
88 -0.0001997913987133985 -0.00047214953563605287 0.0003976530078402776
16 9.468550392725541e-05 0.0014757669684840066 -0.0011710959988639068
66 -0.0005747061504763683 0.000438526380186851 -0.0018449608229978319
19 0.0006799850740740146 0.0003809975535115623 6.353718304188102e-05
67 0.0005179199393183624 -0.0011648517430989439 0.0006650631636939805
18 -0.001239483273482366 0.0002623994748936723 -0.0005961660578328976
17 -0.0006852982386472816 0.0009666257632646852 0.001065631650437559
68 -0.0008120708630718145 -0.0005728100559788681 -0.00017163413997660322
69 -0.00108702991031967 0.0014514897799005094 -0.001148658927129028
87 -0.00018734443991784538 0.000979003338447831 0.0001373085420503581
86 -2.005192498414168e-05 1.1272097362650146e-05 0.0003512339583797322
71 0.00043720272116198596 -0.000552839177189898 -0.00150728259543399
72 -0.0007995803300208594 0.0017633507378069012 0.000278873151176379
85 -0.0007192981535783875 0.000834220672444154 0.0005058867563636361
70 0.0008484895921139657 -0.001899834783676178 -4.9756083987988537e-05
73 -0.0023972675994017975 -0.0009234840469483295 0.0005604729273053069
75 -0.0008084292596039059 3.9266528226340814e-05 -0.0007638407946728219
74 -0.0006696644916546417 -0.002631355811953699 0.0002903949342178702
8 -0.00039103482746321986 0.0011388034484912037 -0.0004243978906155997
9 0.0016789784896393566 -0.0002244760208863427 0.0007506972145615104
10 -0.0007176811248871506 0.00023680481600010938 -0.000543339097002724
11 -0.00028293799788706235 -0.00024264676976378346 0.00034076592618057655
97 0.0012792445690707097 -0.0012882330096241853 -0.00035933063523588564
96 0.0002129464258867754 -0.0008951023328746142 -0.001130557652222481
95 -0.0010380535177308726 0.000874206239279114 0.00023175022221452642
12 4.769103699834348e-05 -0.0008941450655305726 -0.0008514028872551593
78 -4.5069230731430976e-05 0.00020452397451691228 0.0007269809738658408
79 0.0007112623996190004 -0.0007178317108962935 -7.185076988045233e-05
77 -0.0005327060663683244 -0.0004150947822166842 -0.00031965937262544696
80 -0.0015017601021876646 0.0009822935577946644 -0.00022146753355185573
84 -0.00012375826194603793 0.000713436419430893 -0.0003736336907718265
83 0.0002289657990482609 -2.4934512230239946e-05 -0.0005922975813670132
82 0.0008640996464192226 9.094851368347942e-05 -0.0019227709301290275
81 -0.0012898191120971412 0.0004384187089820864 9.481774046150272e-06
76 -0.0007437486124174664 0.0002594685073177549 0.0007305693549432938
5 0.00016323559665372905 -0.0004489507383278329 0.0013653554063554289
4 -1.5236826946856748e-05 -0.000484535232153309 0.0002739557152757922
6 -0.00015550937552001818 0.0007751399527718084 0.0004053240479094664
7 -0.0008425074445515009 -0.00041795765224226426 -0.0002476160506235473
100 0.00037617061042332354 0.00039898622084486057 0.0007890675390281888
98 0.0019389228766599318 -0.0011783453156751689 0.0007069912302938988
99 -0.0004001357921950996 0.00035080263118962985 0.00011178292061403654
1 -0.0006713385598532013 -0.0016595964265499613 0.0008821048650943746
2 0.0009556175563620645 -0.001697724057913594 -0.0002951188388074389
3 0.0023562938541844356 -0.0003451245067171089 1.9494426271912943e-05

Bonds

1 1 45 46
2 1 43 44
3 1 44 45
4 1 42 43
5 1 24 25
6 1 26 27
7 1 25 26
8 1 41 42
9 1 40 41
10 1 46 47
11 1 27 28
12 1 28 29
13 1 47 48
14 1 48 49
15 1 49 50
16 1 29 30
17 1 30 31
18 1 31 32
19 1 32 33
20 1 33 34
21 1 34 35
22 1 62 63
23 1 23 24
24 1 63 64
25 1 22 23
26 1 21 22
27 1 61 62
28 1 50 51
29 1 51 52
30 1 52 53
31 1 37 38
32 1 53 54
33 1 39 40
34 1 38 39
35 1 90 91
36 1 60 61
37 1 59 60
38 1 58 59
39 1 57 58
40 1 56 57
41 1 54 55
42 1 55 56
43 1 35 36
44 1 92 93
45 1 93 94
46 1 91 92
47 1 94 95
48 1 20 21
49 1 64 65
50 1 65 66
51 1 36 37
52 1 89 90
53 1 14 15
54 1 13 14
55 1 15 16
56 1 88 89
57 1 16 17
58 1 66 67
59 1 19 20
60 1 67 68
61 1 18 19
62 1 17 18
63 1 68 69
64 1 69 70
65 1 87 88
66 1 86 87
67 1 71 72
68 1 72 73
69 1 85 86
70 1 70 71
71 1 73 74
72 1 75 76
73 1 74 75
74 1 8 9
75 1 9 10
76 1 10 11
77 1 11 12
78 1 97 98
79 1 96 97
80 1 95 96
81 1 12 13
82 1 78 79
83 1 79 80
84 1 77 78
85 1 80 81
86 1 84 85
87 1 83 84
88 1 82 83
89 1 81 82
90 1 76 77
91 1 5 6
92 1 4 5
93 1 6 7
94 1 7 8
95 1 98 99
96 1 99 100
97 1 1 2
98 1 2 3
99 1 3 4

Angles

1 1 44 45 46
2 1 42 43 44
3 1 43 44 45
4 1 41 42 43
5 1 23 24 25
6 1 25 26 27
7 1 24 25 26
8 1 40 41 42
9 1 39 40 41
10 1 45 46 47
11 1 26 27 28
12 1 27 28 29
13 1 46 47 48
14 1 47 48 49
15 1 48 49 50
16 1 28 29 30
17 1 29 30 31
18 1 30 31 32
19 1 31 32 33
20 1 32 33 34
21 1 33 34 35
22 1 61 62 63
23 1 22 23 24
24 1 62 63 64
25 1 21 22 23
26 1 20 21 22
27 1 60 61 62
28 1 49 50 51
29 1 50 51 52
30 1 51 52 53
31 1 36 37 38
32 1 52 53 54
33 1 38 39 40
34 1 37 38 39
35 1 89 90 91
36 1 59 60 61
37 1 58 59 60
38 1 57 58 59
39 1 56 57 58
40 1 55 56 57
41 1 53 54 55
42 1 54 55 56
43 1 34 35 36
44 1 91 92 93
45 1 92 93 94
46 1 90 91 92
47 1 93 94 95
48 1 19 20 21
49 1 63 64 65
50 1 64 65 66
51 1 35 36 37
52 1 88 89 90
53 1 13 14 15
54 1 12 13 14
55 1 14 15 16
56 1 87 88 89
57 1 15 16 17
58 1 65 66 67
59 1 18 19 20
60 1 66 67 68
61 1 17 18 19
62 1 16 17 18
63 1 67 68 69
64 1 68 69 70
65 1 86 87 88
66 1 85 86 87
67 1 70 71 72
68 1 71 72 73
69 1 84 85 86
70 1 69 70 71
71 1 72 73 74
72 1 74 75 76
73 1 73 74 75
74 1 7 8 9
75 1 8 9 10
76 1 9 10 11
77 1 10 11 12
78 1 96 97 98
79 1 95 96 97
80 1 94 95 96
81 1 11 12 13
82 1 77 78 79
83 1 78 79 80
84 1 76 77 78
85 1 79 80 81
86 1 83 84 85
87 1 82 83 84
88 1 81 82 83
89 1 80 81 82
90 1 75 76 77
91 1 4 5 6
92 1 3 4 5
93 1 5 6 7
94 1 6 7 8
95 1 97 98 99
96 1 98 99 100
97 1 1 2 3
98 1 2 3 4
