LAMMPS data file via write_data, version 29 Aug 2024, timestep = 408000000, units = real

100 atoms
4 atom types
99 bonds
1 bond types
98 angles
1 angle types

-500.6 500.6 xlo xhi
-500.6 500.6 ylo yhi
-500.6 500.6 zlo zhi

Masses

1 329.2
2 305.2
3 345.2
4 306.2

Bond Coeffs # harmonic

1 7.5 5.9

Angle Coeffs # harmonic

1 5 150

Atoms # full

79 1 2 0 0.12674893421862551 395.09194145156204 -235.3427750740427 0 -1 -3
80 1 2 0 5.156453638840606 395.4937688871435 -238.40878754799166 0 -1 -3
81 1 3 0 10.891630159648567 397.1407296300683 -237.66190652461373 0 -1 -3
82 1 3 0 16.617742453254237 396.9555610510009 -237.83165229891137 0 -1 -3
83 1 3 0 20.805424432728703 400.43008568244596 -235.82752374980467 0 -1 -3
33 1 3 0 17.313303736119387 359.9344036373358 -221.49548698504734 0 -1 -3
32 1 1 0 13.346364096061722 363.7473582718952 -223.9719349775647 0 -1 -3
34 1 3 0 21.297243937122786 357.85285855016184 -217.95951587720276 0 -1 -3
29 1 3 0 10.005420893022157 378.7017879809503 -218.61520431517673 0 -1 -3
30 1 3 0 12.379070684419633 374.28828102869494 -222.2527614516296 0 -1 -3
31 1 4 0 12.435378556637259 369.2199837149121 -225.54936695612363 0 -1 -3
28 1 1 0 4.734852739341203 381.38492550301913 -218.51934569790706 0 -1 -3
55 1 4 0 18.721584682437932 383.87295278002836 -222.063711980296 0 -1 -3
54 1 1 0 23.613172094730285 381.9273254679676 -219.5799631587398 0 -1 -3
53 1 2 0 27.56618299877178 377.94566514665814 -217.47921371571832 0 -1 -3
77 1 4 0 -5.466056022195335 394.45384557104006 -225.23849955096617 0 -1 -3
78 1 3 0 -2.150057522208269 394.07595851441357 -230.1400476242515 0 -1 -3
76 1 1 0 -8.286239881300263 394.8129004852605 -219.99498727351568 0 -1 -3
27 1 4 0 3.0600892660512318 386.5863172342969 -220.1820254198494 0 -1 -3
26 1 4 0 4.967650457432862 392.00875832710983 -221.90565052433655 0 -1 -3
58 1 2 0 15.882476607448341 399.72607990917635 -222.8759822490987 0 -1 -3
25 1 2 0 4.980243522703871 397.9740420375939 -222.7809077079577 0 -1 -3
56 1 4 0 15.207978826258815 388.8187800707662 -221.84675345815782 0 -1 -3
57 1 3 0 14.333038577930058 394.178311039301 -220.71920527584373 0 -1 -3
87 1 1 0 25.74686273019316 395.4366424385753 -215.4299508524778 0 -1 -3
86 1 2 0 27.76187679478351 397.7342136376141 -220.2239308461825 0 -1 -3
64 1 3 0 -7.101710262006561 410.0474087793206 -223.5020846696654 0 -1 -3
63 1 4 0 -4.417508342066083 409.0236130008044 -228.43725828001092 0 -1 -3
65 1 1 0 -6.71310450093905 410.2792902311476 -217.53228849742044 0 -1 -3
62 1 1 0 -0.24365839332464984 404.6505870317071 -230.01875180979476 0 -1 -3
59 1 2 0 14.479271026513368 404.22240690745883 -226.61159405299563 0 -1 -3
61 1 4 0 4.935674727706938 405.6605119040377 -232.94920102598263 0 -1 -3
60 1 3 0 10.344899903139387 406.0823392362239 -230.77971720629554 0 -1 -3
22 1 3 0 7.938242329331222 413.01181411646695 -219.74759713690304 0 -1 -3
23 1 3 0 5.5398928924921735 407.93224196416907 -219.77037161178797 0 -1 -3
24 1 3 0 2.9337905873756975 403.0548221062401 -220.9397431186406 0 -1 -3
84 1 4 0 22.527201145759683 400.32363447347933 -230.0403269144202 0 -1 -3
85 1 2 0 26.419790504264604 399.15726094643037 -225.68361089578207 0 -1 -3
19 1 1 0 23.05436109686427 414.0067418353019 -214.09336004182055 0 -1 -3
18 1 1 0 25.013118998019955 409.1154761408604 -212.7179237091786 0 -1 -3
21 1 1 0 12.265551743319756 416.91522079424243 -217.90445223829576 0 -1 -3
20 1 2 0 17.869341726789326 417.4612893043827 -215.99914167823712 0 -1 -3
100 1 1 0 59.44851070990374 348.90294001389157 -203.3225821008587 0 -1 -3
36 1 3 0 18.954574104442134 353.90092372907134 -207.89218710313818 0 -1 -3
37 1 3 0 17.76737260889983 353.68127682799036 -202.27946195354036 0 -1 -3
35 1 1 0 22.332855855924887 356.0350805141448 -212.22680848057215 0 -1 -3
97 1 3 0 46.35063981390446 358.3171728876667 -205.95435330585883 0 -1 -3
99 1 1 0 55.325878394782364 352.44851880490006 -205.95543918611781 0 -1 -3
98 1 1 0 49.96813860195085 353.757045487062 -207.24018444390623 0 -1 -3
91 1 3 0 23.564627600513674 377.34406214296115 -206.6342445081817 0 -1 -3
92 1 1 0 28.362061993342273 374.02238595688164 -206.69848069916844 0 -1 -3
90 1 2 0 20.729912107490055 381.44115621926557 -209.68935981898125 0 -1 -3
52 1 3 0 33.11030182266468 379.31737281239975 -215.37219828152044 0 -1 -3
51 1 4 0 36.834672855593844 378.16254069936406 -211.1337841496114 0 -1 -3
50 1 4 0 40.33174944442777 381.0280141050879 -207.15520087587097 0 -1 -3
49 1 3 0 45.64714122530149 379.91120797404477 -205.19758465526292 0 -1 -3
94 1 3 0 38.52124401279868 372.07171179562494 -201.87816180673573 0 -1 -3
95 1 1 0 42.65294226353575 367.49441071920967 -200.07743493345978 0 -1 -3
75 1 1 0 -6.170482545726265 395.06515598511953 -214.6408584157895 0 -1 -3
74 1 4 0 -1.9049206783440409 398.9882833761185 -212.80453797583428 0 -1 -3
15 1 4 0 12.54386712667136 397.97266287305337 -212.20267137114993 0 -1 -3
12 1 3 0 0.3018787504945661 386.67548651613333 -206.48362967290922 0 -1 -3
14 1 3 0 9.208488687529679 393.1840930671538 -210.27770774312904 0 -1 -3
73 1 2 0 1.500040754756077 403.1871624738859 -210.43546096978557 0 -1 -3
13 1 3 0 4.70144599204481 389.94810243180143 -208.4159363386298 0 -1 -3
11 1 2 0 -2.6039347378477946 384.47388599788957 -201.4506198606157 0 -1 -3
88 1 3 0 22.02069031507451 392.2498587242294 -212.10824932060262 0 -1 -3
89 1 3 0 19.55695824265706 386.86873114545585 -210.78850263504208 0 -1 -3
48 1 2 0 49.361495567588676 379.866853461532 -200.3978301289608 0 -1 -3
67 1 2 0 -9.327580665906343 416.38651828211215 -207.24896579213197 0 -1 -3
66 1 1 0 -8.697477710441794 413.48442801304975 -212.28890460364693 0 -1 -3
72 1 4 0 4.704258943888874 405.46561089955304 -205.91705662603667 0 -1 -3
71 1 3 0 4.693928655611893 409.981650499132 -202.263707577522 0 -1 -3
69 1 2 0 -0.8239674045488873 419.02763203611505 -201.3825365072367 0 -1 -3
70 1 1 0 4.1391252875674525 416.2136921800837 -201.46179145341944 0 -1 -3
17 1 3 0 22.351288536358098 404.1516551131566 -212.13836869282244 0 -1 -3
16 1 3 0 16.786939764300705 401.8460996734526 -213.0513157449968 0 -1 -3
68 1 1 0 -6.265518424754494 418.60163528603323 -202.84437142063925 0 -1 -3
38 1 1 0 16.563972421885328 356.6507957396092 -197.15867078942014 0 -1 -3
39 1 4 0 19.397878333777097 360.9966838357969 -194.3656339896888 0 -1 -3
40 1 1 0 24.22776746609433 361.08321359685755 -191.1122069331725 0 -1 -3
41 1 4 0 27.46951326087351 362.3751179003727 -186.49631662286131 0 -1 -3
42 1 1 0 33.251495538515236 362.1602022926011 -184.7416088384577 0 -1 -3
10 1 2 0 -4.566104436866691 386.19316974949555 -195.8174762436487 0 -1 -3
93 1 4 0 32.70702713144252 373.40478734146905 -202.7980826555821 0 -1 -3
44 1 4 0 43.503433136210205 368.10227035160074 -184.67686834462927 0 -1 -3
43 1 1 0 38.349551134679444 365.3879211266936 -185.15968031462089 0 -1 -3
45 1 1 0 46.14517666884877 372.99056092680536 -186.03803283571986 0 -1 -3
96 1 3 0 46.40531088437752 363.22253813597536 -202.2831530902759 0 -1 -3
46 1 2 0 46.30256598259002 376.1778860300431 -191.06609171967992 0 -1 -3
9 1 4 0 -3.5643395110848157 386.1124378331293 -190.08373679681515 0 -1 -3
8 1 2 0 0.3999781418643208 386.4106073180061 -186.19895414737363 0 -1 -3
47 1 1 0 50.46106130028915 377.6716641480712 -194.75739462806013 0 -1 -3
7 1 3 0 0.9837804195817021 388.52022245322826 -180.66142851279858 0 -1 -3
6 1 4 0 2.8554028676531513 392.53583122934145 -176.90611690735423 0 -1 -3
5 1 1 0 5.888159711109073 394.0914897649683 -171.88110503906378 0 -1 -3
4 1 4 0 7.199014694311451 391.55046743103236 -166.81601097386644 0 -1 -3
3 1 3 0 12.461335505375517 390.80031907197224 -163.89778691195394 0 -1 -3
2 1 1 0 17.347124764045482 388.9982956481108 -161.92509277373347 0 -1 -3
1 1 4 0 23.3473125242351 387.94636188060815 -162.51475046293453 0 -1 -3

Velocities

79 0.001251853829731301 0.0005134105584332745 -0.00012666491099756628
80 -0.0005854907761440058 -0.0011742111034239115 -0.0001435786087478831
81 -0.00023404454811518416 0.00046205866371601216 0.0012280658379658271
82 0.001285387840179654 3.372859557201411e-05 0.000132478822386199
83 0.00024375112765633527 -0.0012403868025001772 -0.0017731672356750298
33 8.754240658220807e-05 -0.000189122016094266 -0.00017113558471625417
32 -0.00032980199825091667 0.00017073261448567777 -0.0008733904565643037
34 -0.0008165052675538768 -0.00026022459222678425 0.00017934870511885636
29 0.000168916340859932 0.0006858952361599993 -0.001550807397705989
30 -0.0017513806442336851 0.0016223770834485542 0.0007988387672241644
31 0.0005376698188005017 0.0005412167545931126 -2.9654047410717368e-05
28 0.0009628768099308637 -0.0012767480037175823 -5.134060775159151e-05
55 0.001234828176611622 -0.0007761195348381024 0.000703839360370086
54 -4.016322653801795e-05 -0.0007036183971122184 0.0006927688985395376
53 -6.940834423255327e-05 0.0008963263682443016 -0.0008301259499915688
77 0.0003909742766095114 0.0015668818888019836 -0.0013040588753164956
78 0.001143009481114735 0.00013598848975067252 0.0014798781398400649
76 -0.0005044876925178536 0.0010055862838491733 -0.0005042238288543966
27 -0.0008935267829609626 0.0005637498809685805 -0.00043318619130121
26 -0.0009298232483892318 -0.0007685234179173592 -0.0011046365744599071
58 -0.0004737052248428953 -0.001103795626095938 -0.0010907374702279946
25 9.252378103094013e-05 0.00045460959117892853 -0.0013421296219355255
56 -0.00036571435594100676 0.0004961011951509486 0.0009951975629426085
57 -0.001496348807642199 0.0006608722123174287 0.00016109796969065562
87 -0.0007408034230761098 -0.00024846433235874334 -0.00020185509325446863
86 0.00029512910398816746 -0.0004531620507190547 -0.0003989977474915077
64 -7.523402616587633e-05 -5.656053078649109e-05 -0.00023818311461122133
63 -0.0019336988791702856 -0.0011030691005013337 0.0004337704406681812
65 -0.0005841567944511643 6.005028669111579e-05 0.0003765782404258153
62 0.0011757895749815242 -0.0003607587302027994 0.0002544914338205549
59 -0.00038067255994790985 -0.0005757587801052284 -0.0003212790666998266
61 -0.0005092041604669212 0.001000735493237709 -0.0002823276341249021
60 3.791277204550792e-05 0.0014188261731550393 0.0005593950905591484
22 -0.0005758124782940741 0.0008496241460677035 -0.0017645172932840637
23 0.0005835821974262687 -0.0005277494093634618 0.0007609620590926967
24 -0.00023769361395658008 0.0009106091275081094 8.545756068124077e-05
84 0.0007528786887206415 3.1534259885363806e-06 0.0009533506702631912
85 -0.0012576192177976707 0.000987806234796283 0.0001708773854557471
19 0.0004416912194143007 0.00048792890847706955 0.00019402754290257702
18 -0.000905759390741593 0.0007398423206885427 0.000830692135094144
21 0.0005504046451374849 -0.0009176286194701313 0.00011901203090121269
20 -0.0006459091393970631 0.0005568953441251197 0.0004191962574040974
100 0.0003176284797414105 -0.0003825874779209041 -0.000519576632622679
36 -0.0003234759457075689 -0.0008297335092999236 0.0007063178786241199
37 9.776822243520537e-06 0.0004700635311822511 0.0009394694848852104
35 -2.6447872668600166e-05 0.0012665352620664307 -0.00018708618347431096
97 -0.0007912415282345792 8.760541262256379e-05 0.0005304020411864933
99 0.0013288974373457446 -0.0003563905581002991 0.0012136528304959582
98 -0.0012087434462643048 -0.000494698185159748 -0.0019083451469059185
91 -0.0008252568701978811 0.0005939664600823301 0.0003982523105878143
92 0.001250673482181739 0.0002562069855868539 0.0004103744724924102
90 0.0006610071926227519 -0.00015267296614130107 -0.00014312426028002375
52 0.0007308706428412751 0.0008322841070007162 -0.0008267507350150999
51 2.4345173010534703e-05 0.0004727371339868933 0.000511839054526734
50 -0.0006547504807001033 -0.0005383228170555282 0.0017091294141356268
49 -0.00018302355439142202 -0.0008888842158547663 -0.0003069767368325269
94 -5.45017533932502e-05 -0.001961737585084896 -0.0017547862854486675
95 0.0013882619925867138 -0.0004840603693575269 0.00033449595810011284
75 -0.0002633386175187112 0.00012644016233663167 -0.0006122068951095141
74 0.0001928694816729153 -0.0012916419590462361 -0.0004872950744395685
15 0.0011690260873292513 -5.4994546926508804e-06 0.0012396793471557094
12 -0.002152485078841434 0.0010048429580862036 -0.000573618283837017
14 0.0017059669782607105 0.0006657800382380211 0.0013854563579588626
73 -0.0001617729648515837 -0.0006500663976287857 -0.00020448805055145244
13 -0.000816414576918574 -0.00041114042738987647 -0.00034113882547247596
11 0.0004201261605267255 0.0004512713484076856 -0.0004144001727698355
88 0.0006557970725880859 -0.0006104176454996877 0.00023528211078991984
89 -0.0002935016789305078 -0.00033363576993645225 0.0007395072211462916
48 6.97147535477971e-05 -0.00020075426984480065 -0.0004127081003577882
67 -0.00024447000738990905 -0.0011860407894520998 -0.0008760196299850971
66 0.0007835813423193615 0.0004293459078196423 0.0003645524088893549
72 0.0002538972103832423 -0.00031223130857469097 0.000449258930165886
71 -2.2976443818697276e-05 0.001129792672820591 0.001340610749553249
69 -0.0002444970509360794 0.0002211769816354931 0.0007466064996353907
70 0.00012344345934038928 0.000966228768008936 0.0002294731283283902
17 -0.0004693513165278453 0.00010664997998665427 -0.0015120040195574966
16 0.0005411687336935563 -0.0007347795303735588 0.00016387037603323806
68 -0.0015457190390123594 0.0005254534288790754 -0.0005321493592531821
38 -0.0010381439021698853 0.0018443489741100827 0.0002550887755558
39 0.0006284685778785831 5.8585028002942835e-05 -0.0004559687359113813
40 0.0007631055286911499 -0.0010670869360859037 -0.0012074566641739222
41 0.000369155620339992 0.0008637606357514207 0.00024861905202725094
42 7.260040670268756e-05 -0.001205729152227729 -0.0010238148468692033
10 -0.0006411000862360657 -0.0008360386955161436 -0.0019230503599458294
93 -0.002432758421395297 -0.0006143449103783501 0.001501530136943301
44 0.00031056827934165343 -0.00029107124005744425 0.0002968510833979712
43 -0.0016489244473459528 -0.0007329452458680087 0.0008808956455956441
45 0.0006752174369459108 -0.0005454741641744356 0.0006892265662507185
96 0.00034803035721376935 -5.15825169252559e-05 0.00046023717742203627
46 0.0011478624121345814 -0.0009233645205254783 -0.0011462250503612899
9 -0.0030268418462378694 -0.0002364023033454884 -0.0016354420270954183
8 0.00014594253959420773 -0.0007889524878284162 0.0011619445025438952
47 -0.0007259655159208339 0.0002886830067799187 -0.0005593992730115556
7 -0.0008554722658128941 -0.0005419215056836244 0.0009075026464704679
6 0.0016091956559660188 -9.265795525535323e-05 0.0012575091524059667
5 -1.5050511779420248e-05 9.70317587866794e-05 0.0004714091242954154
4 -0.0010787639776039183 0.0012456561126043709 0.000790724526355709
3 0.0004322195515544888 0.0002785091531592737 0.0015310949363590912
2 0.001310329824408158 -0.00015570863509650125 0.0006653853984900101
1 -0.0004308440029038085 -0.0009065691710215799 -3.9535923060120615e-05

Bonds

1 1 79 80
2 1 80 81
3 1 81 82
4 1 82 83
5 1 83 84
6 1 33 34
7 1 32 33
8 1 34 35
9 1 29 30
10 1 30 31
11 1 31 32
12 1 28 29
13 1 55 56
14 1 54 55
15 1 53 54
16 1 77 78
17 1 78 79
18 1 76 77
19 1 27 28
20 1 26 27
21 1 58 59
22 1 25 26
23 1 56 57
24 1 57 58
25 1 87 88
26 1 86 87
27 1 64 65
28 1 63 64
29 1 65 66
30 1 62 63
31 1 59 60
32 1 61 62
33 1 60 61
34 1 22 23
35 1 23 24
36 1 24 25
37 1 84 85
38 1 85 86
39 1 19 20
40 1 18 19
41 1 21 22
42 1 20 21
43 1 36 37
44 1 37 38
45 1 35 36
46 1 97 98
47 1 99 100
48 1 98 99
49 1 91 92
50 1 92 93
51 1 90 91
52 1 52 53
53 1 51 52
54 1 50 51
55 1 49 50
56 1 94 95
57 1 95 96
58 1 75 76
59 1 74 75
60 1 15 16
61 1 12 13
62 1 14 15
63 1 73 74
64 1 13 14
65 1 11 12
66 1 88 89
67 1 89 90
68 1 48 49
69 1 67 68
70 1 66 67
71 1 72 73
72 1 71 72
73 1 69 70
74 1 70 71
75 1 17 18
76 1 16 17
77 1 68 69
78 1 38 39
79 1 39 40
80 1 40 41
81 1 41 42
82 1 42 43
83 1 10 11
84 1 93 94
85 1 44 45
86 1 43 44
87 1 45 46
88 1 96 97
89 1 46 47
90 1 9 10
91 1 8 9
92 1 47 48
93 1 7 8
94 1 6 7
95 1 5 6
96 1 4 5
97 1 3 4
98 1 2 3
99 1 1 2

Angles

1 1 78 79 80
2 1 79 80 81
3 1 80 81 82
4 1 81 82 83
5 1 82 83 84
6 1 32 33 34
7 1 31 32 33
8 1 33 34 35
9 1 28 29 30
10 1 29 30 31
11 1 30 31 32
12 1 27 28 29
13 1 54 55 56
14 1 53 54 55
15 1 52 53 54
16 1 76 77 78
17 1 77 78 79
18 1 75 76 77
19 1 26 27 28
20 1 25 26 27
21 1 57 58 59
22 1 24 25 26
23 1 55 56 57
24 1 56 57 58
25 1 86 87 88
26 1 85 86 87
27 1 63 64 65
28 1 62 63 64
29 1 64 65 66
30 1 61 62 63
31 1 58 59 60
32 1 60 61 62
33 1 59 60 61
34 1 21 22 23
35 1 22 23 24
36 1 23 24 25
37 1 83 84 85
38 1 84 85 86
39 1 18 19 20
40 1 17 18 19
41 1 20 21 22
42 1 19 20 21
43 1 35 36 37
44 1 36 37 38
45 1 34 35 36
46 1 96 97 98
47 1 98 99 100
48 1 97 98 99
49 1 90 91 92
50 1 91 92 93
51 1 89 90 91
52 1 51 52 53
53 1 50 51 52
54 1 49 50 51
55 1 48 49 50
56 1 93 94 95
57 1 94 95 96
58 1 74 75 76
59 1 73 74 75
60 1 14 15 16
61 1 11 12 13
62 1 13 14 15
63 1 72 73 74
64 1 12 13 14
65 1 10 11 12
66 1 87 88 89
67 1 88 89 90
68 1 47 48 49
69 1 66 67 68
70 1 65 66 67
71 1 71 72 73
72 1 70 71 72
73 1 68 69 70
74 1 69 70 71
75 1 16 17 18
76 1 15 16 17
77 1 67 68 69
78 1 37 38 39
79 1 38 39 40
80 1 39 40 41
81 1 40 41 42
82 1 41 42 43
83 1 9 10 11
84 1 92 93 94
85 1 43 44 45
86 1 42 43 44
87 1 44 45 46
88 1 95 96 97
89 1 45 46 47
90 1 8 9 10
91 1 7 8 9
92 1 46 47 48
93 1 6 7 8
94 1 5 6 7
95 1 4 5 6
96 1 3 4 5
97 1 2 3 4
98 1 1 2 3
