
# ===============================
# FORCE FIELD
# ===============================
bond_style harmonic
bond_coeff 1 7.5 5.9

angle_style harmonic
angle_coeff 1 5.0 150.0

pair_style hybrid/overlay lj/cut 10.0 base/rna 18.0
pair_modify shift yes
pair_coeff * * lj/cut 2.0 8.9089871814

# Base-pair interactions
pair_coeff 1 1 base/rna 0.00000 3.0 13.8 1.5 0.5 1.8326 0.9425 1.8326 1.1345
pair_coeff 1 2 base/rna 0.00000 3.0 13.8 1.5 0.5 1.8326 0.9425 1.8326 1.1345
pair_coeff 1 3 base/rna 0.00000 3.0 13.8 1.5 0.5 1.8326 0.9425 1.8326 1.1345
pair_coeff 1 4 base/rna 3.33333 3.0 13.8 1.5 0.5 1.8326 0.9425 1.8326 1.1345
pair_coeff 2 2 base/rna 0.00000 3.0 13.8 1.5 0.5 1.8326 0.9425 1.8326 1.1345
pair_coeff 2 3 base/rna 5.00000 3.0 13.8 1.5 0.5 1.8326 0.9425 1.8326 1.1345
pair_coeff 2 4 base/rna 0.00000 3.0 13.8 1.5 0.5 1.8326 0.9425 1.8326 1.1345
pair_coeff 3 3 base/rna 0.00000 3.0 13.8 1.5 0.5 1.8326 0.9425 1.8326 1.1345
pair_coeff 3 4 base/rna 3.33333 3.0 13.8 1.5 0.5 1.8326 0.9425 1.8326 1.1345
pair_coeff 4 4 base/rna 0.00000 3.0 13.8 1.5 0.5 1.8326 0.9425 1.8326 1.1345

special_bonds lj 0.0 0.0 1.0
Finding 1-2 1-3 1-4 neighbors ...
  special bond factors lj:    0        0        1       
  special bond factors coul:  0        0        0       
     2 = max # of 1-2 neighbors
     2 = max # of 1-3 neighbors
     4 = max # of 1-4 neighbors
     6 = max # of special neighbors
  special bonds CPU = 0.000 seconds
neighbor 15.0 bin
neigh_modify every 10 delay 0
comm_style tiled
timestep 10

# ===============================
# DUMPS
# ===============================
dump d1 all custom ${dump_stride} outputs/${tag}.lammpstrj id mol type q xu yu zu
dump d1 all custom 50000 outputs/${tag}.lammpstrj id mol type q xu yu zu
dump d1 all custom 50000 outputs/config_16_len100_06.dat.lammpstrj id mol type q xu yu zu
dump_modify d1 sort id

# ===============================
# THERMO
# ===============================
thermo_style custom step pe ke temp
thermo ${thermo_stride}
thermo 10000
thermo_modify flush yes

variable vpe equal pe
variable vke equal ke
variable vT  equal temp

fix fa all ave/time ${thermo_stride} 10 ${stride10} v_vpe v_vke v_vT file outputs/thermo_${tag}_averaged.dat
fix fa all ave/time 10000 10 ${stride10} v_vpe v_vke v_vT file outputs/thermo_${tag}_averaged.dat
fix fa all ave/time 10000 10 100000 v_vpe v_vke v_vT file outputs/thermo_${tag}_averaged.dat
fix fa all ave/time 10000 10 100000 v_vpe v_vke v_vT file outputs/thermo_config_16_len100_06.dat_averaged.dat

# ===============================
# EQUILIBRATION (40 ns)
# ===============================
fix fxnve all nve
variable seed0 equal 43001
fix fxl all langevin ${T_eq} ${T_eq} 100000.0 ${seed0}
fix fxl all langevin 298 ${T_eq} 100000.0 ${seed0}
fix fxl all langevin 298 298 100000.0 ${seed0}
fix fxl all langevin 298 298 100000.0 43001

run ${n_eq}
run 4000000

CITE-CITE-CITE-CITE-CITE-CITE-CITE-CITE-CITE-CITE-CITE-CITE-CITE

Your simulation uses code contributions which should be cited:

- Type Label Framework: https://doi.org/10.1021/acs.jpcb.3c08419

@Article{Gissinger24,
 author = {Jacob R. Gissinger, Ilia Nikiforov, Yaser Afshar, Brendon Waters, Moon-ki Choi, Daniel S. Karls, Alexander Stukowski, Wonpil Im, Hendrik Heinz, Axel Kohlmeyer, and Ellad B. Tadmor},
 title = {Type Label Framework for Bonded Force Fields in LAMMPS},
 journal = {J. Phys. Chem. B},
 year =    2024,
 volume =  128,
 number =  13,
 pages =   {3282–-3297}
}

CITE-CITE-CITE-CITE-CITE-CITE-CITE-CITE-CITE-CITE-CITE-CITE-CITE

Generated 0 of 6 mixed pair_coeff terms from geometric mixing rule
Neighbor list info ...
  update: every = 10 steps, delay = 0 steps, check = yes
  max neighbors/atom: 2000, page size: 100000
  master list distance cutoff = 33
  ghost atom cutoff = 33
  binsize = 16.5, bins = 61 61 61
  2 neighbor lists, perpetual/occasional/extra = 2 0 0
  (1) pair lj/cut, perpetual, trim from (2)
      attributes: half, newton on, cut 25
      pair build: trim
      stencil: none
      bin: none
  (2) pair base/rna, perpetual
      attributes: half, newton on
      pair build: half/bin/newton
      stencil: half/bin/3d
      bin: standard
Per MPI rank memory allocation (min/avg/max) = 8.37 | 8.37 | 8.37 Mbytes
   Step         PotEng         KinEng          Temp     
         0   134.33628      0              0            
     10000   59.874489      87.266871      295.71946    
     20000   50.284547      90.559541      306.87726    
     30000   51.953533      97.621431      330.80775    
     40000   32.746586      95.604762      323.9739     
     50000   22.095167      99.350474      336.66692    
     60000   5.8970317      77.483951      262.56828    
     70000   1.0847167      88.276861      299.142      
     80000   15.105206      78.161991      264.86594    
     90000   15.36836       79.985146      271.04403    
    100000   2.8106395      86.418105      292.84327    
    110000   0.96791111     87.593121      296.82502    
    120000   1.7778088      78.611866      266.39043    
    130000  -4.5474428      93.01344       315.19274    
    140000   16.683476      85.740822      290.54817    
    150000   6.0497348      80.453306      272.63047    
    160000   4.970155       93.038461      315.27753    
    170000   5.9200343      92.139014      312.22959    
    180000  -16.108946      101.28246      343.21379    
    190000  -9.8759044      87.360107      296.03541    
    200000  -12.163498      78.196349      264.98237    
    210000  -15.061728      88.549282      300.06514    
    220000  -2.265948       76.424394      258.97778    
    230000  -7.4652836      90.972466      308.27654    
    240000  -11.837034      98.762076      334.67303    
    250000  -17.225348      93.360181      316.36774    
    260000  -31.344507      80.214071      271.81978    
    270000  -21.209169      95.447529      323.44109    
    280000  -12.4185        83.430435      282.71901    
    290000  -45.327334      90.528371      306.77164    
    300000  -24.552496      100.14898      339.3728     
    310000  -13.170541      81.662721      276.72879    
    320000  -20.616851      88.03055       298.30733    
    330000  -39.47521       77.771448      263.54252    
    340000  -34.852578      74.483123      252.39944    
    350000  -25.503975      94.982236      321.86436    
    360000  -28.989569      95.09502       322.24655    
    370000  -24.821614      93.98887       318.49816    
    380000  -18.197317      87.165998      295.37764    
    390000  -18.970651      95.22288       322.67983    
    400000  -18.270595      85.694757      290.39207    
    410000  -14.800344      91.941487      311.56024    
    420000  -21.992919      83.467282      282.84387    
    430000  -21.603402      83.633879      283.40842    
    440000  -9.0737142      85.115673      288.42974    
    450000  -1.1024164      83.992904      284.62504    
    460000   18.317472      96.600762      327.34903    
    470000  -0.044377363    107.98387      365.92275    
    480000   4.0730018      74.526678      252.54703    
    490000  -18.43622       84.813587      287.40607    
    500000  -6.3332401      83.389189      282.57924    
    510000  -31.610909      95.728178      324.39212    
    520000  -1.5699903      82.539981      279.70155    
    530000  -8.7636941      83.958429      284.50821    
    540000  -14.679819      80.294692      272.09298    
    550000  -3.5788004      74.9891        254.11403    
    560000   4.0417053      91.96626       311.64419    
    570000  -4.9384519      89.155352      302.11892    
    580000   9.8165675      110.62061      374.8578     
    590000   5.6481581      93.951549      318.37169    
    600000  -0.57757136     87.705291      297.20513    
    610000  -8.462525       90.553251      306.85595    
    620000   14.30144       86.84029       294.27392    
    630000   6.0539327      94.257611      319.40884    
    640000  -2.1534324      87.089761      295.11929    
    650000  -8.45649        93.117146      315.54417    
    660000  -9.7681447      91.337888      309.51483    
    670000  -10.71946       88.792375      300.88891    
    680000  -10.695422      102.31238      346.70388    
    690000  -9.9004092      113.39889      384.2725     
    700000   1.0863482      84.783804      287.30514    
    710000  -20.53978       87.207627      295.5187     
    720000  -13.892597      88.930065      301.35549    
    730000  -21.269003      85.166614      288.60237    
    740000  -30.12812       82.182019      278.48853    
    750000  -23.16195       89.60743       303.65087    
    760000  -14.308476      89.667848      303.8556     
    770000  -13.124831      100.15628      339.39753    
    780000  -7.5740227      78.003112      264.32755    
    790000  -15.670614      78.237667      265.12238    
    800000  -11.161461      92.706696      314.15329    
    810000  -7.5427111      94.450747      320.06331    
    820000  -14.568003      90.186089      305.61176    
    830000  -3.9262508      79.939299      270.88867    
    840000  -7.1402003      95.078284      322.18984    
    850000  -8.0675396      86.128863      291.86312    
    860000  -24.07246       90.332491      306.10786    
    870000  -21.725057      82.608341      279.9332     
    880000  -38.361202      87.067726      295.04463    
    890000  -25.652672      88.646581      300.39486    
    900000  -16.002874      88.821294      300.9869     
    910000   3.8917347      98.041559      332.23143    
    920000   5.4528785      96.322853      326.40728    
    930000   3.9289407      105.29556      356.81291    
    940000  -2.5678909      84.945868      287.85433    
    950000  -27.354809      99.799401      338.18819    
    960000  -18.685052      93.469896      316.73953    
    970000  -15.282905      91.200437      309.04906    
    980000  -15.604289      110.18776      373.39102    
    990000  -25.574498      96.029556      325.41339    
   1000000  -13.413984      100.04209      339.01058    
   1010000  -14.16304       93.705834      317.53905    
   1020000  -3.4329389      81.137375      274.94857    
   1030000  -11.887149      95.583594      323.90217    
   1040000  -25.039364      97.160009      329.24414    
   1050000  -21.696497      79.0902        268.01134    
   1060000  -4.2603576      77.860595      263.84461    
   1070000  -11.309766      98.296269      333.09456    
   1080000  -4.0849405      92.910412      314.84362    
   1090000  -14.949632      84.418448      286.06707    
   1100000  -21.539436      89.071059      301.83328    
   1110000  -21.049557      81.396748      275.8275     
   1120000  -34.712052      89.178327      302.19678    
   1130000  -9.594233       81.719825      276.9223     
   1140000  -19.72022       88.898013      301.24688    
   1150000  -8.005341       106.42217      360.63063    
   1160000  -13.394178      95.452826      323.45904    
   1170000  -5.3360845      94.320345      319.62143    
   1180000  -14.396984      89.924026      304.72371    
   1190000  -11.347819      83.826327      284.06056    
   1200000  -32.808508      95.542537      323.76304    
   1210000  -0.22892505     87.519378      296.57513    
   1220000  -0.71925894     84.475457      286.26025    
   1230000   3.38692        91.17706       308.96984    
   1240000   8.1378306      81.512394      276.21938    
   1250000  -0.30311734     82.743951      280.39274    
   1260000   7.7559334      92.100331      312.09851    
   1270000   1.6573961      100.62289      340.97873    
   1280000  -1.2932901      102.21748      346.38228    
   1290000  -7.3771403      99.61442       337.56135    
   1300000  -7.9102339      84.809873      287.39348    
   1310000  -21.587592      93.968254      318.4283     
   1320000  -33.466859      99.900054      338.52927    
   1330000  -15.648278      87.74314       297.33339    
   1340000  -33.45679       92.737221      314.25673    
   1350000  -32.233616      87.575979      296.76693    
   1360000  -24.917036      81.272405      275.40614    
   1370000  -10.104316      92.70012       314.131      
   1380000  -14.049744      104.2746       353.3532     
   1390000  -18.872306      95.824104      324.71718    
   1400000  -26.780206      94.216801      319.27055    
   1410000  -14.63815       94.572813      320.47696    
   1420000  -15.16282       82.857055      280.77601    
   1430000  -13.658197      82.380895      279.16245    
   1440000   3.6463062      93.33768       316.29149    
   1450000   1.1526882      101.75936      344.82986    
   1460000  -10.874768      103.19912      349.70875    
   1470000  -2.2038856      101.86367      345.18333    
   1480000  -7.6979667      92.602024      313.79859    
   1490000  -9.545611       82.478982      279.49484    
   1500000  -5.8301508      86.011403      291.46508    
   1510000  -11.725031      93.628355      317.27649    
   1520000  -5.9025111      82.014139      277.91964    
   1530000  -37.945334      100.27287      339.79261    
   1540000  -34.773411      87.278766      295.75977    
   1550000  -43.976841      98.813592      334.8476     
   1560000  -31.33062       84.862946      287.57333    
   1570000  -25.506439      89.708917      303.99477    
   1580000  -9.6356963      99.356077      336.68591    
   1590000  -23.937543      101.05746      342.45136    
   1600000  -18.191181      87.231772      295.60052    
   1610000  -29.08825       84.686092      286.97403    
   1620000  -25.149837      79.272075      268.62766    
   1630000  -30.720086      84.992797      288.01336    
   1640000  -27.567799      82.855914      280.77214    
   1650000  -46.18163       85.361183      289.2617     
   1660000  -32.727649      77.596277      262.94892    
   1670000  -33.942427      82.302946      278.89831    
   1680000  -37.093563      80.288913      272.0734     
   1690000  -31.565667      95.205054      322.61942    
   1700000  -31.449533      83.052736      281.43911    
   1710000  -26.449202      85.464788      289.61278    
   1720000  -12.786188      92.746839      314.28932    
   1730000  -33.635299      90.872734      307.93858    
   1740000  -14.956236      88.489438      299.86235    
   1750000  -12.011887      90.605735      307.0338     
   1760000  -12.924423      88.435706      299.68027    
   1770000  -45.25651       97.440708      330.19534    
   1780000  -35.26008       91.762579      310.95397    
   1790000  -10.6585        77.000095      260.92865    
   1800000  -7.9642177      92.216382      312.49177    
   1810000  -1.9801718      76.918774      260.65308    
   1820000  -15.872217      89.681054      303.90036    
   1830000  -5.875512       89.433193      303.06043    
   1840000  -12.771079      86.822025      294.21202    
   1850000  -32.136401      88.642608      300.38139    
   1860000  -26.20423       85.864229      290.96636    
   1870000  -28.209877      90.76871       307.58607    
   1880000  -25.049479      87.498631      296.50482    
   1890000  -33.295509      105.02835      355.90744    
   1900000  -25.876553      91.718448      310.80443    
   1910000  -25.93595       89.943864      304.79093    
   1920000  -20.898157      73.91511       250.47462    
   1930000  -37.626682      82.530535      279.66954    
   1940000  -29.625934      78.300761      265.33619    
   1950000  -26.329772      94.077318      318.79788    
   1960000  -32.048562      88.407613      299.58507    
   1970000  -34.768179      87.768386      297.41894    
   1980000  -24.206358      89.921802      304.71617    
   1990000  -29.745912      90.411888      306.37692    
   2000000  -35.049014      73.056029      247.56347    
   2010000  -31.371006      94.600491      320.57075    
   2020000  -42.722533      86.021058      291.4978     
   2030000  -44.192109      83.027214      281.35262    
   2040000  -22.401805      84.460983      286.21121    
   2050000  -13.397496      89.432826      303.05919    
   2060000  -11.894792      86.777053      294.05963    
   2070000  -37.393914      78.615736      266.40354    
   2080000  -36.434478      84.430385      286.10752    
   2090000  -31.653771      83.968842      284.5435     
   2100000  -29.045198      95.889053      324.93727    
   2110000  -27.44834       88.124238      298.62481    
   2120000  -30.299392      88.603549      300.24904    
   2130000  -40.39311       95.044277      322.0746     
   2140000  -22.323247      100.82202      341.65353    
   2150000  -21.707403      87.127473      295.24709    
   2160000  -15.0284        78.832118      267.13679    
   2170000  -21.761009      88.935715      301.37464    
   2180000  -8.9580729      85.563874      289.94855    
   2190000  -6.3661347      89.633398      303.73887    
   2200000  -29.518173      91.415059      309.77634    
   2210000  -49.193681      91.718007      310.80294    
   2220000  -33.214264      85.705681      290.42909    
   2230000  -29.158578      103.77377      351.65607    
   2240000  -24.256892      85.414892      289.4437     
   2250000  -31.330709      87.980207      298.13673    
   2260000  -31.738399      91.293645      309.36491    
   2270000  -32.880526      84.729387      287.12074    
   2280000  -32.520863      83.410826      282.65256    
   2290000  -19.351499      84.541753      286.48491    
   2300000  -16.661594      87.685581      297.13834    
   2310000  -17.64728       99.54025       337.31001    
   2320000  -41.133771      102.31048      346.69743    
   2330000  -34.385973      84.57849       286.6094     
   2340000  -24.522404      85.939589      291.22173    
   2350000  -20.678902      93.714552      317.56859    
   2360000  -22.437997      94.725942      320.99586    
   2370000  -11.827427      85.670047      290.30834    
   2380000  -12.322268      91.040063      308.5056     
   2390000  -26.613393      94.04425       318.68583    
   2400000  -15.214181      85.487866      289.69099    
   2410000  -24.970753      88.159684      298.74492    
   2420000  -32.994011      91.039277      308.50294    
   2430000  -33.594937      91.11343       308.75422    
   2440000  -14.193521      92.615283      313.84352    
   2450000  -8.8780758      85.641506      290.21162    
   2460000  -19.270981      90.353287      306.17834    
   2470000  -3.8302886      88.42851       299.65589    
   2480000  -13.80896       94.660396      320.77375    
   2490000  -20.221759      96.212795      326.03433    
   2500000  -18.730105      84.701653      287.02676    
   2510000  -19.594394      94.359844      319.75527    
   2520000  -14.499827      93.257188      316.01873    
   2530000  -14.330443      105.9712       359.10245    
   2540000  -3.1956624      93.953443      318.37811    
   2550000  -18.943291      93.605422      317.19878    
   2560000  -10.251992      88.761388      300.7839     
   2570000  -12.123735      91.89532       311.40379    
   2580000  -15.052412      86.908519      294.50512    
   2590000  -19.517329      76.815023      260.3015     
   2600000  -21.401017      87.896834      297.85421    
   2610000  -20.675342      83.860586      284.17665    
   2620000  -17.541935      90.837145      307.81798    
   2630000  -4.3473279      90.027786      305.07532    
   2640000  -18.161065      90.091171      305.29011    
   2650000  -29.66123       92.538604      313.58367    
   2660000  -21.270839      90.535692      306.79645    
   2670000  -9.5130787      105.7721       358.42774    
   2680000  -10.036319      101.41875      343.67564    
   2690000  -0.065453094    80.234261      271.8882     
   2700000  -20.720185      85.428946      289.49132    
   2710000  -36.923284      91.687847      310.70073    
   2720000  -23.806879      78.859632      267.23002    
   2730000  -13.135704      80.336564      272.23487    
   2740000  -15.657601      89.267616      302.49935    
   2750000  -7.2183103      98.287667      333.06541    
   2760000   2.3462297      93.879304      318.12688    
   2770000  -0.46810617     97.619405      330.80088    
   2780000   3.5381688      100.81223      341.62035    
   2790000  -5.9101995      101.12486      342.67975    
   2800000   6.6381106      95.716446      324.35236    
   2810000  -0.774214       95.52427       323.70114    
   2820000  -3.2515545      83.351294      282.45083    
   2830000  -1.8315639      91.412949      309.76919    
   2840000   7.5569839      90.991667      308.3416     
   2850000   10.626368      96.679386      327.61546    
   2860000   9.1089655      81.522255      276.2528     
   2870000  -3.3999744      91.965025      311.64       
   2880000  -24.154364      100.60189      340.90756    
   2890000  -6.0519058      79.288698      268.68399    
   2900000  -8.2552892      92.822403      314.54538    
   2910000  -18.613772      83.33142       282.38348    
   2920000  -17.9151        82.203035      278.55974    
   2930000  -23.364211      110.12539      373.17967    
   2940000  -22.028103      90.623723      307.09476    
   2950000  -24.6053        88.434898      299.67753    
   2960000   5.3029874      97.14354       329.18833    
   2970000  -10.423295      87.468247      296.40186    
   2980000   0.24758251     85.092484      288.35116    
   2990000  -6.136527       87.543928      296.65832    
   3000000  -12.667444      91.090176      308.67542    
   3010000  -13.302465      86.0878        291.72397    
   3020000  -14.058228      83.48656       282.9092     
   3030000  -13.831444      85.401609      289.39869    
   3040000   3.4366433      84.670606      286.92155    
   3050000   5.4566201      82.062276      278.08276    
   3060000  -2.6477885      87.738979      297.31928    
   3070000  -10.166262      91.937151      311.54555    
   3080000  -7.613844       103.20486      349.72819    
   3090000  -6.9108105      84.804368      287.37483    
   3100000  -23.594684      85.847579      290.90994    
   3110000  -19.245891      80.695158      273.45003    
   3120000  -30.847677      99.081835      335.75659    
   3130000  -17.253532      70.55412       239.0853     
   3140000  -37.136718      84.412539      286.04704    
   3150000  -36.770619      87.981535      298.14123    
   3160000  -53.688812      96.543766      327.15589    
   3170000  -44.834533      86.543514      293.26824    
   3180000  -44.065705      88.387672      299.5175     
   3190000  -30.955341      89.58216       303.56524    
   3200000  -23.469362      108.27983      366.92566    
   3210000  -21.582427      91.243648      309.19549    
   3220000  -8.46893        90.319011      306.06219    
   3230000  -15.205584      90.09673       305.30895    
   3240000  -15.174025      97.110172      329.07525    
   3250000  -4.3166783      74.771833      253.37778    
   3260000  -21.743568      98.897859      335.13315    
   3270000  -15.935843      94.261637      319.42248    
   3280000  -8.4929816      93.970539      318.43604    
   3290000  -16.842952      90.820367      307.76112    
   3300000  -13.441846      90.751015      307.52611    
   3310000  -1.9084115      86.569511      293.35633    
   3320000   0.24767546     88.006653      298.22635    
   3330000  -0.50633818     79.074778      267.95908    
   3340000  -20.55017       95.707438      324.32184    
   3350000   12.312184      95.892351      324.94845    
   3360000  -10.555881      100.90769      341.94382    
   3370000  -14.316971      89.403943      302.96132    
   3380000  -14.345145      91.773936      310.99246    
   3390000  -17.095539      73.825317      250.17034    
   3400000  -24.479587      83.207507      281.96358    
   3410000  -23.836958      85.937537      291.21477    
   3420000  -4.891534       68.971259      233.7215     
   3430000   8.9805717      73.991114      250.73218    
   3440000   3.1808591      90.041385      305.1214     
   3450000  -2.0338631      93.142935      315.63156    
   3460000   7.2473897      85.196509      288.70367    
   3470000  -9.7792188      91.889931      311.38553    
   3480000  -3.1081397      97.486012      330.34886    
   3490000  -8.5855607      81.462018      276.04868    
   3500000  -15.144349      86.016307      291.4817     
   3510000  -5.7528653      80.40206       272.45682    
   3520000  -11.319122      95.687381      324.25387    
   3530000  -0.29404829     79.900059      270.7557     
   3540000  -5.4210944      99.863348      338.40489    
   3550000  -0.45345492     89.473349      303.19651    
   3560000   5.3741486      75.60854       256.21311    
   3570000  -1.2181997      80.252203      271.949      
   3580000  -5.7338613      86.194643      292.08602    
   3590000   1.6101705      80.032289      271.20378    
   3600000   6.6080365      86.615428      293.51193    
   3610000   4.6846799      84.305564      285.68454    
   3620000  -3.1042308      81.157984      275.0184     
   3630000  -12.051087      95.834558      324.75261    
   3640000  -6.3657682      97.796438      331.40079    
   3650000  -1.5311847      82.051655      278.04677    
   3660000  -4.819504       79.584321      269.68576    
   3670000   4.7487925      77.6668        263.1879     
   3680000   3.7183358      88.517958      299.959      
   3690000  -1.372459       92.340745      312.91319    
   3700000  -12.208421      92.764009      314.3475     
   3710000   11.255891      81.582204      276.45595    
   3720000   4.428459       91.507674      310.09019    
   3730000  -6.0783871      91.418135      309.78676    
   3740000  -20.044581      89.051587      301.76729    
   3750000  -20.645885      95.722126      324.37161    
   3760000  -24.766367      74.722135      253.20937    
   3770000  -32.877376      80.553105      272.96866    
   3780000  -22.731975      84.328788      285.76324    
   3790000  -8.7466302      75.882103      257.14013    
   3800000  -10.555601      96.765126      327.906      
   3810000  -16.447103      85.161735      288.58583    
   3820000  -11.030785      86.731383      293.90487    
   3830000  -10.346065      81.417343      275.89729    
   3840000  -27.226968      85.461894      289.60297    
   3850000  -28.635016      91.033356      308.48287    
   3860000  -28.905511      92.058681      311.95737    
   3870000  -27.884786      85.449409      289.56067    
   3880000  -30.301098      85.433228      289.50583    
   3890000  -15.893231      84.650059      286.85192    
   3900000  -20.378995      85.468885      289.62666    
   3910000  -23.380549      86.188895      292.06655    
   3920000  -8.7324824      79.348506      268.88666    
   3930000  -18.761007      87.255256      295.6801     
   3940000  -21.269676      92.925054      314.89323    
   3950000  -18.076603      85.340987      289.19326    
   3960000  -5.7900437      82.697261      280.23452    
   3970000  -30.738683      90.931374      308.13729    
   3980000  -25.604087      81.359864      275.70251    
   3990000  -26.471392      89.066844      301.81899    
   4000000  -30.448663      84.927691      287.79273    
Loop time of 331.8 on 1 procs for 4000000 steps with 100 atoms

Performance: 10415.904 ns/day, 0.002 hours/ns, 12055.445 timesteps/s, 1.206 Matom-step/s
99.4% CPU use with 1 MPI tasks x 1 OpenMP threads

MPI task timing breakdown:
Section |  min time  |  avg time  |  max time  |%varavg| %total
---------------------------------------------------------------
Pair    | 289.58     | 289.58     | 289.58     |   0.0 | 87.27
Bond    | 25.843     | 25.843     | 25.843     |   0.0 |  7.79
Neigh   | 1.9602     | 1.9602     | 1.9602     |   0.0 |  0.59
Comm    | 2.3971     | 2.3971     | 2.3971     |   0.0 |  0.72
Output  | 0.12839    | 0.12839    | 0.12839    |   0.0 |  0.04
Modify  | 10.866     | 10.866     | 10.866     |   0.0 |  3.27
Other   |            | 1.027      |            |       |  0.31

Nlocal:            100 ave         100 max         100 min
Histogram: 1 0 0 0 0 0 0 0 0 0
Nghost:              0 ave           0 max           0 min
Histogram: 1 0 0 0 0 0 0 0 0 0
Neighs:            743 ave         743 max         743 min
Histogram: 1 0 0 0 0 0 0 0 0 0

Total # of neighbors = 743
Ave neighs/atom = 7.43
Ave special neighs/atom = 5.88
Neighbor list builds = 9105
Dangerous builds = 0

# ===============================
# MAIN SA LOOP — 10 cycles
# ===============================
variable c loop ${ncycle}
variable c loop 10
label cyc

  # Heat 298 → 500
  variable seedH equal 44000+${c}
  variable seedH equal 44000+1
  unfix fxl
  fix fxl all langevin ${T_eq} ${T_high} 100000.0 ${seedH}
  fix fxl all langevin 298 ${T_high} 100000.0 ${seedH}
  fix fxl all langevin 298 500 100000.0 ${seedH}
  fix fxl all langevin 298 500 100000.0 44001
  run ${n_heat}
  run 8000000
Generated 0 of 6 mixed pair_coeff terms from geometric mixing rule
Per MPI rank memory allocation (min/avg/max) = 9.632 | 9.632 | 9.632 Mbytes
   Step         PotEng         KinEng          Temp     
   4000000  -30.448663      84.927691      287.79273    
   4010000  -29.307687      79.845211      270.56983    
   4020000  -9.3139673      77.746686      263.45861    
   4030000  -1.6378781      94.136661      318.99898    
   4040000  -15.84272       81.547436      276.33813    
   4050000  -21.798357      78.437375      265.79913    
   4060000  -26.8817        93.92455       318.2802     
   4070000  -17.772617      80.39749       272.44133    
   4080000  -17.518718      91.049317      308.53696    
   4090000  -8.5946936      85.121266      288.4487     
   4100000  -6.4338665      83.312251      282.31852    
   4110000  -17.308118      89.783036      304.24594    
   4120000  -2.5530523      97.286297      329.67209    
   4130000  -7.8439282      85.966662      291.31347    
   4140000  -12.95305       84.149445      285.1555     
   4150000  -26.367607      84.43039       286.10754    
   4160000  -35.323045      81.00886       274.51307    
   4170000  -24.611803      80.817746      273.86545    
   4180000  -21.642789      82.547394      279.72667    
   4190000  -21.31358       89.14503       302.08394    
   4200000  -19.94676       89.885739      304.59397    
   4210000  -10.102428      98.172391      332.67477    
   4220000  -3.5961099      88.226576      298.97159    
   4230000  -9.6051994      104.23734      353.22693    
   4240000  -17.120058      93.708834      317.54921    
   4250000  -15.318592      100.7884       341.53959    
   4260000  -18.783852      104.50638      354.13862    
   4270000  -21.865926      94.893144      321.56246    
   4280000  -12.52295       108.11466      366.36593    
   4290000  -5.5889554      89.733769      304.07899    
   4300000  -2.1890938      92.295145      312.75867    
   4310000  -7.4204285      90.738611      307.48408    
   4320000  -23.430091      85.666224      290.29538    
   4330000  -6.3417621      83.603948      283.30699    
   4340000  -12.802502      87.381407      296.10759    
   4350000  -0.46289425     79.862049      270.62689    
   4360000   6.5922483      87.757785      297.38301    
   4370000  -6.4595336      96.367294      326.55788    
   4380000  -11.138499      92.806221      314.49055    
   4390000  -20.771832      90.088186      305.27999    
   4400000  -21.197748      100.89867      341.91327    
   4410000  -8.6929612      94.173596      319.12414    
   4420000   1.4140254      104.51934      354.18256    
   4430000  -7.9905409      106.53827      361.02404    
   4440000  -6.7439805      111.42696      377.59026    
   4450000  -11.424591      97.567048      330.62346    
   4460000  -25.174771      93.503174      316.85229    
   4470000  -10.592385      92.672458      314.03727    
   4480000  -6.7168594      85.143524      288.52412    
   4490000  -1.8256865      86.26468       292.32336    
   4500000  -10.628137      91.277744      309.31103    
   4510000   13.601402      91.084885      308.65749    
   4520000   3.4236406      82.724526      280.32691    
   4530000  -17.046807      89.60733       303.65053    
   4540000  -13.725806      90.93852       308.16151    
   4550000  -13.592753      105.01989      355.87876    
   4560000  -20.318627      95.209082      322.63307    
   4570000  -13.914932      96.464018      326.88565    
   4580000  -14.630529      83.553654      283.13656    
   4590000  -15.394064      90.103632      305.33234    
   4600000  -19.206937      80.617894      273.18821    
   4610000  -20.725968      92.350128      312.94499    
   4620000  -26.50318       93.519292      316.90691    
   4630000  -19.532595      100.46515      340.44419    
   4640000  -10.951078      97.833476      331.5263     
   4650000  -12.70132       85.987007      291.38241    
   4660000  -7.4828942      88.464449      299.77767    
   4670000  -9.5659872      89.766313      304.18927    
   4680000  -5.8590976      91.665807      310.62605    
   4690000  -17.489689      94.989377      321.88856    
   4700000  -17.073824      91.477092      309.98655    
   4710000  -13.86504       78.055336      264.50452    
   4720000  -11.5473        95.957114      325.16791    
   4730000  -9.726374       98.867705      335.03097    
   4740000  -10.592582      92.784399      314.4166     
   4750000   0.69972094     94.454151      320.07485    
   4760000  -12.311855      109.01893      369.43023    
   4770000  -4.5271779      113.79136      385.60246    
   4780000   0.8857718      84.637916      286.81078    
   4790000  -6.7570971      90.272605      305.90493    
   4800000  -19.462519      112.29497      380.53167    
   4810000  -29.939658      78.805946      267.0481     
   4820000  -30.145192      86.564111      293.33803    
   4830000  -22.488002      82.146248      278.36731    
   4840000  -12.400362      94.785748      321.19853    
   4850000  -3.1360007      94.402785      319.90079    
   4860000  -5.4811657      113.53809      384.7442     
   4870000  -4.4604151      92.305202      312.79275    
   4880000  -6.7064713      85.651538      290.24562    
   4890000  -12.684713      95.571103      323.85985    
   4900000  -8.7118432      95.479854      323.55063    
   4910000   2.8090706      94.953611      321.76736    
   4920000  -9.9662274      106.76037      361.77668    
   4930000  -11.503966      101.23018      343.03664    
   4940000  -14.342045      86.784505      294.08488    
   4950000  -26.006158      90.583315      306.95783    
   4960000  -29.967091      100.30467      339.90037    
   4970000  -17.204632      78.113659      264.70216    
   4980000  -23.279646      82.965594      281.14381    
   4990000  -30.106086      92.877765      314.73299    
   5000000  -20.248913      98.714432      334.51158    
   5010000  -26.938137      92.026697      311.84899    
   5020000  -18.620178      88.467226      299.78708    
   5030000  -7.0944936      101.45986      343.81495    
   5040000  -10.539587      93.932834      318.30828    
   5050000  -1.821058       91.47684       309.9857     
   5060000  -3.1498298      97.425377      330.14338    
   5070000  -2.8867546      107.82927      365.39886    
   5080000  -5.4636275      89.153887      302.11395    
   5090000  -3.8375854      90.066619      305.20691    
   5100000   29.098258      92.184455      312.38358    
   5110000   11.67345       85.701496      290.41491    
   5120000   7.3714259      100.88019      341.85063    
   5130000  -12.693356      97.410147      330.09178    
   5140000  -3.6509948      88.214118      298.92938    
   5150000  -7.7176167      90.504902      306.69211    
   5160000  -18.217766      102.40482      347.01712    
   5170000  -18.344559      97.875185      331.66764    
   5180000  -8.0087613      96.030505      325.41661    
   5190000  -22.936218      108.0308       366.08177    
   5200000  -16.363047      89.035693      301.71343    
   5210000  -14.42417       98.668866      334.35717    
   5220000  -12.585696      98.86626       335.02608    
   5230000  -0.95211721     97.00818       328.72964    
   5240000  -21.941912      90.116608      305.37631    
   5250000  -31.621083      96.146599      325.81001    
   5260000  -21.334856      85.601929      290.07751    
   5270000  -10.964444      91.188833      309.00974    
   5280000  -16.945718      87.263074      295.70659    
   5290000  -15.427402      87.954045      298.04808    
   5300000  -17.758945      95.572838      323.86572    
   5310000  -16.935099      95.684419      324.24384    
   5320000  -5.6151227      88.271857      299.12504    
   5330000  -6.502006       90.499386      306.67342    
   5340000   10.889946      80.173529      271.6824     
   5350000   23.792336      81.419663      275.90515    
   5360000   21.581185      96.628405      327.4427     
   5370000   16.726622      96.678456      327.61231    
   5380000  -1.181379       101.7477       344.79036    
   5390000  -0.73239203     106.5263       360.98348    
   5400000  -10.650752      105.74018      358.3196     
   5410000   6.9398925      100.78371      341.52368    
   5420000  -17.467017      116.39653      394.43054    
   5430000   9.5682545      98.860779      335.0075     
   5440000  -1.2418103      95.774001      324.5474     
   5450000   9.0862847      106.29619      360.20372    
   5460000   6.5893752      107.85805      365.49638    
   5470000   11.029523      87.764354      297.40527    
   5480000  -9.2530729      97.187377      329.33688    
   5490000  -12.890244      99.360266      336.7001     
   5500000  -7.3113233      89.821381      304.37588    
   5510000  -2.9084652      80.469701      272.68603    
   5520000   1.9882617      83.416799      282.6728     
   5530000  -7.432971       95.572217      323.86362    
   5540000  -13.218057      89.171764      302.17453    
   5550000   5.2528509      92.555566      313.64116    
   5560000  -0.1942782      112.73931      382.03741    
   5570000  -1.0422582      93.518921      316.90566    
   5580000  -2.3003048      101.93765      345.43402    
   5590000   3.650462       101.93723      345.4326     
   5600000  -5.1857468      112.4223       380.96317    
   5610000  -5.8843799      99.614187      337.56056    
   5620000  -8.4052837      96.881088      328.29896    
   5630000  -6.2960351      116.64106      395.25919    
   5640000   16.398787      95.728967      324.39479    
   5650000   23.044369      95.575549      323.87491    
   5660000   14.251064      119.93315      406.415      
   5670000   26.091111      110.24693      373.59151    
   5680000   27.983202      102.46797      347.23112    
   5690000   30.192966      115.146        390.19289    
   5700000   24.174529      110.16997      373.33073    
   5710000   15.853121      98.202382      332.77641    
   5720000   32.197559      93.943343      318.34389    
   5730000   31.261097      93.213275      315.86992    
   5740000   21.456429      97.819987      331.48059    
   5750000   24.491248      105.1058       356.16989    
   5760000   17.178143      104.60282      354.46543    
   5770000   38.081537      116.77725      395.72069    
   5780000   25.105776      112.51746      381.28563    
   5790000   35.283862      114.44373      387.81312    
   5800000   9.6620168      115.4935       391.37045    
   5810000   20.096775      103.02864      349.13106    
   5820000   12.381826      98.711624      334.50206    
   5830000   11.483838      112.6629       381.77848    
   5840000   5.1559751      97.832263      331.52219    
   5850000   15.789599      98.41007       333.48019    
   5860000   26.362736      93.779033      317.78709    
   5870000   11.528859      114.62872      388.44       
   5880000   26.209721      87.011717      294.85483    
   5890000   24.684117      107.70567      364.98001    
   5900000   16.206914      101.17634      342.8542     
   5910000   35.835057      101.07372      342.50646    
   5920000   44.907484      94.985928      321.87687    
   5930000   22.166371      103.36337      350.26535    
   5940000   21.869112      108.23472      366.77279    
   5950000   27.843341      95.530029      323.72066    
   5960000   32.107276      116.73012      395.56097    
   5970000   16.243003      106.49928      360.89194    
   5980000   18.939991      131.44497      445.42488    
   5990000   29.134517      97.417023      330.11508    
   6000000   23.559893      110.80897      375.49609    
   6010000   31.358         98.13054       332.53295    
   6020000   8.7849071      111.28874      377.12187    
   6030000   22.186547      102.79738      348.3474     
   6040000   40.116841      102.00976      345.67837    
   6050000   18.613916      106.24442      360.02828    
   6060000   10.539836      110.50921      374.48029    
   6070000   23.692158      100.12325      339.28561    
   6080000   2.8840761      105.87726      358.78412    
   6090000   20.788803      112.16488      380.09085    
   6100000   16.07516       113.99466      386.29137    
   6110000   21.147647      109.32098      370.45377    
   6120000   17.628417      112.02412      379.61384    
   6130000   4.6777507      120.15855      407.17884    
   6140000   10.621895      113.54034      384.75183    
   6150000   8.7460864      98.431107      333.55148    
   6160000   8.7685371      99.20193       336.16355    
   6170000   15.97424       93.505354      316.85968    
   6180000   2.9532798      86.097228      291.75592    
   6190000   20.005593      93.073616      315.39666    
   6200000   10.61453       109.64922      371.56606    
   6210000   10.972892      106.68115      361.50825    
   6220000   31.507786      102.29461      346.64365    
   6230000   32.40296       116.53014      394.8833     
   6240000   31.059371      108.38482      367.28141    
   6250000   26.036381      102.29502      346.64506    
   6260000   22.468447      98.846796      334.96012    
   6270000   24.114464      103.35864      350.2493     
   6280000   14.937416      100.65517      341.0881     
   6290000   2.907484       113.70665      385.31539    
   6300000   15.876582      113.25366      383.78036    
   6310000   41.06994       113.2072       383.62291    
   6320000   43.657913      113.28129      383.87399    
   6330000   34.772514      119.13144      403.69827    
   6340000   42.116506      99.0389        335.6111     
   6350000   31.653442      106.23037      359.98067    
   6360000   37.053097      98.666572      334.3494     
   6370000   44.567529      96.426175      326.75741    
   6380000   50.549604      106.92766      362.34358    
   6390000   39.079821      97.242146      329.52247    
   6400000   48.181334      107.44707      364.10368    
   6410000   41.508879      93.452526      316.68067    
   6420000   46.296812      95.947612      325.13571    
   6430000   55.89539       104.30619      353.46026    
   6440000   43.034974      127.13567      430.82205    
   6450000   51.141216      97.619687      330.80184    
   6460000   35.009181      110.47536      374.36561    
   6470000   46.938679      97.522415      330.47221    
   6480000   55.00131       108.34526      367.14736    
   6490000   45.786571      104.60253      354.46447    
   6500000   47.853559      95.844506      324.78632    
   6510000   53.799449      100.54207      340.70486    
   6520000   39.592966      100.23336      339.65875    
   6530000   47.551886      108.66651      368.23599    
   6540000   62.929669      106.69113      361.54205    
   6550000   55.246424      133.75413      453.24989    
   6560000   64.84621       104.52446      354.1999     
   6570000   55.953067      120.08465      406.92841    
   6580000   68.480937      115.7598       392.27286    
   6590000   62.381509      115.3866       391.0082     
   6600000   54.258217      126.46739      428.55746    
   6610000   51.660089      100.31421      339.93272    
   6620000   39.137436      110.93532      375.92426    
   6630000   28.956467      125.65425      425.80198    
   6640000   42.250329      103.30851      350.07942    
   6650000   34.880888      113.31071      383.97367    
   6660000   46.371426      111.76528      378.73673    
   6670000   38.549331      118.62751      401.99063    
   6680000   39.485944      92.144846      312.24936    
   6690000   35.22651       106.40322      360.56643    
   6700000   46.734943      112.78368      382.18774    
   6710000   52.505361      119.26952      404.16619    
   6720000   53.974332      114.75775      388.87723    
   6730000   36.404363      103.78853      351.70609    
   6740000   33.428716      110.36971      374.0076     
   6750000   46.80319       111.4348       377.61682    
   6760000   41.884407      113.65633      385.1449     
   6770000   42.612864      107.13024      363.03006    
   6780000   53.441129      112.85509      382.42974    
   6790000   52.050086      111.74977      378.68418    
   6800000   56.310281      107.54837      364.44696    
   6810000   54.995009      111.75608      378.70556    
   6820000   55.316725      109.68116      371.6743     
   6830000   46.553302      116.13253      393.53593    
   6840000   60.129656      109.84659      372.2349     
   6850000   59.945271      113.62319      385.03257    
   6860000   57.040213      114.00748      386.3348     
   6870000   52.496313      113.02337      382.99997    
   6880000   64.958395      103.73835      351.53602    
   6890000   68.286309      98.546863      333.94374    
   6900000   62.836251      105.73138      358.28977    
   6910000   65.060695      101.10458      342.61103    
   6920000   64.111516      95.72146       324.36936    
   6930000   72.700268      97.59932       330.73282    
   6940000   69.839513      111.75738      378.70995    
   6950000   67.996289      106.23122      359.98358    
   6960000   65.93044       99.850752      338.3622     
   6970000   47.736779      98.504841      333.80134    
   6980000   65.290717      113.54839      384.77912    
   6990000   58.267153      105.52177      357.57946    
   7000000   51.478333      112.77262      382.15029    
   7010000   64.244767      115.2267       390.46637    
   7020000   62.158622      104.53967      354.25143    
   7030000   49.443694      104.67367      354.70552    
   7040000   66.471082      102.1922       346.29662    
   7050000   67.537164      124.36995      421.4499     
   7060000   64.96763       119.90277      406.31208    
   7070000   71.114903      136.99522      464.2329     
   7080000   68.55801       109.74992      371.90732    
   7090000   74.350288      106.66643      361.45834    
   7100000   61.820382      123.78304      419.46105    
   7110000   78.461055      110.30243      373.77958    
   7120000   54.153917      121.62611      412.15192    
   7130000   61.175176      118.61122      401.93541    
   7140000   65.327833      110.94593      375.96019    
   7150000   55.464648      120.78754      409.31027    
   7160000   71.204074      113.52905      384.71357    
   7170000   53.322918      105.31882      356.89172    
   7180000   65.960576      108.17087      366.5564     
   7190000   58.819388      105.82719      358.61444    
   7200000   51.104797      100.97603      342.1754     
   7210000   64.878139      101.91208      345.34739    
   7220000   48.253772      122.73156      415.89792    
   7230000   69.690647      116.85378      395.98       
   7240000   66.170302      114.8839       389.30473    
   7250000   69.625173      107.46748      364.17287    
   7260000   62.950656      113.91803      386.03172    
   7270000   62.304044      95.975458      325.23007    
   7280000   79.465803      104.55035      354.28762    
   7290000   83.324452      116.55427      394.96509    
   7300000   75.028994      110.60153      374.79313    
   7310000   63.872804      109.75676      371.93049    
   7320000   62.035136      114.89296      389.33543    
   7330000   72.515102      116.11224      393.46719    
   7340000   70.861509      100.19594      339.53195    
   7350000   65.932819      102.67833      347.94395    
   7360000   67.747072      102.79241      348.33055    
   7370000   71.54358       120.14738      407.14097    
   7380000   80.364531      116.30588      394.12337    
   7390000   75.261907      116.57581      395.03807    
   7400000   67.361183      109.35517      370.56963    
   7410000   58.745044      114.83108      389.12573    
   7420000   66.076959      111.5997       378.17562    
   7430000   60.424621      105.33299      356.93975    
   7440000   76.439674      114.89127      389.32971    
   7450000   70.82468       131.74567      446.44385    
   7460000   63.216667      110.83489      375.58394    
   7470000   69.151329      93.718471      317.58187    
   7480000   61.381146      103.98488      352.37144    
   7490000   72.062039      127.87592      433.33053    
   7500000   73.721296      127.54971      432.22511    
   7510000   79.115379      96.100527      325.65389    
   7520000   74.826303      113.34001      384.07298    
   7530000   82.921825      119.68675      405.58005    
   7540000   49.921876      134.48595      455.7298     
   7550000   75.330855      98.378505      333.37323    
   7560000   62.918335      126.48443      428.6152     
   7570000   72.866729      96.24539       326.14479    
   7580000   68.753791      120.41486      408.04739    
   7590000   83.133294      121.30042      411.04826    
   7600000   64.245018      115.5652       391.61343    
   7610000   69.758494      105.09975      356.14938    
   7620000   49.372677      117.29954      397.49054    
   7630000   54.407087      105.40312      357.1774     
   7640000   56.800623      114.65555      388.53091    
   7650000   46.735601      123.80917      419.54961    
   7660000   57.610511      111.19237      376.7953     
   7670000   59.704459      130.32598      441.633      
   7680000   82.644064      104.55829      354.31453    
   7690000   73.573605      107.61703      364.67962    
   7700000   64.643663      123.05321      416.98791    
   7710000   70.566952      116.98946      396.43978    
   7720000   84.558588      120.72764      409.10728    
   7730000   71.852642      130.47005      442.12118    
   7740000   66.543341      113.74732      385.45321    
   7750000   82.932328      123.48818      418.46188    
   7760000   77.692357      128.72871      436.22036    
   7770000   75.08449       111.8907       379.16171    
   7780000   54.608314      119.14283      403.73688    
   7790000   62.20581       100.85279      341.75778    
   7800000   69.817597      104.83454      355.25067    
   7810000   48.573106      131.34393      445.08248    
   7820000   72.225528      122.05861      413.61753    
   7830000   55.420073      124.93565      423.36687    
   7840000   56.322223      108.34504      367.14661    
   7850000   72.019582      100.89976      341.91696    
   7860000   60.326765      121.74605      412.55834    
   7870000   58.625024      138.63832      469.80085    
   7880000   75.973543      130.57562      442.47893    
   7890000   91.604494      135.61622      459.55993    
   7900000   93.353362      139.64632      473.21662    
   7910000   77.265117      122.24759      414.25791    
   7920000   71.846258      116.37999      394.37448    
   7930000   67.163298      113.52839      384.71132    
   7940000   55.378618      108.31627      367.04914    
   7950000   72.553041      109.45917      370.92205    
   7960000   66.433991      119.13969      403.72623    
   7970000   67.497237      115.55342      391.5735     
   7980000   74.393864      124.57722      422.15228    
   7990000   68.494541      131.90057      446.96875    
   8000000   84.083652      126.07927      427.24224    
   8010000   82.459684      113.88759      385.92854    
   8020000   66.591499      118.62539      401.98342    
   8030000   80.018714      121.85248      412.91901    
   8040000   86.237314      118.35798      401.07726    
   8050000   69.132479      126.6884       429.3064     
   8060000   70.954307      115.96394      392.96464    
   8070000   67.055342      100.9437       342.06584    
   8080000   79.015707      119.49954      404.94563    
   8090000   64.031459      123.50001      418.50196    
   8100000   68.361641      125.79347      426.27378    
   8110000   70.57352       113.64049      385.09121    
   8120000   74.776654      124.99389      423.56423    
   8130000   82.92918       122.59173      415.42409    
   8140000   75.785645      129.70173      439.51762    
   8150000   77.931306      119.29639      404.25724    
   8160000   75.406695      128.20496      434.44554    
   8170000   83.644765      119.43162      404.71549    
   8180000   66.562847      130.63606      442.68375    
   8190000   75.270272      116.08392      393.3712     
   8200000   71.675471      131.4504       445.44327    
   8210000   84.423989      105.64815      358.00771    
   8220000   71.164094      132.90023      450.3563     
   8230000   61.063725      109.68682      371.69348    
   8240000   87.520246      120.62728      408.76718    
   8250000   91.850034      121.67958      412.3331     
   8260000   66.573587      137.20094      464.93003    
   8270000   69.409794      133.61498      452.77834    
   8280000   73.101433      111.98429      379.47888    
   8290000   78.708561      114.44559      387.81945    
   8300000   88.704229      117.64976      398.67733    
   8310000   88.206976      121.12625      410.45803    
   8320000   94.26694       107.86223      365.51053    
   8330000   79.601237      127.06347      430.5774     
   8340000   76.075048      120.36678      407.88443    
   8350000   76.83386       125.90011      426.63512    
   8360000   82.050798      131.24604      444.75078    
   8370000   77.150481      113.59199      384.92685    
   8380000   80.719253      118.38267      401.16094    
   8390000   74.370351      129.42387      438.57601    
   8400000   76.470839      129.28484      438.10488    
   8410000   88.509893      136.37608      462.13484    
   8420000   69.523786      120.29223      407.63181    
   8430000   66.633875      121.26322      410.92221    
   8440000   75.138911      112.25198      380.38599    
   8450000   62.30181       107.29896      363.60178    
   8460000   73.387581      120.61227      408.71633    
   8470000   87.324489      104.30128      353.44362    
   8480000   73.898012      116.76821      395.69006    
   8490000   92.137847      116.00772      393.113      
   8500000   99.088429      125.73195      426.06529    
   8510000   92.62668       133.37194      451.95478    
   8520000   65.620432      134.85566      456.98262    
   8530000   78.215321      117.94269      399.66997    
   8540000   75.150215      119.15558      403.78007    
   8550000   65.766076      123.61452      418.88999    
   8560000   60.01149       132.90189      450.36193    
   8570000   74.064881      132.38679      448.61641    
   8580000   71.47549       114.30555      387.34487    
   8590000   68.265986      126.85382      429.86695    
   8600000   48.678947      129.96626      440.41399    
   8610000   57.140694      113.03978      383.0556     
   8620000   72.557868      127.58727      432.35237    
   8630000   63.153644      127.53351      432.1702     
   8640000   64.839734      109.2587       370.24271    
   8650000   73.213808      121.15225      410.54615    
   8660000   79.195594      131.57158      445.85392    
   8670000   68.53612       124.75188      422.74414    
   8680000   56.552805      132.6004       449.34025    
   8690000   61.282346      120.19912      407.31631    
   8700000   78.09967       114.47151      387.90727    
   8710000   81.146041      128.04826      433.91454    
   8720000   77.624806      132.4439       448.80992    
   8730000   80.315239      119.99153      406.61284    
   8740000   87.233155      120.87001      409.58974    
   8750000   75.807694      119.23226      404.03992    
   8760000   76.110969      123.23718      417.6113     
   8770000   72.450011      132.38755      448.61899    
   8780000   78.954697      117.03943      396.60912    
   8790000   73.024095      123.87152      419.7609     
   8800000   71.372368      145.58437      493.33877    
   8810000   99.63115       106.33414      360.33231    
   8820000   78.765321      136.92942      464.00994    
   8830000   77.765316      133.96848      453.97625    
   8840000   96.12642       148.13837      501.99348    
   8850000   87.487078      127.75884      432.93379    
   8860000   80.329782      126.49543      428.65248    
   8870000   87.446749      131.77346      446.53803    
   8880000   64.554772      131.78645      446.58204    
   8890000   81.974099      111.74942      378.68299    
   8900000   81.146671      114.26089      387.19355    
   8910000   84.660574      133.55682      452.58128    
   8920000   82.676418      140.35581      475.62087    
   8930000   101.61333      132.72303      449.75583    
   8940000   96.97463       133.66255      452.93954    
   8950000   89.597228      125.2766       424.52225    
   8960000   76.688484      130.82125      443.3113     
   8970000   92.546873      133.00146      450.69935    
   8980000   74.148307      126.94603      430.17942    
   8990000   74.125713      132.14167      447.78579    
   9000000   65.354738      132.62354      449.41868    
   9010000   81.116936      133.65298      452.90713    
   9020000   79.530717      126.32166      428.06363    
   9030000   84.696488      137.8684       467.19183    
   9040000   87.340549      122.82969      416.23048    
   9050000   93.000518      121.33604      411.16896    
   9060000   92.978262      122.66594      415.67556    
   9070000   81.766857      136.2326       461.64863    
   9080000   71.048526      135.56327      459.38048    
   9090000   63.224776      124.85485      423.09306    
   9100000   72.959527      144.79152      490.65207    
   9110000   88.756914      116.47012      394.67991    
   9120000   76.680171      120.17119      407.22164    
   9130000   82.419478      132.63206      449.44755    
   9140000   82.383634      128.65935      435.98533    
   9150000   86.123573      145.00907      491.38928    
   9160000   77.008621      123.44486      418.31509    
   9170000   75.631053      132.44744      448.82193    
   9180000   75.673108      132.87933      450.28549    
   9190000   84.683183      140.52357      476.18934    
   9200000   72.185373      140.02476      474.49905    
   9210000   71.404185      138.47379      469.2433     
   9220000   71.150192      125.66992      425.85509    
   9230000   78.0593        145.94433      494.55858    
   9240000   66.376515      160.47455      543.79684    
   9250000   59.555157      120.38477      407.94541    
   9260000   69.985558      115.08979      390.00241    
   9270000   63.442944      133.49743      452.38002    
   9280000   82.926376      118.48549      401.50938    
   9290000   88.886702      122.27228      414.34159    
   9300000   66.545037      131.68737      446.24631    
   9310000   90.006964      132.11692      447.70191    
   9320000   86.704953      122.54929      415.28026    
   9330000   85.937452      134.47029      455.67673    
   9340000   69.6109        138.78507      470.29811    
   9350000   88.821438      132.35993      448.52538    
   9360000   90.205083      106.96556      362.47201    
   9370000   62.603598      139.6069       473.08306    
   9380000   60.081197      138.98534      470.97676    
   9390000   79.860241      119.38921      404.57177    
   9400000   83.39184       126.65409      429.19014    
   9410000   96.96251       131.0908       444.2247     
   9420000   85.32011       126.05164      427.1486     
   9430000   72.321276      133.47321      452.29795    
   9440000   87.706856      148.69761      503.88855    
   9450000   82.078779      125.57633      425.53793    
   9460000   73.199415      133.0917       451.00512    
   9470000   83.357492      134.19227      454.73461    
   9480000   55.807067      150.47222      509.90215    
   9490000   77.034242      112.71011      381.93846    
   9500000   76.857322      101.66336      344.50454    
   9510000   69.589303      120.85348      409.53372    
   9520000   69.57906       111.19872      376.81684    
   9530000   97.428661      120.68781      408.97231    
   9540000   89.788117      117.14841      396.97842    
   9550000   82.510364      127.61369      432.44189    
   9560000   89.497151      130.25393      441.38884    
   9570000   76.856741      139.94809      474.23922    
   9580000   90.313034      139.44932      472.54907    
   9590000   73.009626      121.29436      411.02771    
   9600000   71.122567      144.82105      490.75213    
   9610000   72.86297       136.69945      463.23064    
   9620000   95.590975      143.76395      487.16995    
   9630000   79.060247      144.11769      488.36866    
   9640000   81.785641      137.27562      465.18307    
   9650000   96.246723      119.17407      403.84273    
   9660000   94.858109      118.51534      401.61052    
   9670000   94.138054      123.715        419.23048    
   9680000   97.534182      136.87257      463.81727    
   9690000   95.201483      140.43834      475.90052    
   9700000   87.264617      138.90326      470.69864    
   9710000   79.528527      126.9643       430.24133    
   9720000   82.827895      140.05599      474.60488    
   9730000   71.250825      124.8182       422.96889    
   9740000   83.431981      110.29564      373.75657    
   9750000   53.481997      134.14687      454.58075    
   9760000   74.899217      137.12377      464.66852    
   9770000   64.596461      139.36161      472.25183    
   9780000   86.258072      122.49363      415.09167    
   9790000   81.815043      116.79693      395.78738    
   9800000   83.807304      129.70129      439.51611    
   9810000   98.983534      132.33218      448.43135    
   9820000   71.497659      147.81781      500.9072     
   9830000   84.970341      102.39221      346.9744     
   9840000   78.265198      118.07974      400.13441    
   9850000   87.649856      133.70254      453.07505    
   9860000   85.141821      134.26252      454.97266    
   9870000   84.081984      143.69493      486.93606    
   9880000   92.646405      155.4634       526.81565    
   9890000   86.731519      142.22515      481.95547    
   9900000   91.182197      136.24739      461.69874    
   9910000   86.667872      124.09232      420.5091     
   9920000   94.586135      151.7173       514.12132    
   9930000   83.179723      143.61376      486.661      
   9940000   83.444521      141.82314      480.59319    
   9950000   87.170389      145.61078      493.42826    
   9960000   89.938351      134.41073      455.47489    
   9970000   77.57983       140.99151      477.77505    
   9980000   90.723764      127.45865      431.91651    
   9990000   86.196622      118.04975      400.03278    
  10000000   79.117649      124.006        420.2166     
  10010000   74.722213      104.73916      354.92744    
  10020000   65.482117      143.26572      485.48163    
  10030000   70.178488      121.36317      411.2609     
  10040000   54.129151      134.97394      457.38344    
  10050000   84.987497      112.70802      381.93136    
  10060000   85.522949      141.98179      481.13078    
  10070000   89.456772      116.51202      394.82189    
  10080000   75.333718      127.04275      430.50718    
  10090000   84.287143      132.49609      448.98681    
  10100000   95.824304      128.85526      436.6492     
  10110000   90.333043      122.86069      416.3355     
  10120000   72.66688       139.51639      472.77636    
  10130000   74.917947      137.84156      467.10087    
  10140000   78.230479      140.38665      475.72536    
  10150000   78.122721      132.63996      449.47434    
  10160000   82.449977      118.40483      401.23604    
  10170000   91.589873      156.01247      528.67628    
  10180000   90.910923      145.63802      493.52058    
  10190000   90.608369      130.54521      442.3759     
  10200000   87.013458      138.21907      468.38014    
  10210000   74.498664      135.767        460.07085    
  10220000   81.319297      139.68275      473.34008    
  10230000   98.531932      137.95706      467.49226    
  10240000   96.380267      141.64157      479.97788    
  10250000   96.499054      149.85521      507.81128    
  10260000   90.22211       152.21822      515.81877    
  10270000   89.696639      136.38038      462.14942    
  10280000   93.053221      149.58779      506.90509    
  10290000   96.393999      122.74284      415.93614    
  10300000   74.441955      146.396        496.08914    
  10310000   73.796942      136.77206      463.4767     
  10320000   90.255926      127.88024      433.34517    
  10330000   83.851986      117.68841      398.80832    
  10340000   81.035082      137.35767      465.46114    
  10350000   93.779783      160.2738       543.11655    
  10360000   81.126794      141.96045      481.05846    
  10370000   82.520852      141.74774      480.33766    
  10380000   97.862953      135.06892      457.70528    
  10390000   76.305644      146.15013      495.25596    
  10400000   82.894609      128.79639      436.4497     
  10410000   59.765434      141.40394      479.17263    
  10420000   83.808826      123.32468      417.90783    
  10430000   69.273917      139.9268       474.16707    
  10440000   90.209052      125.92164      426.70809    
  10450000   96.639669      120.53139      408.44227    
  10460000   90.420328      131.11881      444.31963    
  10470000   97.626576      117.44108      397.9702     
  10480000   75.875857      135.38701      458.78321    
  10490000   89.838654      141.12946      478.24251    
  10500000   104.2732       145.67896      493.65931    
  10510000   84.000513      139.5585       472.91904    
  10520000   87.511819      135.79766      460.17475    
  10530000   80.945004      143.84619      487.44865    
  10540000   84.560968      158.80681      538.14539    
  10550000   97.387324      160.33353      543.31896    
  10560000   90.432295      142.27638      482.12906    
  10570000   82.141484      151.47042      513.28472    
  10580000   65.085327      141.46216      479.36993    
  10590000   77.850605      120.36924      407.89277    
  10600000   77.679445      120.32538      407.74415    
  10610000   78.848618      118.0381       399.99328    
  10620000   84.656829      126.28407      427.93624    
  10630000   82.763409      130.87046      443.47805    
  10640000   79.463899      140.82688      477.21718    
  10650000   88.203237      137.52946      466.04326    
  10660000   88.199242      135.42699      458.91868    
  10670000   83.016485      136.07184      461.10387    
  10680000   77.498856      132.77669      449.93765    
  10690000   99.296637      137.22431      465.00921    
  10700000   92.236313      106.28055      360.15074    
  10710000   84.66385       112.40477      380.90375    
  10720000   75.525612      162.49891      550.65675    
  10730000   76.28514       146.08704      495.04216    
  10740000   100.41381      156.59392      530.64662    
  10750000   90.817922      145.58557      493.34283    
  10760000   79.708426      140.95342      477.64598    
  10770000   81.340061      122.83603      416.25196    
  10780000   78.488966      121.28987      411.0125     
  10790000   76.887195      131.78098      446.56352    
  10800000   81.655971      140.96183      477.67446    
  10810000   78.995981      149.69868      507.28086    
  10820000   95.209017      152.02231      515.15489    
  10830000   94.053653      132.05476      447.49126    
  10840000   69.012266      143.18196      485.19777    
  10850000   72.451148      144.09237      488.28286    
  10860000   92.230143      133.48603      452.34139    
  10870000   114.97276      147.61684      500.22615    
  10880000   118.22357      130.80782      443.2658     
  10890000   101.97236      128.86167      436.6709     
  10900000   87.435225      128.83915      436.59461    
  10910000   87.009328      160.402        543.55098    
  10920000   88.962493      129.27185      438.06088    
  10930000   83.043509      130.25921      441.40673    
  10940000   73.347869      139.09292      471.34132    
  10950000   90.353699      152.54902      516.93976    
  10960000   97.447464      140.65723      476.64228    
  10970000   93.976775      147.84571      501.00175    
  10980000   93.575274      145.03612      491.48095    
  10990000   89.127241      160.39468      543.52617    
  11000000   121.85203      132.2289       448.08139    
  11010000   83.761561      169.98136      576.01236    
  11020000   80.692122      159.35714      540.01029    
  11030000   79.164115      169.40917      574.07338    
  11040000   92.31056       133.41665      452.10629    
  11050000   73.104429      140.40757      475.79628    
  11060000   92.427338      121.58153      412.00086    
  11070000   103.24559      164.08953      556.04683    
  11080000   100.01486      146.49291      496.41752    
  11090000   95.133188      154.9043       524.92103    
  11100000   90.650671      149.95296      508.14252    
  11110000   87.851854      151.19621      512.3555     
  11120000   92.337329      132.69429      449.65842    
  11130000   86.434887      152.01939      515.145      
  11140000   86.888559      155.67054      527.51758    
  11150000   85.895133      165.73728      561.63053    
  11160000   96.895298      146.50114      496.44542    
  11170000   132.63309      146.1157       495.1393     
  11180000   80.321452      161.41547      546.98532    
  11190000   93.314144      129.7112       439.5497     
  11200000   96.167053      152.91941      518.19487    
  11210000   86.490276      148.93249      504.68449    
  11220000   86.936749      155.24166      526.06423    
  11230000   81.804994      133.40001      452.04988    
  11240000   81.625438      145.55196      493.22894    
  11250000   96.888182      131.50188      445.61774    
  11260000   84.364919      129.65244      439.35057    
  11270000   78.945574      136.79202      463.54433    
  11280000   88.608623      137.81044      466.99543    
  11290000   81.203603      144.88771      490.97802    
  11300000   108.80869      144.85915      490.88123    
  11310000   93.601057      152.77499      517.7055     
  11320000   110.34661      141.05233      477.98116    
  11330000   102.95891      146.28036      495.69727    
  11340000   87.940435      155.68093      527.55278    
  11350000   93.926568      138.2843       468.60118    
  11360000   99.671348      143.49126      486.24591    
  11370000   97.535137      145.32946      492.47499    
  11380000   91.693423      137.93947      467.43267    
  11390000   91.996882      146.5758       496.69841    
  11400000   75.953262      156.07218      528.8786     
  11410000   105.95416      139.34041      472.17999    
  11420000   81.43098       127.88594      433.36447    
  11430000   86.655162      145.62776      493.48581    
  11440000   96.942958      144.20561      488.6666     
  11450000   89.601127      145.31748      492.43437    
  11460000   94.162346      162.31002      550.01664    
  11470000   98.740698      138.51479      469.38224    
  11480000   84.633495      143.2819       485.53643    
  11490000   93.938546      151.88447      514.68779    
  11500000   78.051881      138.43017      469.09548    
  11510000   101.60334      134.80801      456.82113    
  11520000   98.384864      151.13136      512.13577    
  11530000   97.442964      157.02276      532.09982    
  11540000   100.99735      151.29956      512.70573    
  11550000   104.24038      155.67676      527.53867    
  11560000   111.10065      157.24996      532.86972    
  11570000   95.512663      128.04237      433.89458    
  11580000   74.422995      146.60616      496.80131    
  11590000   97.954957      136.52141      462.62733    
  11600000   101.70216      135.23464      458.26687    
  11610000   73.050017      156.43521      530.1088     
  11620000   85.342554      147.43328      499.60414    
  11630000   101.93405      146.05379      494.92949    
  11640000   84.950473      163.25349      553.21377    
  11650000   97.501498      140.26385      475.30923    
  11660000   90.867624      154.27994      522.80528    
  11670000   90.388343      148.98083      504.84828    
  11680000   87.838441      136.33897      462.00908    
  11690000   93.585506      134.58176      456.05445    
  11700000   91.852173      147.07713      498.39725    
  11710000   99.74338       134.75721      456.64899    
  11720000   100.07353      147.8283       500.94272    
  11730000   100.04227      144.64065      490.1408     
  11740000   95.20482       159.00165      538.80563    
  11750000   98.709772      167.39257      567.23977    
  11760000   98.425187      128.26726      434.65663    
  11770000   65.766365      144.47213      489.56974    
  11780000   83.740627      133.70226      453.07412    
  11790000   90.473276      135.06357      457.68715    
  11800000   108.54934      139.45793      472.57824    
  11810000   108.01761      155.85074      528.12821    
  11820000   105.50105      151.38266      512.98731    
  11830000   86.175368      140.73802      476.91607    
  11840000   94.844528      132.33197      448.43063    
  11850000   94.871252      138.3855       468.94413    
  11860000   110.1405       166.43033      563.97904    
  11870000   106.86828      144.71401      490.38941    
  11880000   90.876676      130.96275      443.79078    
  11890000   95.167335      130.203        441.21626    
  11900000   93.964523      155.31376      526.30858    
  11910000   89.044185      163.6541       554.5713     
  11920000   102.27138      124.949        423.41214    
  11930000   104.00956      133.5198       452.45582    
  11940000   110.00379      155.52864      527.03673    
  11950000   82.428788      163.24101      553.17146    
  11960000   100.05105      137.06618      464.47336    
  11970000   114.34546      137.15675      464.78027    
  11980000   119.78885      159.09964      539.1377     
  11990000   94.44789       161.06833      545.80895    
  12000000   93.17213       163.26516      553.2533     
Loop time of 400.229 on 1 procs for 8000000 steps with 100 atoms

Performance: 17270.115 ns/day, 0.001 hours/ns, 19988.559 timesteps/s, 1.999 Matom-step/s
99.3% CPU use with 1 MPI tasks x 1 OpenMP threads

MPI task timing breakdown:
Section |  min time  |  avg time  |  max time  |%varavg| %total
---------------------------------------------------------------
Pair    | 314.25     | 314.25     | 314.25     |   0.0 | 78.52
Bond    | 52.29      | 52.29      | 52.29      |   0.0 | 13.07
Neigh   | 4.6339     | 4.6339     | 4.6339     |   0.0 |  1.16
Comm    | 5.1383     | 5.1383     | 5.1383     |   0.0 |  1.28
Output  | 0.25459    | 0.25459    | 0.25459    |   0.0 |  0.06
Modify  | 21.789     | 21.789     | 21.789     |   0.0 |  5.44
Other   |            | 1.875      |            |       |  0.47

Nlocal:            100 ave         100 max         100 min
Histogram: 1 0 0 0 0 0 0 0 0 0
Nghost:              0 ave           0 max           0 min
Histogram: 1 0 0 0 0 0 0 0 0 0
Neighs:            250 ave         250 max         250 min
Histogram: 1 0 0 0 0 0 0 0 0 0

Total # of neighbors = 250
Ave neighs/atom = 2.5
Ave special neighs/atom = 5.88
Neighbor list builds = 23623
Dangerous builds = 0

  # Hold at 500
  variable seedHH equal 45000+${c}
  variable seedHH equal 45000+1
  unfix fxl
  fix fxl all langevin ${T_high} ${T_high} 100000.0 ${seedHH}
  fix fxl all langevin 500 ${T_high} 100000.0 ${seedHH}
  fix fxl all langevin 500 500 100000.0 ${seedHH}
  fix fxl all langevin 500 500 100000.0 45001
  run ${n_holdH}
  run 8000000
Generated 0 of 6 mixed pair_coeff terms from geometric mixing rule
Per MPI rank memory allocation (min/avg/max) = 9.633 | 9.633 | 9.633 Mbytes
   Step         PotEng         KinEng          Temp     
  12000000   93.17213       163.26516      553.2533     
  12010000   90.821434      166.61229      564.59568    
  12020000   90.407152      167.30866      566.95545    
  12030000   96.158784      132.56908      449.23414    
  12040000   102.72933      160.20503      542.88352    
  12050000   83.530787      140.78476      477.07445    
  12060000   76.17134       149.61219      506.98776    
  12070000   87.364412      145.23311      492.14847    
  12080000   91.443722      144.26382      488.86385    
  12090000   80.878978      158.21037      536.12426    
  12100000   94.279355      143.33785      485.72604    
  12110000   96.481961      122.99222      416.78121    
  12120000   112.11342      152.95979      518.33171    
  12130000   112.50741      137.47227      465.84946    
  12140000   97.06477       146.76631      497.344      
  12150000   96.555946      153.87085      521.41899    
  12160000   99.3027        150.96758      511.58075    
  12170000   86.443794      148.25253      502.38033    
  12180000   94.633611      132.90197      450.3622     
  12190000   102.0095       147.76445      500.72637    
  12200000   98.402117      142.56018      483.09075    
  12210000   89.765382      130.20892      441.23632    
  12220000   95.676492      138.28995      468.62034    
  12230000   92.589902      162.10862      549.33416    
  12240000   116.57589      176.99822      599.79025    
  12250000   109.38776      165.27909      560.07787    
  12260000   92.520915      182.44146      618.23566    
  12270000   87.370826      170.65739      578.30319    
  12280000   115.3562       156.26285      529.52474    
  12290000   109.50167      144.48369      489.60894    
  12300000   110.27286      142.33629      482.33209    
  12310000   84.443528      164.98097      559.06763    
  12320000   106.05832      128.1476       434.25116    
  12330000   100.61206      141.21572      478.53482    
  12340000   102.66733      139.30652      472.06516    
  12350000   101.54433      126.17016      427.55024    
  12360000   105.29086      133.28671      451.66595    
  12370000   95.457917      156.41638      530.045      
  12380000   84.442851      144.36185      489.19604    
  12390000   92.772254      139.87039      473.97594    
  12400000   104.00152      151.10409      512.04335    
  12410000   109.92819      156.17779      529.23648    
  12420000   113.5193       184.19594      624.18103    
  12430000   88.640312      148.64551      503.71201    
  12440000   98.532008      153.69467      520.82197    
  12450000   88.808696      149.35773      506.12549    
  12460000   92.580743      132.17303      447.89204    
  12470000   103.40253      149.16496      505.47226    
  12480000   95.348111      161.21247      546.29739    
  12490000   104.60371      158.31161      536.46732    
  12500000   102.641        140.81674      477.18279    
  12510000   101.08512      173.33928      587.39128    
  12520000   103.31062      151.86666      514.62745    
  12530000   87.123935      149.53153      506.71445    
  12540000   90.834737      140.04469      474.56658    
  12550000   106.47642      139.66271      473.27218    
  12560000   111.6373       158.54208      537.2483     
  12570000   95.739545      158.10777      535.77657    
  12580000   99.318288      137.67179      466.52557    
  12590000   80.569045      145.03661      491.48259    
  12600000   101.52458      137.86834      467.19161    
  12610000   101.13294      150.23048      509.08296    
[...]
 404760000  -12.646555      97.392735      330.03277    
 404770000  -30.154983      91.806687      311.10344    
 404780000  -21.532703      92.847899      314.63178    
 404790000  -24.422254      82.491616      279.53765    
 404800000  -14.689163      92.886701      314.76327    
 404810000  -26.948449      100.171        339.4474     
 404820000  -17.662797      101.7028       344.6382     
 404830000  -12.162807      78.138376      264.78592    
 404840000  -5.9147902      82.126003      278.29871    
 404850000  -38.904871      89.364762      302.82854    
 404860000  -33.874939      88.472475      299.80487    
 404870000  -15.772919      91.818713      311.1442     
 404880000  -17.654942      100.23922      339.67861    
 404890000  -30.931263      99.751686      338.0265     
 404900000  -23.834619      85.272308      288.96053    
 404910000  -30.068302      90.535612      306.79618    
 404920000  -18.897923      92.095751      312.08299    
 404930000  -12.665216      79.286654      268.67706    
 404940000  -26.164144      84.474163      286.25587    
 404950000  -22.980416      90.738142      307.48249    
 404960000  -16.074352      87.025307      294.90088    
 404970000  -19.198517      86.032079      291.53515    
 404980000  -31.068257      81.85689       277.38677    
 404990000  -22.854054      75.670773      256.424      
 405000000  -28.422161      89.633178      303.73812    
 405010000  -35.594405      85.700988      290.41319    
 405020000  -29.516269      93.998954      318.53234    
 405030000  -20.302274      83.990462      284.61676    
 405040000  -21.239814      87.504604      296.52507    
 405050000  -29.445712      94.701919      320.91446    
 405060000  -29.468713      94.006036      318.55633    
 405070000  -28.967037      83.71485       283.6828     
 405080000  -28.566447      88.986279      301.54599    
 405090000  -23.091465      88.49789       299.89099    
 405100000   2.0769888      86.191482      292.07531    
 405110000  -14.736969      96.48664       326.9623     
 405120000  -16.871053      84.268505      285.55896    
 405130000  -45.494313      95.945032      325.12697    
 405140000  -36.357742      87.965111      298.08557    
 405150000  -29.526913      82.407731      279.25339    
 405160000  -26.834383      83.522046      283.02945    
 405170000  -37.196004      86.925271      294.56189    
 405180000  -40.928041      73.669915      249.64374    
 405190000  -24.957306      88.848767      301.08       
 405200000  -26.282367      91.730261      310.84446    
 405210000  -13.035418      97.718749      331.13753    
 405220000  -16.304384      105.62978      357.94548    
 405230000  -12.107854      86.183478      292.04819    
 405240000  -10.945277      86.469315      293.0168     
 405250000  -19.999494      90.039617      305.11541    
 405260000  -31.337178      80.161658      271.64217    
 405270000  -28.23584       76.029411      257.63931    
 405280000  -29.829406      79.687426      270.03515    
 405290000  -21.658723      83.977005      284.57116    
 405300000  -7.8818576      88.063984      298.42062    
 405310000  -16.384185      92.951521      314.98292    
 405320000  -7.2610232      87.716606      297.24347    
 405330000   19.292097      77.674647      263.21449    
 405340000   8.2857574      95.84755       324.79663    
 405350000   23.142447      99.901867      338.53541    
 405360000   2.9991232      118.46908      401.45376    
 405370000   13.862302      94.074631      318.78878    
 405380000  -16.989006      98.230008      332.87002    
 405390000  -23.778518      86.853705      294.31938    
 405400000  -7.3251365      82.942141      281.06434    
 405410000  -4.705093       82.360828      279.09445    
 405420000   0.83150803     68.071165      230.67136    
 405430000  -14.224482      90.115926      305.374      
 405440000  -29.17365       84.936739      287.82339    
 405450000  -25.810888      84.656388      286.87337    
 405460000  -49.841527      102.09251      345.9588     
 405470000  -17.500771      85.250611      288.887      
 405480000  -20.261148      92.108563      312.12641    
 405490000  -13.370708      100.55407      340.74552    
 405500000  -19.392752      95.031316      322.03068    
 405510000  -29.428724      83.613749      283.3402     
 405520000  -29.059063      86.426361      292.87124    
 405530000  -36.943208      93.622023      317.25503    
 405540000  -15.709927      86.95407       294.65948    
 405550000  -12.575238      80.229832      271.87319    
 405560000  -5.8005681      98.337254      333.23344    
 405570000  -10.959671      77.250157      261.77603    
 405580000  -9.8982347      90.791156      307.66214    
 405590000  -5.2390473      94.635601      320.68973    
 405600000  -8.793034       93.160411      315.69078    
 405610000  -11.146909      91.894282      311.40028    
 405620000  -16.050623      84.6442        286.83207    
 405630000  -25.755923      84.997266      288.0285     
 405640000  -16.075649      80.438012      272.57865    
 405650000  -14.854796      95.313189      322.98586    
 405660000  -16.831744      87.445872      296.32604    
 405670000  -0.075571056    83.415443      282.66821    
 405680000  -15.342309      85.55839       289.92997    
 405690000  -30.551122      83.681149      283.5686     
 405700000  -9.3395404      96.07067       325.55272    
 405710000  -25.656955      90.157353      305.51438    
 405720000  -20.69021       83.288058      282.23654    
 405730000  -23.974312      86.021014      291.49765    
 405740000  -10.65887       94.347706      319.71414    
 405750000  -14.890697      77.454186      262.46742    
 405760000  -23.115882      87.525691      296.59652    
 405770000  -31.110828      98.536131      333.90737    
 405780000  -25.33578       96.294881      326.31249    
 405790000  -18.524929      82.78859       280.544      
 405800000  -32.670398      94.329877      319.65373    
 405810000  -27.162919      87.382598      296.11163    
 405820000  -17.902389      83.571827      283.19814    
 405830000  -27.618617      79.898026      270.74881    
 405840000  -27.26947       80.558745      272.98777    
 405850000  -27.460818      77.635239      263.08095    
 405860000  -20.819359      83.064617      281.47937    
 405870000  -32.922815      87.830682      297.63004    
 405880000  -32.694424      84.699295      287.01877    
 405890000  -33.261989      68.230381      231.2109     
 405900000  -45.801413      87.107653      295.17992    
 405910000  -26.48387       76.319001      258.62064    
 405920000  -27.434257      90.511406      306.71415    
 405930000  -14.295669      79.475617      269.3174     
 405940000  -23.863202      76.300223      258.55701    
 405950000  -26.658367      78.224665      265.07832    
 405960000  -8.3675         81.75659       277.04689    
 405970000  -8.9720588      83.194612      281.91988    
 405980000  -9.2529274      94.393141      319.86811    
 405990000  -17.233318      89.020016      301.66031    
 406000000  -23.707936      100.12023      339.27539    
 406010000  -6.8846951      95.078507      322.19059    
 406020000  -20.204656      102.51339      347.38502    
 406030000  -29.871121      103.42562      350.47629    
 406040000  -26.473714      96.044957      325.46558    
 406050000  -14.662061      83.046062      281.41649    
 406060000  -6.5005375      90.778803      307.62028    
 406070000  -15.429599      83.850958      284.14403    
 406080000  -6.1964727      89.455817      303.1371     
 406090000   11.705348      82.551174      279.73948    
 406100000  -8.3385209      96.418         326.72971    
 406110000  -5.3261327      95.866818      324.86193    
 406120000  -11.984354      78.728733      266.78645    
 406130000  -25.477179      87.942011      298.0073     
 406140000   8.4684497      79.0282        267.80125    
 406150000  -17.531244      87.149888      295.32305    
 406160000  -4.9371088      82.200272      278.55038    
 406170000  -19.174034      85.499703      289.73109    
 406180000  -14.022581      87.94595       298.02064    
 406190000  -21.987038      96.373428      326.57866    
 406200000  -28.368958      82.364528      279.10699    
 406210000  -38.669334      88.944425      301.40415    
 406220000  -22.243656      76.123789      257.95913    
 406230000  -9.6125232      91.839278      311.21389    
 406240000  -11.856605      86.306807      292.46611    
 406250000  -10.771044      85.42043       289.46246    
 406260000  -32.783386      96.799867      328.02373    
 406270000  -12.548779      100.24768      339.70725    
 406280000   3.6593804      81.004224      274.49736    
 406290000  -6.3097615      99.400374      336.83602    
 406300000  -23.455914      95.711515      324.33565    
 406310000  -28.801082      89.061884      301.80219    
 406320000  -22.546108      87.336734      295.95621    
 406330000  -33.72331       93.788816      317.82024    
 406340000  -20.295626      106.2084       359.90623    
 406350000  -24.130646      96.038953      325.44524    
 406360000  -16.451987      86.806835      294.16055    
 406370000  -18.316535      76.984395      260.87545    
 406380000  -23.33789       81.0146        274.53252    
 406390000  -24.948843      93.957727      318.39263    
 406400000  -20.199552      91.588126      310.36281    
 406410000  -8.929171       89.27327       302.51851    
 406420000  -3.1289899      83.666101      283.51761    
 406430000  -11.234833      94.842829      321.39196    
 406440000  -10.10763       95.158608      322.46203    
 406450000   7.1096934      89.923243      304.72105    
 406460000  -2.509345       87.272148      295.73734    
 406470000  -0.45017746     98.632933      334.23541    
 406480000  -3.2524859      96.716246      327.74037    
 406490000  -6.3469451      86.655003      293.64604    
 406500000  -22.539052      85.314349      289.10299    
 406510000  -14.138825      80.240662      271.90989    
 406520000  -0.60261513     82.780079      280.51516    
 406530000  -7.5252324      90.866779      307.9184     
 406540000  -7.3280648      82.706499      280.26582    
 406550000  -21.974471      89.792583      304.27829    
 406560000  -6.6800937      87.331805      295.9395     
 406570000  -21.863958      95.460154      323.48387    
 406580000  -7.2534632      95.284026      322.88703    
 406590000   3.1607749      95.686961      324.25245    
 406600000  -15.574524      92.784172      314.41583    
 406610000  -17.615259      87.326079      295.9201     
 406620000  -34.853227      90.98691       308.32548    
 406630000  -13.055728      77.902702      263.98729    
 406640000  -26.422543      94.344536      319.7034     
 406650000  -26.534241      85.999158      291.42359    
 406660000  -11.951232      83.815029      284.02228    
 406670000  -37.375688      93.358606      316.3624     
 406680000  -30.757708      100.4757       340.47994    
 406690000  -20.786309      81.497951      276.17044    
 406700000  -31.035298      86.895489      294.46097    
 406710000  -25.463665      80.944         274.29328    
 406720000  -23.233734      83.405775      282.63545    
 406730000  -42.9816        100.78472      341.52713    
 406740000  -47.248923      100.3143       339.93303    
 406750000  -42.016753      90.029074      305.07968    
 406760000  -41.79116       90.868062      307.92274    
 406770000  -29.927499      87.334711      295.94935    
 406780000  -30.746672      86.657545      293.65465    
 406790000  -23.525537      90.704576      307.36874    
 406800000  -23.61887       93.937756      318.32496    
 406810000  -5.0284903      99.697311      337.84224    
 406820000  -22.582014      99.122948      335.89591    
 406830000  -11.693652      86.515029      293.17171    
 406840000  -3.5617387      87.525549      296.59604    
 406850000  -10.821003      84.70026       287.02204    
 406860000  -15.142239      82.131513      278.31738    
 406870000  -28.271159      97.494861      330.37884    
 406880000  -17.514235      81.661694      276.72532    
 406890000  -25.327989      82.045862      278.02714    
 406900000  -16.565827      97.909585      331.78421    
 406910000  -23.262565      88.284401      299.16754    
 406920000  -35.900556      101.62528      344.37551    
 406930000  -20.128947      90.373014      306.24519    
 406940000  -34.304217      96.577987      327.27185    
 406950000  -32.672656      90.133274      305.43278    
 406960000  -21.021108      77.577093      262.88391    
 406970000  -35.977268      91.532689      310.17495    
 406980000  -22.236913      83.339919      282.41228    
 406990000  -35.676786      90.938207      308.16044    
 407000000  -29.862324      77.671382      263.20343    
 407010000  -10.163099      79.283671      268.66696    
 407020000  -16.824604      89.779457      304.23381    
 407030000  -29.086235      81.967834      277.76272    
 407040000  -28.271442      107.64027      364.75839    
 407050000  -6.6286265      98.928911      335.23838    
 407060000   1.9622456      101.62274      344.36689    
 407070000  -10.11951       97.718779      331.13763    
 407080000  -15.30609       90.330396      306.10077    
 407090000  -29.668903      96.355407      326.5176     
 407100000  -26.280773      97.856486      331.60428    
 407110000  -21.605117      90.021699      305.05469    
 407120000  -16.364671      85.127004      288.46814    
 407130000  -24.022561      88.396159      299.54626    
 407140000  -31.889806      91.5001        310.06452    
 407150000  -13.477836      92.816594      314.5257     
 407160000  -10.289035      91.817693      311.14074    
 407170000  -29.642726      84.33848       285.79608    
 407180000  -16.985963      88.970756      301.49338    
 407190000  -27.967467      82.721996      280.31834    
 407200000  -12.094047      82.41498       279.27796    
 407210000  -28.688711      86.837731      294.26524    
 407220000  -19.729892      81.953138      277.71292    
 407230000  -33.664829      90.540604      306.81309    
 407240000  -35.447086      95.802576      324.64423    
 407250000  -17.312607      93.177378      315.74828    
 407260000  -8.9424345      85.57394       289.98266    
 407270000  -16.546934      81.169186      275.05636    
 407280000  -33.990516      99.383787      336.77981    
 407290000  -24.311782      97.549047      330.56246    
 407300000  -12.270015      86.491781      293.09293    
 407310000  -23.500068      92.852858      314.64858    
 407320000  -10.196785      99.274168      336.40834    
 407330000  -15.153832      95.770553      324.53572    
 407340000  -12.558569      87.870199      297.76395    
 407350000  -27.676572      84.48218       286.28304    
 407360000  -22.523143      88.508651      299.92746    
 407370000  -21.898937      75.810568      256.89772    
 407380000  -37.870489      89.590613      303.59388    
 407390000  -33.363919      93.327759      316.25787    
 407400000  -38.248266      90.222074      305.7337     
 407410000  -36.771973      89.129379      302.03091    
 407420000  -39.138069      89.644809      303.77753    
 407430000  -19.62124       88.730603      300.67958    
 407440000  -15.511401      90.194933      305.64173    
 407450000  -18.851823      99.585564      337.46356    
 407460000  -18.545833      89.859565      304.50527    
 407470000  -2.1708751      80.647489      273.2885     
 407480000   2.6425461      90.496628      306.66407    
 407490000  -18.083439      98.374946      333.36117    
 407500000  -16.994955      104.30684      353.46245    
 407510000  -6.5605366      101.92965      345.40691    
 407520000  -13.476352      83.888068      284.26978    
 407530000  -3.3338974      94.533194      320.3427     
 407540000  -3.5572985      97.064147      328.91929    
 407550000   2.8257617      92.053952      311.94134    
 407560000   0.75617803     99.642428      337.65626    
 407570000   6.6073362      96.55335       327.18837    
 407580000   15.36914       107.67621      364.88018    
 407590000   7.796288       96.797547      328.01587    
 407600000   12.282993      96.447123      326.8284     
 407610000   23.411804      88.181762      298.81973    
 407620000   13.563382      89.591662      303.59743    
 407630000   7.7729547      82.386717      279.18218    
 407640000   0.98543574     91.108115      308.73621    
 407650000   9.9333043      81.533384      276.29051    
 407660000  -11.012458      83.620584      283.36337    
 407670000   3.780796       87.468289      296.402      
 407680000  -3.0747371      83.464147      282.83325    
 407690000   5.1210813      87.694567      297.16879    
 407700000   7.4357178      86.480001      293.05301    
 407710000  -22.134126      90.442766      306.48155    
 407720000  -23.442709      92.184587      312.38402    
 407730000  -19.641264      89.760467      304.16946    
 407740000  -19.8652        85.81874       290.81221    
 407750000  -17.156823      86.78218       294.077      
 407760000  -17.969394      87.629245      296.94743    
 407770000  -27.888164      88.927621      301.34721    
 407780000  -31.771119      98.243818      332.91682    
 407790000  -6.4768914      92.416486      313.16986    
 407800000  -17.22906       106.28567      360.16806    
 407810000  -21.811195      87.957499      298.05978    
 407820000  -12.604829      82.412882      279.27085    
 407830000  -7.5733969      97.417697      330.11736    
 407840000  -28.040052      91.997639      311.75052    
 407850000  -25.780618      75.440906      255.64506    
 407860000  -32.623343      82.961919      281.13136    
 407870000  -25.836679      94.886826      321.54105    
 407880000  -31.226007      95.839315      324.76873    
 407890000  -26.457868      92.77907       314.39854    
 407900000  -14.424908      92.154837      312.28321    
 407910000  -22.553196      83.449775      282.78455    
 407920000  -20.70616       80.658227      273.32488    
 407930000  -18.913802      79.401293      269.06554    
 407940000  -24.863361      84.087821      284.94668    
 407950000  -29.285169      86.238088      292.23325    
 407960000  -28.50364       75.616446      256.23991    
 407970000  -19.845152      96.35899       326.52974    
 407980000  -30.245418      94.550662      320.4019     
 407990000  -27.664165      91.038733      308.50109    
 408000000  -37.179471      88.463596      299.77478    
Loop time of 392.949 on 1 procs for 4000000 steps with 100 atoms

Performance: 8795.037 ns/day, 0.003 hours/ns, 10179.441 timesteps/s, 1.018 Matom-step/s
99.3% CPU use with 1 MPI tasks x 1 OpenMP threads

MPI task timing breakdown:
Section |  min time  |  avg time  |  max time  |%varavg| %total
---------------------------------------------------------------
Pair    | 348.4      | 348.4      | 348.4      |   0.0 | 88.66
Bond    | 26.934     | 26.934     | 26.934     |   0.0 |  6.85
Neigh   | 1.9415     | 1.9415     | 1.9415     |   0.0 |  0.49
Comm    | 3.2292     | 3.2292     | 3.2292     |   0.0 |  0.82
Output  | 0.14061    | 0.14061    | 0.14061    |   0.0 |  0.04
Modify  | 11.193     | 11.193     | 11.193     |   0.0 |  2.85
Other   |            | 1.109      |            |       |  0.28

Nlocal:            100 ave         100 max         100 min
Histogram: 1 0 0 0 0 0 0 0 0 0
Nghost:             18 ave          18 max          18 min
Histogram: 1 0 0 0 0 0 0 0 0 0
Neighs:            852 ave         852 max         852 min
Histogram: 1 0 0 0 0 0 0 0 0 0

Total # of neighbors = 852
Ave neighs/atom = 8.52
Ave special neighs/atom = 5.88
Neighbor list builds = 8979
Dangerous builds = 0

write_data outputs/${tag}_final.data
write_data outputs/config_16_len100_06.dat_final.data
System init for write_data ...
Generated 0 of 6 mixed pair_coeff terms from geometric mixing rule
Total wall time: 6:23:03
