
# ===============================
# FORCE FIELD
# ===============================
bond_style harmonic
bond_coeff 1 7.5 5.9

angle_style harmonic
angle_coeff 1 5.0 150.0

pair_style hybrid/overlay lj/cut 10.0 base/rna 18.0
pair_modify shift yes
pair_coeff * * lj/cut 2.0 8.9089871814

# Base-pair interactions
pair_coeff 1 1 base/rna 0.00000 3.0 13.8 1.5 0.5 1.8326 0.9425 1.8326 1.1345
pair_coeff 1 2 base/rna 0.00000 3.0 13.8 1.5 0.5 1.8326 0.9425 1.8326 1.1345
pair_coeff 1 3 base/rna 0.00000 3.0 13.8 1.5 0.5 1.8326 0.9425 1.8326 1.1345
pair_coeff 1 4 base/rna 3.33333 3.0 13.8 1.5 0.5 1.8326 0.9425 1.8326 1.1345
pair_coeff 2 2 base/rna 0.00000 3.0 13.8 1.5 0.5 1.8326 0.9425 1.8326 1.1345
pair_coeff 2 3 base/rna 5.00000 3.0 13.8 1.5 0.5 1.8326 0.9425 1.8326 1.1345
pair_coeff 2 4 base/rna 0.00000 3.0 13.8 1.5 0.5 1.8326 0.9425 1.8326 1.1345
pair_coeff 3 3 base/rna 0.00000 3.0 13.8 1.5 0.5 1.8326 0.9425 1.8326 1.1345
pair_coeff 3 4 base/rna 3.33333 3.0 13.8 1.5 0.5 1.8326 0.9425 1.8326 1.1345
pair_coeff 4 4 base/rna 0.00000 3.0 13.8 1.5 0.5 1.8326 0.9425 1.8326 1.1345

special_bonds lj 0.0 0.0 1.0
Finding 1-2 1-3 1-4 neighbors ...
  special bond factors lj:    0        0        1       
  special bond factors coul:  0        0        0       
     2 = max # of 1-2 neighbors
     2 = max # of 1-3 neighbors
     4 = max # of 1-4 neighbors
     6 = max # of special neighbors
  special bonds CPU = 0.000 seconds
neighbor 15.0 bin
neigh_modify every 10 delay 0
comm_style tiled
timestep 10

# ===============================
# DUMPS
# ===============================
dump d1 all custom ${dump_stride} outputs/${tag}.lammpstrj id mol type q xu yu zu
dump d1 all custom 50000 outputs/${tag}.lammpstrj id mol type q xu yu zu
dump d1 all custom 50000 outputs/config_18_len100_08.dat.lammpstrj id mol type q xu yu zu
dump_modify d1 sort id

# ===============================
# THERMO
# ===============================
thermo_style custom step pe ke temp
thermo ${thermo_stride}
thermo 10000
thermo_modify flush yes

variable vpe equal pe
variable vke equal ke
variable vT  equal temp

fix fa all ave/time ${thermo_stride} 10 ${stride10} v_vpe v_vke v_vT file outputs/thermo_${tag}_averaged.dat
fix fa all ave/time 10000 10 ${stride10} v_vpe v_vke v_vT file outputs/thermo_${tag}_averaged.dat
fix fa all ave/time 10000 10 100000 v_vpe v_vke v_vT file outputs/thermo_${tag}_averaged.dat
fix fa all ave/time 10000 10 100000 v_vpe v_vke v_vT file outputs/thermo_config_18_len100_08.dat_averaged.dat

# ===============================
# EQUILIBRATION (40 ns)
# ===============================
fix fxnve all nve
variable seed0 equal 43001
fix fxl all langevin ${T_eq} ${T_eq} 100000.0 ${seed0}
fix fxl all langevin 298 ${T_eq} 100000.0 ${seed0}
fix fxl all langevin 298 298 100000.0 ${seed0}
fix fxl all langevin 298 298 100000.0 43001

run ${n_eq}
run 4000000

CITE-CITE-CITE-CITE-CITE-CITE-CITE-CITE-CITE-CITE-CITE-CITE-CITE

Your simulation uses code contributions which should be cited:

- Type Label Framework: https://doi.org/10.1021/acs.jpcb.3c08419

@Article{Gissinger24,
 author = {Jacob R. Gissinger, Ilia Nikiforov, Yaser Afshar, Brendon Waters, Moon-ki Choi, Daniel S. Karls, Alexander Stukowski, Wonpil Im, Hendrik Heinz, Axel Kohlmeyer, and Ellad B. Tadmor},
 title = {Type Label Framework for Bonded Force Fields in LAMMPS},
 journal = {J. Phys. Chem. B},
 year =    2024,
 volume =  128,
 number =  13,
 pages =   {3282–-3297}
}

CITE-CITE-CITE-CITE-CITE-CITE-CITE-CITE-CITE-CITE-CITE-CITE-CITE

Generated 0 of 6 mixed pair_coeff terms from geometric mixing rule
Neighbor list info ...
  update: every = 10 steps, delay = 0 steps, check = yes
  max neighbors/atom: 2000, page size: 100000
  master list distance cutoff = 33
  ghost atom cutoff = 33
  binsize = 16.5, bins = 61 61 61
  2 neighbor lists, perpetual/occasional/extra = 2 0 0
  (1) pair lj/cut, perpetual, trim from (2)
      attributes: half, newton on, cut 25
      pair build: trim
      stencil: none
      bin: none
  (2) pair base/rna, perpetual
      attributes: half, newton on
      pair build: half/bin/newton
      stencil: half/bin/3d
      bin: standard
Per MPI rank memory allocation (min/avg/max) = 8.37 | 8.37 | 8.37 Mbytes
   Step         PotEng         KinEng          Temp     
         0   134.33628      0              0            
     10000   59.790096      78.47172       265.91551    
     20000   55.090347      90.827139      307.78407    
     30000   44.726167      83.405755      282.63538    
     40000   29.955446      90.310279      306.0326     
     50000   26.539103      88.914072      301.3013     
     60000   36.167555      83.633526      283.40722    
     70000   26.985628      98.119439      332.49534    
     80000   44.270981      92.338936      312.90707    
     90000   22.2468        104.35288      353.61846    
    100000   23.992249      101.43028      343.7147     
    110000   21.686144      91.881136      311.35573    
    120000   1.2218693      91.725636      310.82879    
    130000  -5.7097712      88.799432      300.91282    
    140000  -18.286759      101.70939      344.66053    
    150000  -2.2791178      81.058317      274.68066    
    160000  -10.960039      87.841228      297.66577    
    170000  -30.1106        101.43016      343.71431    
    180000  -23.159989      94.736394      321.03128    
    190000  -32.169348      90.741941      307.49536    
    200000  -22.212672      89.771044      304.2053     
    210000  -9.9961649      97.008327      328.73014    
    220000  -1.4099409      84.07198       284.893      
    230000  -14.256424      95.460638      323.48551    
    240000  -29.005667      94.17839       319.14039    
    250000  -7.8224237      90.759724      307.55562    
    260000  -13.060381      86.21513       292.15545    
    270000  -4.1008409      90.725415      307.43936    
    280000  -39.698733      95.451987      323.4562     
    290000  -48.726891      87.735136      297.30626    
    300000  -30.963451      95.334681      323.05869    
    310000  -38.582479      99.670194      337.75035    
    320000  -50.351828      88.426136      299.64784    
    330000  -35.589624      82.858609      280.78127    
    340000  -23.592107      77.560459      262.82754    
    350000  -22.237004      87.624253      296.93052    
    360000  -24.085032      87.00531       294.83312    
    370000  -33.944994      94.728456      321.00438    
    380000  -38.722441      88.406667      299.58187    
    390000  -28.014253      82.233449      278.66281    
    400000  -21.472856      75.992703      257.51492    
    410000  -12.877097      74.576094      252.71449    
    420000  -38.937207      90.52528       306.76117    
    430000  -31.664406      84.121523      285.06089    
    440000  -7.9984175      81.893743      277.51165    
    450000  -20.720676      91.997146      311.74885    
    460000  -17.884559      87.552041      296.68581    
    470000  -7.4441876      87.701716      297.19301    
    480000  -24.121287      100.34462      340.03576    
    490000  -23.916285      89.985194      304.93099    
    500000  -34.399114      82.953805      281.10387    
    510000  -46.707236      83.748721      283.79758    
    520000  -47.976896      98.786654      334.75632    
    530000  -28.574491      83.763257      283.84684    
    540000  -37.889458      90.822831      307.76947    
    550000  -29.185564      87.628174      296.9438     
    560000  -6.6178834      83.92859       284.4071     
    570000  -22.705465      75.838577      256.99263    
    580000  -32.655221      99.538724      337.30484    
    590000  -22.457469      85.515104      289.78329    
    600000  -20.933639      83.271818      282.18151    
    610000  -17.077088      86.324594      292.52639    
    620000  -30.245961      95.451764      323.45544    
    630000  -22.245227      89.296722      302.59798    
    640000  -20.364855      78.811862      267.06815    
    650000  -35.800944      96.266314      326.21569    
    660000  -16.131794      90.291434      305.96874    
    670000  -25.924201      91.330574      309.49005    
    680000  -27.309585      86.344171      292.59273    
    690000  -37.534281      101.10896      342.62587    
    700000  -34.644555      87.299024      295.82842    
    710000  -22.566463      81.206982      275.18444    
    720000  -39.640263      100.88326      341.86105    
    730000  -20.960243      82.531824      279.6739     
    740000  -33.601532      107.34799      363.76794    
    750000  -15.115617      96.930844      328.46757    
    760000  -13.45603       91.770864      310.98205    
    770000  -11.37498       84.989074      288.00074    
    780000  -22.593216      84.889117      287.66201    
    790000  -6.907418       79.734174      270.19357    
    800000  -22.09054       79.483664      269.34467    
    810000  -24.81197       88.459564      299.76112    
    820000  -28.741169      85.81232       290.79046    
    830000  -15.493427      93.430034      316.60445    
    840000  -21.772175      93.133185      315.59852    
    850000  -31.029725      92.743492      314.27798    
    860000  -15.023137      70.646366      239.3979     
    870000  -28.168586      87.69009       297.15362    
    880000  -39.255853      97.357979      329.91499    
    890000  -5.6226133      88.772539      300.82169    
    900000  -12.677011      77.042898      261.07369    
    910000  -33.02506       79.394391      269.04215    
    920000  -19.680632      94.358399      319.75038    
    930000  -18.257073      82.889269      280.88517    
    940000  -39.853853      108.67516      368.2653     
    950000  -18.573318      92.079578      312.02818    
    960000  -19.361937      87.264873      295.71269    
    970000  -24.910023      85.534757      289.84988    
    980000  -28.108122      77.247961      261.76859    
    990000  -33.848797      71.014604      240.64574    
   1000000  -26.606738      82.844956      280.73501    
   1010000  -23.02481       72.662176      246.22883    
   1020000  -14.164443      79.069926      267.94264    
   1030000  -22.584278      81.921961      277.60727    
   1040000  -22.525302      94.210896      319.25054    
   1050000  -23.222395      91.14335       308.85561    
   1060000  -20.291601      84.43619       286.12719    
   1070000  -19.888491      101.42455      343.6953     
   1080000  -22.388563      93.430308      316.60537    
   1090000  -31.160302      115.95979      392.95056    
   1100000  -20.821679      95.018708      321.98795    
   1110000  -18.522586      85.1058        288.39629    
   1120000  -6.637669       87.611812      296.88836    
   1130000  -3.065336       100.38974      340.18865    
   1140000  -8.3177365      88.999156      301.58962    
   1150000  -15.719287      85.779901      290.6806     
   1160000  -27.609572      84.903702      287.71144    
   1170000  -20.958639      81.267105      275.38818    
   1180000  -8.2471088      82.520837      279.63667    
   1190000  -5.1820626      85.947947      291.25005    
   1200000  -4.8725417      85.337111      289.18012    
   1210000  -13.390816      95.772878      324.54359    
   1220000  -11.050729      86.327419      292.53596    
   1230000  -12.384757      81.533568      276.29114    
   1240000  -22.021695      98.356608      333.29903    
   1250000  -36.191828      81.947669      277.69439    
   1260000  -21.084827      92.926648      314.89863    
   1270000  -15.768985      93.862349      318.06942    
   1280000  -20.676613      98.83324       334.91418    
   1290000  -13.731566      85.695709      290.3953     
   1300000  -11.131366      80.538924      272.92061    
   1310000  -4.68893        91.868029      311.31131    
   1320000   2.9807687      79.237809      268.51154    
   1330000  -19.282296      105.34014      356.96398    
   1340000  -17.488388      80.153284      271.61379    
   1350000  -4.8620615      83.864829      284.19103    
   1360000  -8.7636181      103.84411      351.8944     
   1370000  -9.3699314      88.004333      298.21848    
   1380000   1.270543       92.006681      311.78116    
   1390000  -0.61920221     103.31596      350.10467    
   1400000  -3.3645507      94.874039      321.49772    
   1410000  -4.8120544      89.348038      302.77187    
   1420000  -14.646928      86.316196      292.49793    
   1430000  -5.6243583      84.024755      284.73297    
   1440000  -6.1427775      77.726803      263.39123    
   1450000  -2.9080762      96.795128      328.00767    
   1460000  -4.6916603      101.15023      342.76573    
   1470000   3.2744434      90.619621      307.08086    
   1480000  -12.814842      89.723303      304.04352    
   1490000  -11.068836      98.130778      332.53376    
   1500000  -14.364733      90.081195      305.25631    
   1510000  -19.252798      97.648412      330.89918    
   1520000  -2.1387171      85.854532      290.9335     
   1530000  -11.244916      90.726549      307.4432     
   1540000   3.2975753      83.874233      284.2229     
   1550000   4.8883373      93.201823      315.83111    
   1560000   2.8972446      97.901764      331.75771    
   1570000   3.4495058      88.322162      299.2955     
   1580000  -6.4478826      105.09811      356.1438     
   1590000   10.470356      92.831008      314.57454    
   1600000   3.8567999      90.083353      305.26362    
   1610000   2.5012324      100.95718      342.11153    
   1620000   6.6664604      92.518478      313.51548    
   1630000  -11.773089      93.319169      316.22876    
   1640000  -11.091596      80.507952      272.81565    
   1650000  -20.262022      84.162289      285.19903    
   1660000  -15.557875      95.825959      324.72347    
   1670000   4.4419926      86.26376       292.32024    
   1680000   6.8342105      79.861234      270.62413    
   1690000  -0.91121006     87.357721      296.02732    
   1700000   4.5686627      89.609082      303.65646    
   1710000   14.49872       96.681922      327.62405    
   1720000   10.633403      94.835634      321.36757    
   1730000   7.8397553      89.267752      302.49981    
   1740000   12.344916      80.789467      273.76962    
   1750000   7.5707802      88.354716      299.40582    
   1760000  -8.5807686      89.016769      301.64931    
   1770000  -25.401639      76.211413      258.25606    
   1780000  -20.088681      86.805564      294.15624    
   1790000  -13.716863      72.277336      244.92473    
   1800000  -10.941249      77.920941      264.0491     
   1810000  -27.664944      93.087358      315.44323    
   1820000  -3.0079989      88.704682      300.59174    
   1830000  -10.021097      91.852819      311.25977    
   1840000  -4.1573256      87.099965      295.15387    
   1850000  -4.5513261      84.829357      287.45951    
   1860000  -1.6148357      84.766612      287.24689    
   1870000  -5.3469643      91.195968      309.03391    
   1880000  -7.1672819      89.642432      303.76948    
   1890000  -22.770808      83.899704      284.30921    
   1900000  -29.120255      80.458569      272.64831    
   1910000  -9.3335687      73.262006      248.26146    
   1920000  -13.323968      86.247964      292.26671    
   1930000  -7.8620423      89.405915      302.968      
   1940000   2.3970009      79.044227      267.85556    
   1950000  -3.8926999      87.393515      296.14862    
   1960000  -21.807187      81.860044      277.39746    
   1970000  -12.853164      79.04277       267.85062    
   1980000  -1.338061       80.083552      271.3775     
   1990000   6.0165822      84.266853      285.55336    
   2000000  -4.8592477      86.98822       294.7752     
   2010000   1.5831585      91.704379      310.75676    
   2020000  -8.1035112      92.59306       313.76821    
   2030000  -4.7724164      86.933241      294.5889     
   2040000  -16.992928      88.81909       300.97943    
   2050000  -9.8016485      91.292014      309.35938    
   2060000  -18.274579      95.169204      322.49794    
   2070000  -9.2043715      88.950628      301.42518    
   2080000  -17.709126      91.92358       311.49956    
   2090000  -19.155563      86.294158      292.42325    
   2100000  -4.4090794      84.416017      286.05883    
   2110000  -16.113092      86.901444      294.48115    
   2120000  -13.134745      82.173291      278.45895    
   2130000  -26.088382      85.626009      290.15911    
   2140000  -34.196394      86.251308      292.27805    
   2150000  -42.051942      92.638121      313.92091    
   2160000  -16.369228      91.601356      310.40764    
   2170000  -24.673259      98.862381      335.01293    
   2180000  -29.168551      91.995993      311.74494    
   2190000  -29.27355       88.731081      300.6812     
   2200000  -16.649714      85.823937      290.82982    
   2210000  -11.80864       99.963651      338.74478    
   2220000  -7.0618411      99.502511      337.18213    
   2230000  -18.277465      103.39574      350.37504    
   2240000  -8.5526598      97.557517      330.59116    
   2250000  -23.682593      99.366922      336.72266    
   2260000  -4.0371885      86.391464      292.75299    
   2270000  -22.832079      91.281203      309.32275    
   2280000  -24.649021      97.709463      331.10606    
   2290000  -20.601098      97.275767      329.6364     
   2300000  -10.204352      95.107039      322.28728    
   2310000  -7.4214077      79.595006      269.72197    
   2320000  -30.417236      90.50192       306.68201    
   2330000  -7.3187765      82.279449      278.81869    
   2340000  -10.500698      82.65199       280.08111    
   2350000  -13.740027      88.22266       298.95832    
   2360000  -11.338557      78.474887      265.92625    
   2370000  -30.331536      97.557183      330.59003    
   2380000  -24.518603      105.07063      356.05068    
   2390000  -17.38836       93.391281      316.47312    
   2400000  -23.295117      82.636912      280.03001    
   2410000  -22.66246       95.002096      321.93166    
   2420000  -27.059053      90.075598      305.23734    
   2430000  -18.382331      89.300547      302.61094    
   2440000  -30.270872      89.462544      303.15989    
   2450000  -8.5700428      72.024783      244.06891    
   2460000  -19.367552      106.66663      361.45903    
   2470000  -1.6350348      96.426147      326.75731    
   2480000  -22.640583      97.114838      329.09107    
   2490000  -22.243502      82.101137      278.21445    
   2500000  -23.430888      81.790356      277.16131    
   2510000  -22.632964      89.511521      303.32586    
   2520000  -20.45454       80.088823      271.39536    
   2530000  -21.492631      86.085467      291.71606    
   2540000  -26.259589      87.698761      297.183      
   2550000  -35.394651      85.125427      288.4628     
   2560000  -37.540264      77.740981      263.43927    
   2570000  -23.460665      88.465283      299.7805     
   2580000  -18.849276      83.728251      283.72821    
   2590000  -10.3556        87.08613       295.10699    
   2600000  -1.2299865      85.259189      288.91607    
   2610000  -12.751334      92.671506      314.03404    
   2620000  -19.643055      89.372656      302.85529    
   2630000  -21.432406      88.301864      299.22672    
   2640000  -9.5077907      87.709307      297.21874    
   2650000  -13.225038      88.316311      299.27568    
   2660000  -28.535461      87.556344      296.70039    
   2670000  -11.385919      84.062929      284.86233    
   2680000   0.9854137      81.942336      277.67632    
   2690000  -31.681058      95.962534      325.18628    
   2700000  -13.29957       81.588098      276.47592    
   2710000  -22.737364      94.760776      321.11391    
   2720000  -23.339658      93.044144      315.29679    
   2730000  -34.790549      92.041628      311.89958    
   2740000  -27.675904      81.189686      275.12583    
   2750000  -36.230361      98.48786       333.7438     
   2760000  -6.9194994      82.463241      279.4415     
   2770000  -25.555235      93.612634      317.22322    
   2780000  -43.394346      85.035681      288.15868    
   2790000  -31.541943      85.892045      291.06062    
   2800000  -28.179732      92.13695       312.2226     
   2810000  -11.779485      86.761601      294.00726    
   2820000  -13.343948      92.325921      312.86296    
   2830000  -15.349245      87.433173      296.28301    
   2840000  -23.884578      78.044512      264.46784    
   2850000  -26.092645      80.952426      274.32183    
   2860000  -24.572324      81.246482      275.31829    
   2870000  -33.898051      99.214335      336.20559    
   2880000  -16.575475      96.314293      326.37828    
   2890000  -20.304873      100.13568      339.32773    
   2900000  -19.254761      88.59712       300.22725    
   2910000  -15.446585      96.21381       326.03777    
   2920000  -30.29607       84.419796      286.07164    
   2930000  -9.0887104      83.371883      282.52059    
   2940000  -11.088179      93.372273      316.40871    
   2950000  -10.120944      81.113643      274.86815    
   2960000  -18.854642      93.639142      317.31305    
   2970000  -22.745051      89.581709      303.56371    
   2980000  -30.48284       80.684523      273.41399    
   2990000  -23.534817      77.393825      262.26287    
   3000000  -19.318187      75.60678       256.20715    
   3010000  -17.195734      85.754809      290.59557    
   3020000  -14.237035      90.49518       306.65917    
   3030000  -15.622662      97.834111      331.52845    
   3040000  -0.5488743      93.039027      315.27945    
   3050000  -16.224173      83.966411      284.53526    
   3060000  -30.22907       92.339218      312.90802    
   3070000  -26.879607      93.324732      316.24761    
   3080000  -21.079107      88.708754      300.60554    
   3090000  -15.224155      76.119485      257.94454    
   3100000  -19.10364       85.812156      290.7899     
   3110000  -22.85408       93.597895      317.17328    
   3120000  -39.039741      75.891255      257.17115    
   3130000  -49.391058      86.257345      292.2985     
   3140000  -36.677552      98.657035      334.31708    
   3150000  -40.665929      79.515718      269.45329    
   3160000  -33.481984      83.211632      281.97756    
   3170000  -24.111859      89.236944      302.39541    
   3180000  -32.022133      88.351791      299.39591    
   3190000  -21.35922       95.60121       323.96187    
   3200000  -29.789509      92.777162      314.39207    
   3210000  -5.3116254      97.937086      331.8774     
   3220000  -11.625644      105.02438      355.89395    
   3230000  -12.385719      86.853944      294.32018    
   3240000  -14.086463      87.883276      297.80826    
   3250000  -23.009601      94.485005      320.1794     
   3260000  -28.41088       100.37955      340.15412    
   3270000  -19.433978      78.404047      265.68619    
   3280000  -4.4451614      79.675561      269.99495    
   3290000  -16.524239      84.426781      286.09531    
   3300000  -21.676066      90.728476      307.44973    
   3310000  -16.827636      93.794124      317.83823    
   3320000  -13.473824      85.481384      289.66902    
   3330000  -3.633682       72.809453      246.72791    
   3340000  -14.871875      78.709772      266.7222     
   3350000  -31.66474       80.503281      272.79982    
   3360000  -41.416031      90.353806      306.1801     
   3370000  -36.343894      85.9247        291.17127    
   3380000  -25.792857      88.824298      300.99708    
   3390000  -16.39578       79.319622      268.78878    
   3400000  -26.28139       99.624526      337.5956     
   3410000  -8.6904926      89.863886      304.51991    
   3420000  -20.824815      93.208189      315.85268    
   3430000  -15.47039       96.065493      325.53517    
   3440000  -7.7343144      91.593612      310.3814     
   3450000  -2.5344829      84.388001      285.9639     
   3460000  -23.815978      101.6857       344.58025    
   3470000  -30.061743      93.829887      317.95942    
   3480000  -34.515523      82.874896      280.83647    
   3490000  -18.853118      87.094011      295.1337     
   3500000  -13.436313      99.139906      335.95337    
   3510000  -15.680141      82.601843      279.91118    
   3520000  -20.888698      84.074948      284.90306    
   3530000  -14.395662      95.846526      324.79316    
   3540000  -19.160808      97.92955       331.85187    
   3550000   8.9537237      86.06452       291.64508    
   3560000  -28.688742      94.92441       321.66841    
   3570000  -16.425269      92.993484      315.12512    
   3580000  -15.929618      96.691243      327.65564    
   3590000  -25.496308      96.444083      326.81809    
   3600000  -23.585005      105.96876      359.09417    
   3610000   1.914295       85.706851      290.43305    
   3620000  -9.4742876      91.364241      309.60414    
   3630000  -35.01524       91.83882       311.21233    
   3640000  -17.703663      83.438528      282.74643    
   3650000  -15.319452      82.512982      279.61006    
   3660000  -5.195633       96.737666      327.81295    
   3670000  -9.2013529      94.113543      318.92064    
   3680000   10.319325      108.38818      367.2928     
   3690000  -0.098423826    101.80113      344.97142    
   3700000  -15.537332      74.336383      251.90218    
   3710000  -18.44603       89.896263      304.62963    
   3720000  -37.712586      86.579317      293.38956    
   3730000  -6.0967735      87.475453      296.42628    
   3740000   1.0761697      82.618877      279.9689     
   3750000   3.646448       91.152208      308.88563    
   3760000  -0.34919748     89.805731      304.32285    
   3770000  -20.428332      96.812128      328.06528    
   3780000  -20.723861      86.735035      293.91724    
   3790000  -23.333247      88.347906      299.38274    
   3800000  -29.736681      81.654012      276.69928    
   3810000  -51.1378        85.999516      291.4248     
   3820000  -24.329206      87.014647      294.86476    
   3830000  -19.032778      87.826629      297.6163     
   3840000  -6.8993698      81.358574      275.69814    
   3850000  -29.36799       93.13155       315.59298    
   3860000  -21.642043      82.140573      278.34808    
   3870000  -36.408163      82.357613      279.08356    
   3880000  -15.775717      77.141427      261.40758    
   3890000  -18.32123       72.019063      244.04953    
   3900000  -29.452841      85.92565       291.17449    
   3910000  -8.6384875      79.209592      268.41593    
   3920000  -14.658182      92.435247      313.23343    
   3930000  -4.0173992      98.619676      334.19048    
   3940000  -7.5229558      78.454254      265.85633    
   3950000  -29.911499      77.350932      262.11752    
   3960000  -28.921603      94.053091      318.71579    
   3970000  -21.09077       96.279618      326.26078    
   3980000  -8.7765332      81.986452      277.82581    
   3990000  -41.208374      89.010509      301.62809    
   4000000  -27.796744      78.260846      265.20093    
Loop time of 263.966 on 1 procs for 4000000 steps with 100 atoms

Performance: 13092.596 ns/day, 0.002 hours/ns, 15153.467 timesteps/s, 1.515 Matom-step/s
99.2% CPU use with 1 MPI tasks x 1 OpenMP threads

MPI task timing breakdown:
Section |  min time  |  avg time  |  max time  |%varavg| %total
---------------------------------------------------------------
Pair    | 232.49     | 232.49     | 232.49     |   0.0 | 88.08
Bond    | 19.211     | 19.211     | 19.211     |   0.0 |  7.28
Neigh   | 1.5703     | 1.5703     | 1.5703     |   0.0 |  0.59
Comm    | 1.5637     | 1.5637     | 1.5637     |   0.0 |  0.59
Output  | 0.11616    | 0.11616    | 0.11616    |   0.0 |  0.04
Modify  | 8.3389     | 8.3389     | 8.3389     |   0.0 |  3.16
Other   |            | 0.6772     |            |       |  0.26

Nlocal:            100 ave         100 max         100 min
Histogram: 1 0 0 0 0 0 0 0 0 0
Nghost:              0 ave           0 max           0 min
Histogram: 1 0 0 0 0 0 0 0 0 0
Neighs:            817 ave         817 max         817 min
Histogram: 1 0 0 0 0 0 0 0 0 0

Total # of neighbors = 817
Ave neighs/atom = 8.17
Ave special neighs/atom = 5.88
Neighbor list builds = 8886
Dangerous builds = 0

# ===============================
# MAIN SA LOOP — 10 cycles
# ===============================
variable c loop ${ncycle}
variable c loop 10
label cyc

  # Heat 298 → 500
  variable seedH equal 44000+${c}
  variable seedH equal 44000+1
  unfix fxl
  fix fxl all langevin ${T_eq} ${T_high} 100000.0 ${seedH}
  fix fxl all langevin 298 ${T_high} 100000.0 ${seedH}
  fix fxl all langevin 298 500 100000.0 ${seedH}
  fix fxl all langevin 298 500 100000.0 44001
  run ${n_heat}
  run 8000000
Generated 0 of 6 mixed pair_coeff terms from geometric mixing rule
Per MPI rank memory allocation (min/avg/max) = 9.632 | 9.632 | 9.632 Mbytes
   Step         PotEng         KinEng          Temp     
   4000000  -27.796744      78.260846      265.20093    
   4010000  -34.554531      84.985841      287.98978    
   4020000  -35.807755      106.63365      361.34726    
   4030000  -26.630734      86.079872      291.6971     
   4040000  -18.634159      84.552505      286.52135    
   4050000  -6.8373088      86.720924      293.86942    
   4060000   10.003842      88.200207      298.88224    
   4070000  -15.684576      92.367813      313.00492    
   4080000  -31.532678      101.15165      342.77053    
   4090000  -19.262118      96.645427      327.50038    
   4100000  -7.0815431      101.80992      345.00119    
   4110000  -11.414755      99.462073      337.04509    
   4120000  -29.930391      93.843032      318.00397    
   4130000  -34.571412      99.632601      337.62296    
   4140000  -6.1971653      93.087496      315.4437     
   4150000  -15.76987       81.989906      277.83752    
   4160000  -17.877751      75.100716      254.49226    
   4170000  -39.091918      94.184062      319.15961    
   4180000  -32.814095      78.089936      264.62177    
   4190000  -25.846977      88.790835      300.88369    
   4200000   8.264227       83.09683       281.58853    
   4210000  -13.186983      94.982798      321.86627    
   4220000  -17.730035      73.337424      248.51703    
   4230000  -6.6240094      90.610956      307.05149    
   4240000  -4.0192104      84.000923      284.65221    
   4250000   2.2691796      97.98898       332.05325    
   4260000  -10.913761      113.57904      384.88299    
   4270000   1.1196876      95.59756       323.9495     
   4280000  -26.036537      104.31924      353.50447    
   4290000  -16.63226       97.194409      329.36071    
   4300000  -23.855735      102.21159      346.36234    
   4310000  -8.4022299      85.900916      291.09068    
   4320000  -21.463321      94.42646       319.98102    
   4330000  -24.167863      89.06008       301.79607    
   4340000  -22.416261      97.958507      331.94999    
   4350000  -1.5938125      91.635288      310.52263    
   4360000   8.3598295      88.657945      300.43337    
   4370000  -0.45973778     106.49486      360.87695    
   4380000   8.0068322      101.76583      344.85181    
   4390000   10.216214      101.20976      342.96744    
   4400000   8.3679589      84.734747      287.13891    
   4410000   25.490311      75.710726      256.55939    
   4420000   11.501267      92.765103      314.35121    
   4430000   3.0103673      98.280168      333.04       
   4440000   4.915175       100.9469       342.07668    
   4450000   22.418088      93.190966      315.79432    
   4460000   25.146776      103.5351       350.84727    
   4470000  -5.5021076      93.771254      317.76073    
   4480000  -18.087171      105.40897      357.19723    
   4490000  -6.075168       96.077875      325.57713    
   4500000  -10.380104      101.94641      345.46372    
   4510000  -4.801599       88.625688      300.32406    
   4520000   13.127996      83.752966      283.81197    
   4530000   22.957626      76.105042      257.8956     
   4540000   14.477918      77.342864      262.09018    
   4550000  -0.71735578     94.288224      319.51258    
   4560000  -0.26347223     90.372531      306.24355    
   4570000   1.628062       85.014781      288.08785    
   4580000   2.0338406      85.988954      291.38901    
   4590000  -14.923128      97.078319      328.96732    
   4600000  -3.3661745      94.461011      320.0981     
   4610000   1.4834085      87.046372      294.97226    
   4620000   9.6290509      98.189644      332.73324    
   4630000   4.9653006      95.977962      325.23856    
   4640000  -0.082652605    80.967831      274.37403    
   4650000   8.6915997      82.8597        280.78497    
   4660000   12.39316       99.613081      337.55681    
   4670000   4.894465       90.777164      307.61472    
   4680000  -8.8433081      92.439844      313.24901    
   4690000  -0.27359725     90.407635      306.36251    
   4700000  -24.04464       97.730466      331.17723    
   4710000   5.9764202      89.361404      302.81716    
   4720000  -9.2789541      89.790361      304.27076    
   4730000  -14.595137      87.124847      295.23819    
   4740000  -18.343492      82.143518      278.35806    
   4750000  -13.506147      98.389897      333.41183    
   4760000  -0.55670803     93.77723       317.78098    
   4770000  -4.6846741      113.2069       383.62189    
   4780000   1.2562775      96.936293      328.48603    
   4790000  -14.089102      110.9005       375.80626    
   4800000   6.1393488      90.338002      306.12654    
   4810000  -2.438594       83.965135      284.53094    
   4820000   2.5268472      96.096661      325.64079    
   4830000   16.118945      89.735786      304.08582    
   4840000   14.338457      95.455866      323.46934    
   4850000  -1.5934489      92.016643      311.81492    
   4860000   0.35105904     89.287427      302.56648    
   4870000  -5.3019134      85.117362      288.43547    
   4880000  -2.3217204      90.0734        305.22989    
   4890000  -10.134054      103.90594      352.10395    
   4900000   2.9125894      92.561128      313.66       
   4910000  -3.2274315      101.20764      342.96025    
   4920000  -1.9467704      89.738048      304.09349    
   4930000  -9.5710569      100.8165       341.63481    
   4940000   7.2074755      102.36141      346.87002    
   4950000   13.416147      103.35848      350.24877    
   4960000   26.334615      96.962182      328.57377    
   4970000   14.240295      99.235615      336.2777     
   4980000   13.967534      93.809973      317.89194    
   4990000   11.32057       87.580906      296.78363    
   5000000   3.1807131      88.231583      298.98856    
   5010000   3.4651145      102.2737       346.57281    
   5020000   2.5980046      99.306949      336.51943    
   5030000   22.661241      99.937379      338.65575    
   5040000   12.763053      95.998473      325.30806    
   5050000  -3.5520986      102.8117       348.39592    
   5060000   0.33875821     91.587945      310.3622     
   5070000   7.5259293      95.000075      321.92481    
   5080000  -4.0125988      88.243296      299.02825    
   5090000  -16.36374       96.773341      327.93384    
   5100000   3.3802431      75.001305      254.15539    
   5110000  -9.2085826      95.874597      324.88829    
   5120000   1.5972448      98.850203      334.97166    
   5130000   2.2586671      94.171836      319.11818    
   5140000   4.7036248      107.14052      363.06487    
   5150000   22.319231      86.292504      292.41764    
   5160000   31.55735       85.205301      288.73346    
   5170000   13.127379      93.220902      315.89576    
   5180000   18.12946       98.475091      333.70053    
   5190000   12.168422      108.70687      368.37274    
   5200000   3.7287225      87.958236      298.06228    
   5210000  -6.0225372      111.43834      377.62884    
   5220000   21.640749      98.904139      335.15444    
   5230000   21.629574      107.03969      362.7232     
   5240000   15.375808      95.249         322.76834    
   5250000  -5.8637061      100.02576      338.95524    
   5260000   22.167058      92.944294      314.95843    
   5270000  -0.0014646584   97.407779      330.08375    
   5280000  -5.2140218      93.365375      316.38534    
   5290000  -4.1071495      95.158972      322.46326    
   5300000  -11.388701      93.825565      317.94478    
   5310000  -11.520151      105.77784      358.44722    
   5320000  -12.585138      103.61143      351.10594    
   5330000  -6.5749914      91.062021      308.58001    
   5340000  -2.642033       102.43757      347.12809    
   5350000  -3.5812939      100.68967      341.20504    
   5360000   3.6783367      82.466795      279.45354    
   5370000   1.32373        90.147061      305.4795     
   5380000   9.2303652      90.934163      308.14674    
   5390000   9.6439956      100.16896      339.44052    
   5400000   15.873151      90.784215      307.63862    
   5410000  -4.1589835      99.588766      337.47442    
   5420000   6.3790047      94.657242      320.76306    
   5430000  -9.401537       111.46915      377.73322    
   5440000   9.2257083      113.4116       384.31556    
   5450000   9.1007535      109.90479      372.43213    
   5460000   0.24639042     93.195404      315.80936    
   5470000   6.9330257      92.987586      315.10513    
   5480000   13.395673      105.72957      358.28362    
   5490000   5.5301483      72.912243      247.07623    
   5500000  -1.3082642      110.82237      375.54149    
   5510000  -7.4977718      103.2121       349.75275    
   5520000   7.4769483      107.21481      363.31662    
   5530000   11.630171      106.53438      361.01089    
   5540000   7.9088255      106.50652      360.91648    
   5550000  -2.4605394      103.99434      352.40349    
   5560000   4.3732005      94.74036       321.04472    
   5570000   12.83247       110.0225       372.83101    
   5580000   13.22054       91.885796      311.37152    
   5590000   12.470789      92.085786      312.04922    
   5600000   7.4773748      96.819113      328.08895    
   5610000   26.633511      95.41872       323.34347    
   5620000   10.437455      113.12372      383.34004    
   5630000   30.342992      99.329939      336.59733    
   5640000   33.371225      104.16778      352.99122    
   5650000   43.829838      100.03571      338.98895    
   5660000   32.129007      105.35577      357.01694    
   5670000   45.371988      87.602827      296.85791    
   5680000   34.914544      108.69606      368.33611    
   5690000   40.263167      101.35919      343.47383    
   5700000   44.649779      102.63892      347.81042    
   5710000   41.46356       100.32228      339.96005    
   5720000   22.74366       123.4611       418.37011    
   5730000   48.48403       104.48978      354.0824     
   5740000   48.750755      107.58827      364.58219    
   5750000   39.092792      102.50164      347.34522    
   5760000   26.517769      97.293988      329.69815    
   5770000   20.079052      100.38802      340.18282    
   5780000   33.467568      88.465981      299.78286    
   5790000   24.616279      97.153954      329.22362    
   5800000   20.242911      118.00718      399.88851    
   5810000   19.309139      107.51488      364.33348    
   5820000   27.786355      98.504527      333.80028    
   5830000   28.704086      119.58696      405.2419     
   5840000   49.253746      89.846742      304.46182    
   5850000   37.726842      94.590128      320.53563    
   5860000   35.063345      95.353879      323.12374    
   5870000   38.554207      106.57372      361.14419    
   5880000   53.525399      98.578075      334.04951    
   5890000   67.020673      90.088145      305.27986    
   5900000   78.694634      92.890522      314.77621    
   5910000   52.565901      113.39795      384.26932    
   5920000   41.687237      98.785458      334.75226    
   5930000   43.575129      90.431457      306.44323    
   5940000   48.525087      115.10542      390.05537    
   5950000   31.720621      108.62682      368.10149    
   5960000   45.338507      107.91295      365.6824     
   5970000   30.188602      112.8614       382.45113    
   5980000   24.87461       109.75159      371.91298    
   5990000   16.454085      97.245152      329.53266    
   6000000   29.093706      89.8356        304.42406    
   6010000   33.124679      105.54674      357.6641     
   6020000   53.497741      97.972425      331.99715    
   6030000   37.063631      94.751797      321.08348    
   6040000   40.260544      98.889791      335.10582    
   6050000   44.894157      94.687629      320.86603    
   6060000   41.993205      100.38821      340.18347    
   6070000   28.12268       109.20982      370.0771     
   6080000   30.06514       100.91448      341.96683    
   6090000   49.299103      97.993706      332.06927    
   6100000   37.203293      100.30802      339.91174    
   6110000   17.696161      111.5006       377.8398     
   6120000   23.115075      107.54266      364.42761    
   6130000   34.476497      107.059        362.78863    
   6140000   43.537934      95.257811      322.7982     
   6150000   43.449265      90.582208      306.95408    
   6160000   37.093248      98.638056      334.25276    
   6170000   41.927745      95.388206      323.24006    
   6180000   33.691746      102.36761      346.89103    
   6190000   18.283856      100.32477      339.9685     
   6200000   36.767147      83.033951      281.37545    
   6210000   26.218858      100.91069      341.95399    
   6220000   21.79915       98.434557      333.56317    
   6230000   36.378369      94.640704      320.70702    
   6240000   40.262854      105.47744      357.42925    
   6250000   46.392966      108.6382       368.14004    
   6260000   40.416429      92.054863      311.94443    
   6270000   42.164715      109.84354      372.22457    
   6280000   47.957241      111.94991      379.36236    
   6290000   44.530842      96.386344      326.62243    
   6300000   58.178221      88.11346       298.58828    
   6310000   57.797026      107.17707      363.18874    
   6320000   61.801666      93.420169      316.57102    
   6330000   47.780055      105.11501      356.20109    
   6340000   74.351829      94.954297      321.76969    
   6350000   56.732284      104.60586      354.47573    
   6360000   39.625057      112.09677      379.86003    
   6370000   34.441677      111.12639      376.57174    
   6380000   44.182449      111.51348      377.88347    
   6390000   55.406612      93.35453       316.34859    
   6400000   59.189001      112.06744      379.76065    
   6410000   54.791352      102.58094      347.61394    
   6420000   66.576099      120.82792      409.44712    
   6430000   61.283662      111.77915      378.78371    
   6440000   49.240646      107.78987      365.26532    
   6450000   61.677941      111.80833      378.88262    
   6460000   71.245571      118.14674      400.36143    
   6470000   74.062132      100.81113      341.61663    
   6480000   63.280232      104.55405      354.30019    
   6490000   65.616629      112.30034      380.54987    
   6500000   72.291401      133.40604      452.07032    
   6510000   70.516063      123.3371       417.94991    
   6520000   63.322348      98.859872      335.00443    
   6530000   70.436022      98.310616      333.14317    
   6540000   55.774255      95.237342      322.72883    
   6550000   56.621005      102.55663      347.53157    
   6560000   43.207063      110.41346      374.15582    
   6570000   46.297939      105.99507      359.18333    
   6580000   43.888257      107.85147      365.47406    
   6590000   30.5671        104.55644      354.30829    
   6600000   34.579737      105.40042      357.16824    
   6610000   52.841267      92.424383      313.19662    
   6620000   42.286138      119.3272       404.36165    
   6630000   45.663365      136.87888      463.83866    
   6640000   66.603776      103.58458      351.01494    
   6650000   63.319619      111.50984      377.8711     
   6660000   38.327125      108.21909      366.7198     
   6670000   56.436266      104.30011      353.43966    
   6680000   44.682335      111.07035      376.38181    
   6690000   57.054634      101.47412      343.86329    
   6700000   42.457455      95.618178      324.01936    
   6710000   47.344117      107.90636      365.66007    
   6720000   55.944405      129.87122      440.09196    
   6730000   62.653394      108.64482      368.16248    
   6740000   33.204476      112.19107      380.17959    
   6750000   44.669212      105.58764      357.80269    
   6760000   34.936436      114.6685       388.57481    
   6770000   47.990603      115.32879      390.81233    
   6780000   27.409949      114.5215       388.07668    
   6790000   23.370238      119.62997      405.38764    
   6800000   25.556432      111.18514      376.77081    
   6810000   27.732564      107.64976      364.79055    
   6820000   39.144251      107.97575      365.89522    
   6830000   39.602145      105.12792      356.24482    
   6840000   34.175185      101.68732      344.58574    
   6850000   40.123208      92.521072      313.52427    
   6860000   48.506991      80.515674      272.84182    
   6870000   56.951247      105.41926      357.2321     
   6880000   45.291124      119.47297      404.85561    
   6890000   56.132425      111.95183      379.36889    
   6900000   41.120006      112.77894      382.17169    
   6910000   52.157377      118.91224      402.95549    
   6920000   55.922632      110.97529      376.05969    
   6930000   45.429914      126.79895      429.681      
   6940000   55.33007       110.12842      373.18993    
   6950000   59.008574      105.36808      357.05866    
   6960000   35.010446      122.44801      414.93708    
   6970000   32.003112      104.43441      353.89474    
   6980000   44.32095       92.447663      313.27551    
   6990000   42.327647      115.10502      390.05403    
   7000000   28.070883      122.46238      414.98578    
   7010000   41.887348      116.69822      395.45288    
   7020000   45.36087       128.48346      435.38927    
   7030000   50.82492       110.38654      374.06463    
   7040000   58.365208      100.37492      340.13844    
   7050000   55.841109      119.99522      406.62534    
   7060000   70.029761      116.01156      393.12601    
   7070000   71.044798      108.26381      366.87138    
   7080000   85.901112      116.21049      393.80012    
   7090000   72.165424      122.51946      415.1792     
   7100000   66.326727      114.25863      387.1859     
   7110000   73.903363      105.66726      358.07249    
   7120000   66.367964      117.4043       397.84554    
   7130000   63.71326       102.19361      346.30141    
   7140000   59.937061      116.32344      394.18286    
   7150000   80.001563      83.606492      283.31561    
   7160000   66.736972      116.07791      393.35084    
   7170000   66.306443      121.34533      411.20042    
   7180000   68.78427       111.47014      377.73658    
   7190000   63.135135      118.29468      400.86277    
   7200000   72.291993      107.01719      362.64696    
   7210000   72.454542      104.39733      353.76911    
   7220000   59.321407      105.6175       357.90387    
   7230000   60.011038      109.29676      370.3717     
   7240000   53.391925      121.07013      410.26786    
   7250000   56.350569      115.3839       390.99907    
   7260000   52.308962      106.72689      361.66324    
   7270000   62.810214      120.60178      408.6808     
   7280000   74.08747       112.99444      382.90196    
   7290000   45.727547      105.29597      356.81429    
   7300000   52.317021      110.02661      372.84492    
   7310000   71.666114      116.62594      395.20796    
   7320000   60.41934       117.32158      397.56525    
   7330000   49.994729      104.6295       354.55584    
   7340000   65.369726      104.553        354.29663    
   7350000   49.312259      105.02869      355.90856    
   7360000   38.044066      112.02079      379.60256    
   7370000   29.6524        117.00157      396.48083    
   7380000   52.265527      124.4875       421.84825    
   7390000   65.404496      108.30628      367.01529    
   7400000   63.893122      110.83366      375.57977    
   7410000   66.365393      98.532612      333.89545    
   7420000   66.881511      111.8488       379.01973    
   7430000   75.740497      114.2618       387.19661    
   7440000   74.493421      115.20069      390.37822    
   7450000   69.847208      112.56521      381.44743    
   7460000   61.591001      113.05185      383.0965     
   7470000   59.990784      92.546927      313.61188    
   7480000   58.653137      106.72601      361.66024    
   7490000   63.899883      123.35246      418.00197    
   7500000   46.258703      112.26939      380.44498    
   7510000   59.277112      105.61834      357.90672    
   7520000   52.946947      121.5183       411.78657    
   7530000   58.749292      107.11259      362.97026    
   7540000   59.219403      130.95433      443.76225    
   7550000   62.988948      101.82491      345.05198    
   7560000   74.480518      118.84261      402.71953    
   7570000   69.407579      97.890051      331.71801    
   7580000   49.952397      94.560456      320.43508    
   7590000   56.020208      90.244183      305.80862    
   7600000   56.099672      118.47792      401.4837     
   7610000   64.61768       126.08404      427.2584     
   7620000   61.511521      116.37966      394.37336    
   7630000   57.492422      130.85424      443.4231     
   7640000   48.3508        120.61744      408.73386    
   7650000   70.458199      114.98877      389.66009    
   7660000   42.822001      117.08895      396.77695    
   7670000   51.774343      132.98439      450.64147    
   7680000   73.025394      117.82853      399.28315    
   7690000   64.590594      121.22826      410.80374    
   7700000   70.062809      104.53386      354.23174    
   7710000   71.070913      107.05356      362.77021    
   7720000   68.202436      123.62051      418.91029    
   7730000   56.310497      134.39516      455.42212    
   7740000   57.867744      129.14933      437.6457     
   7750000   63.265213      118.51584      401.6122     
   7760000   61.475263      101.38594      343.56446    
   7770000   61.16636       101.72144      344.70136    
   7780000   54.848696      115.03586      389.81968    
   7790000   56.987175      116.42182      394.51624    
   7800000   62.939852      109.36507      370.60318    
   7810000   70.758458      136.10507      461.21648    
   7820000   63.9029        146.15701      495.27926    
   7830000   77.847966      113.33765      384.06498    
   7840000   73.429719      114.28137      387.26296    
   7850000   82.72646       108.49505      367.65495    
   7860000   66.346241      121.24247      410.85189    
   7870000   56.013724      135.08277      457.75222    
   7880000   71.813663      126.47172      428.57212    
   7890000   55.124254      133.29536      451.69527    
   7900000   76.423583      122.35624      414.62609    
   7910000   58.090998      122.86391      416.34642    
   7920000   59.94599       113.52113      384.68672    
   7930000   49.925056      143.72491      487.03766    
   7940000   71.132091      104.32984      353.54039    
   7950000   69.391822      122.81468      416.17958    
   7960000   75.51225       99.67943       337.78165    
   7970000   60.815124      122.37536      414.69088    
   7980000   59.719874      108.72815      368.44486    
   7990000   58.241531      113.54563      384.76977    
   8000000   66.472404      113.57292      384.86224    
   8010000   72.724593      119.41769      404.6683     
   8020000   71.901017      118.33585      401.00228    
   8030000   76.183597      133.25422      451.55585    
   8040000   69.883217      115.40909      391.08443    
   8050000   74.68588       117.42408      397.91258    
   8060000   90.68402       118.59537      401.88169    
   8070000   93.266996      134.18877      454.72273    
   8080000   79.37112       113.72483      385.37702    
   8090000   68.424889      117.39821      397.82492    
   8100000   67.329445      115.23551      390.49621    
   8110000   68.570204      112.29995      380.54855    
   8120000   51.464509      106.8776       362.17392    
   8130000   62.501968      110.93608      375.92683    
   8140000   88.90467       108.40462      367.34853    
   8150000   62.501783      116.60861      395.1492     
   8160000   70.494175      118.82543      402.6613     
   8170000   75.061618      126.36427      428.208      
   8180000   71.306897      121.40412      411.39966    
   8190000   78.899988      125.44529      425.0939     
   8200000   76.124386      119.70768      405.65096    
   8210000   76.607199      127.66204      432.60575    
   8220000   82.192837      119.42858      404.70518    
   8230000   64.775834      149.08746      505.20962    
   8240000   64.451358      106.59151      361.20449    
   8250000   68.301554      134.62452      456.19936    
   8260000   75.11122       120.81975      409.41943    
   8270000   82.270084      114.32932      387.42543    
   8280000   78.117453      106.61514      361.28456    
   8290000   74.056759      116.36998      394.34058    
   8300000   74.463072      115.26572      390.59859    
   8310000   65.869124      111.88252      379.13402    
   8320000   54.832667      108.42858      367.42973    
   8330000   50.280456      134.49065      455.74573    
   8340000   55.186614      127.8977       433.40433    
   8350000   70.256797      100.26104      339.75255    
   8360000   74.602378      139.60403      473.07332    
   8370000   81.258581      122.20167      414.10229    
   8380000   86.1778        120.46966      408.23308    
   8390000   71.740004      121.79866      412.73662    
   8400000   73.04416       141.03597      477.9257     
   8410000   90.084935      124.94946      423.41369    
   8420000   76.589128      132.01541      447.35794    
   8430000   78.978073      107.41385      363.99113    
   8440000   74.519565      131.6219       446.02446    
   8450000   67.195345      132.4506       448.83265    
   8460000   83.522834      118.86267      402.78751    
   8470000   76.701223      122.65899      415.65203    
   8480000   74.650749      127.69073      432.70296    
   8490000   73.639523      120.97812      409.95609    
   8500000   75.174496      114.74475      388.83319    
   8510000   81.907438      108.30631      367.01539    
   8520000   94.09318       106.13931      359.67212    
   8530000   73.388551      136.00201      460.86723    
   8540000   82.580135      132.85992      450.21968    
   8550000   83.790606      127.67736      432.65766    
   8560000   70.331974      127.77955      433.00395    
   8570000   65.363381      137.6376       466.40973    
   8580000   70.89526       108.16179      366.52565    
   8590000   58.889803      112.82119      382.31486    
   8600000   66.449464      119.53747      405.07419    
   8610000   70.947857      113.85915      385.83216    
   8620000   59.578491      117.08313      396.75721    
   8630000   82.875476      134.19188      454.73329    
   8640000   80.144944      121.55608      411.9146     
   8650000   78.039578      126.74406      429.495      
   8660000   77.124085      134.01624      454.1381     
   8670000   86.425328      129.34914      438.32279    
   8680000   72.636852      148.3878       502.83872    
   8690000   73.880202      133.16131      451.241      
   8700000   66.275248      93.990888      318.505      
   8710000   73.292222      115.02732      389.79073    
   8720000   85.75485       112.63325      381.67798    
   8730000   82.875823      116.12871      393.52299    
   8740000   92.978504      130.65685      442.75421    
   8750000   85.170815      125.64589      425.77366    
   8760000   77.833759      115.75905      392.27033    
   8770000   78.829224      111.87163      379.09711    
   8780000   72.999672      137.04404      464.39832    
   8790000   89.677396      125.13775      424.05174    
   8800000   94.195223      139.89254      474.05098    
   8810000   82.193294      140.5091       476.1403     
   8820000   80.532631      137.07394      464.49967    
   8830000   80.981904      118.60541      401.91574    
   8840000   90.845614      127.76318      432.94848    
   8850000   86.637003      143.44302      486.08244    
   8860000   65.431694      120.89927      409.68889    
   8870000   75.352158      111.79093      378.82363    
   8880000   87.192219      105.11488      356.20065    
   8890000   76.179967      115.40289      391.06341    
   8900000   70.706883      123.76039      419.3843     
   8910000   67.170971      124.60804      422.25673    
   8920000   73.44803       130.65647      442.75289    
   8930000   87.285855      121.72243      412.47833    
   8940000   86.922679      131.50184      445.6176     
   8950000   86.84268       120.12862      407.07741    
   8960000   82.632071      118.57614      401.81655    
   8970000   73.380987      128.93593      436.92254    
   8980000   79.974979      127.96667      433.63804    
   8990000   86.499676      144.00753      487.99536    
   9000000   87.89314       134.963        457.34635    
   9010000   85.528085      117.94895      399.69121    
   9020000   66.096081      115.76458      392.28905    
   9030000   66.827721      104.05189      352.59852    
   9040000   65.273806      110.88017      375.73737    
   9050000   79.306797      134.54854      455.94188    
   9060000   94.405932      111.47135      377.74068    
   9070000   76.382032      126.82643      429.77413    
   9080000   80.75463       114.32734      387.4187     
   9090000   76.963486      129.46011      438.69882    
   9100000   75.784538      134.48         455.70964    
   9110000   93.697759      123.41634      418.21843    
   9120000   98.370809      120.52959      408.43617    
   9130000   72.896101      131.20927      444.62616    
   9140000   77.078789      129.58856      439.13412    
   9150000   79.792067      125.35378      424.78379    
   9160000   88.432977      117.93043      399.62844    
   9170000   77.154276      134.94694      457.29192    
   9180000   79.91399       115.51682      391.44948    
   9190000   72.007926      135.01758      457.53132    
   9200000   77.236675      142.52497      482.97147    
   9210000   82.142935      127.24765      431.20151    
   9220000   78.434784      131.35704      445.12692    
   9230000   82.047223      128.05257      433.92914    
   9240000   72.948267      130.74738      443.06097    
   9250000   73.470227      146.46944      496.33801    
   9260000   78.50225       146.12915      495.18487    
   9270000   89.262547      146.07474      495.0005     
   9280000   73.475576      147.32908      499.25103    
   9290000   83.791081      132.05169      447.48087    
   9300000   92.671018      124.47138      421.79362    
   9310000   80.817408      154.21349      522.58009    
   9320000   72.032231      130.4781       442.14849    
   9330000   81.318917      112.56618      381.45072    
   9340000   72.082508      133.74343      453.21364    
   9350000   75.617193      129.01618      437.19449    
   9360000   84.737419      128.25983      434.63146    
   9370000   76.07943       150.83443      511.12954    
   9380000   106.11496      138.35819      468.85156    
   9390000   85.287637      129.77723      439.77345    
   9400000   87.849786      130.52388      442.30359    
   9410000   84.281139      118.53671      401.68292    
   9420000   82.584998      163.79384      555.04483    
   9430000   91.332333      136.50628      462.57604    
   9440000   71.736473      131.44217      445.4154     
   9450000   87.205726      122.29711      414.42573    
   9460000   89.621432      138.11112      468.01433    
   9470000   71.961344      125.91405      426.68238    
   9480000   97.984092      125.23139      424.36906    
   9490000   89.153658      131.273        444.84214    
   9500000   82.62535       142.69226      483.53836    
   9510000   78.636265      136.68075      463.16727    
   9520000   69.074239      140.30725      475.45631    
   9530000   76.118744      139.581        472.99529    
   9540000   65.018429      118.16226      400.41402    
   9550000   61.859611      125.27055      424.50175    
   9560000   81.832332      129.33123      438.26209    
   9570000   91.11021       143.03527      484.70069    
   9580000   80.015529      137.51129      465.9817     
   9590000   86.112391      129.29888      438.15248    
   9600000   84.837946      141.28808      478.78002    
   9610000   83.610447      138.02233      467.71344    
   9620000   95.235498      129.01735      437.19845    
   9630000   86.42048       139.88504      474.02559    
   9640000   81.602037      130.97958      443.84783    
   9650000   91.987652      113.74879      385.45818    
   9660000   76.867969      140.0497       474.58355    
   9670000   78.904341      137.77435      466.87314    
   9680000   79.315456      132.29565      448.30757    
   9690000   76.709267      138.31743      468.71347    
   9700000   97.043363      114.43764      387.79249    
   9710000   78.533339      146.28601      495.71642    
   9720000   92.136853      120.92603      409.77958    
   9730000   78.650589      123.58989      418.80652    
   9740000   107.71706      117.39543      397.81549    
   9750000   86.925544      118.6308       402.00177    
   9760000   78.915089      105.74384      358.332      
   9770000   80.817765      138.12071      468.04683    
   9780000   77.701384      134.38063      455.37289    
   9790000   94.500594      137.46101      465.8113     
   9800000   96.894723      141.66831      480.0685     
   9810000   76.584638      128.91758      436.86037    
   9820000   86.425981      133.03514      450.81346    
   9830000   72.073784      134.11641      454.47754    
   9840000   87.403989      121.57854      411.9907     
   9850000   76.679875      150.2913       509.28906    
   9860000   93.822823      146.96537      498.01855    
   9870000   91.013651      154.89531      524.89058    
   9880000   71.962485      142.37975      482.47936    
   9890000   71.380079      143.9898       487.93531    
   9900000   69.491249      128.81348      436.50762    
   9910000   69.327446      139.382        472.32092    
   9920000   89.380099      118.20324      400.55289    
   9930000   102.07834      125.15471      424.10922    
   9940000   88.047804      128.22561      434.5155     
   9950000   96.276071      132.25827      448.18091    
   9960000   91.443463      140.11311      474.79843    
   9970000   88.026019      126.8708       429.92448    
   9980000   87.147973      146.07506      495.00157    
   9990000   79.684851      135.44687      458.98604    
  10000000   81.001785      132.43407      448.77663    
  10010000   86.829637      115.69115      392.04025    
  10020000   80.474429      136.57256      462.80064    
  10030000   80.243839      138.81908      470.41337    
  10040000   87.822461      131.86418      446.84545    
  10050000   80.513083      144.27007      488.88505    
  10060000   102.39813      125.43334      425.05339    
  10070000   64.690419      112.38852      380.8487     
  10080000   71.043929      150.96986      511.58847    
  10090000   65.317657      126.37225      428.23507    
  10100000   85.159492      129.71411      439.55955    
  10110000   78.343733      121.54009      411.86041    
  10120000   77.121126      164.10238      556.09039    
  10130000   97.073013      123.57802      418.76631    
  10140000   77.413845      134.70955      456.4875     
  10150000   87.170194      129.68849      439.47275    
  10160000   91.958239      140.95408      477.64821    
  10170000   95.607321      134.27921      455.02922    
  10180000   88.630603      151.33925      512.84022    
  10190000   81.852418      159.53878      540.6258     
  10200000   96.797256      155.94202      528.43753    
  10210000   86.351091      146.22403      495.50638    
  10220000   77.194         155.50315      526.95033    
  10230000   96.007622      133.41869      452.11318    
  10240000   94.617721      136.10815      461.22692    
  10250000   84.771084      161.75417      548.13304    
  10260000   89.341095      150.98349      511.63468    
  10270000   102.26874      155.10242      525.59241    
  10280000   90.168272      120.8831       409.63409    
  10290000   96.531778      119.03536      403.37269    
  10300000   92.28153       136.994        464.22876    
  10310000   87.724675      141.37106      479.06122    
  10320000   79.408597      145.04381      491.507      
  10330000   89.495307      128.9295       436.90077    
  10340000   89.186267      122.60046      415.45368    
  10350000   92.203945      154.90843      524.93505    
  10360000   69.183554      148.29465      502.52305    
  10370000   85.808308      125.78354      426.24011    
  10380000   86.033575      128.9244       436.88349    
  10390000   72.558994      143.43816      486.06596    
  10400000   94.97065       124.59334      422.20692    
  10410000   73.955928      139.64952      473.22749    
  10420000   73.930103      147.88751      501.14337    
  10430000   93.244611      117.25383      397.33564    
  10440000   94.121071      116.09801      393.41896    
  10450000   81.871197      136.45964      462.41798    
  10460000   81.061061      126.56591      428.89131    
  10470000   95.200663      139.36398      472.25986    
  10480000   74.345035      146.98166      498.07375    
  10490000   88.817506      128.15287      434.26902    
  10500000   68.105732      122.18983      414.06218    
  10510000   78.574124      142.5435       483.03425    
  10520000   96.385054      135.04108      457.61095    
  10530000   88.63213       120.92655      409.78132    
  10540000   67.34703       124.89821      423.24002    
  10550000   92.944552      145.42487      492.79827    
  10560000   98.236247      139.26966      471.94025    
  10570000   88.899759      136.14352      461.34678    
  10580000   92.07122       119.40966      404.64108    
  10590000   85.433677      127.80961      433.1058     
  10600000   83.186406      129.09882      437.47455    
  10610000   93.799553      130.51587      442.27646    
  10620000   75.007096      135.84669      460.34089    
  10630000   79.396638      119.38835      404.56887    
  10640000   76.091432      139.87782      474.00113    
  10650000   94.8322        143.35274      485.77651    
  10660000   92.51871       159.8321       541.61976    
  10670000   88.82692       142.48536      482.83724    
  10680000   94.212357      154.15364      522.3773     
  10690000   95.717186      134.29012      455.06618    
  10700000   89.772244      147.61406      500.21674    
  10710000   115.61975      136.73779      463.36057    
  10720000   98.388806      143.54197      486.41774    
  10730000   88.390049      128.18428      434.37545    
  10740000   101.40524      137.39943      465.60265    
  10750000   82.757418      131.01436      443.96567    
  10760000   84.447285      127.36345      431.59392    
  10770000   79.622829      133.15378      451.21551    
  10780000   79.884         143.46265      486.14897    
  10790000   91.204025      129.42583      438.58268    
  10800000   89.961332      142.76156      483.77317    
  10810000   85.115072      138.27342      468.56432    
  10820000   92.865662      147.06724      498.36374    
  10830000   104.69334      140.42249      475.84681    
  10840000   83.987248      158.74828      537.94705    
  10850000   69.921148      124.83306      423.01924    
  10860000   93.787714      145.4336       492.82788    
  10870000   84.291269      151.67742      513.98617    
  10880000   107.95189      154.88877      524.8684     
  10890000   95.488338      137.32706      465.35739    
  10900000   101.67315      154.49257      523.52583    
  10910000   100.20715      145.34081      492.51342    
  10920000   87.380775      163.8004       555.06706    
  10930000   85.318047      135.42067      458.89727    
  10940000   90.496041      138.99404      471.00626    
  10950000   81.963266      123.59842      418.83544    
  10960000   121.90684      126.40484      428.34548    
  10970000   84.815264      151.87756      514.66438    
  10980000   86.20055       137.40729      465.62926    
  10990000   72.488122      143.08212      484.85945    
  11000000   86.138676      148.10434      501.87815    
  11010000   81.350504      160.59049      544.18972    
  11020000   81.176817      155.70603      527.63785    
  11030000   80.167621      141.4542       479.34297    
  11040000   91.13226       134.39739      455.4297     
  11050000   84.801592      131.51456      445.66069    
  11060000   92.726671      139.14386      471.51394    
  11070000   80.182858      123.99588      420.18231    
  11080000   102.08343      123.83787      419.64685    
  11090000   105.45724      135.87739      460.44495    
  11100000   88.493462      138.2821       468.59372    
  11110000   93.414933      141.62562      479.92383    
  11120000   93.754098      117.96279      399.73808    
  11130000   98.71366       127.30997      431.4127     
  11140000   98.04727       126.39224      428.30279    
  11150000   91.297909      140.37041      475.67034    
  11160000   85.953127      165.01016      559.16656    
  11170000   87.551698      138.95787      470.88371    
  11180000   97.20294       161.209        546.28565    
  11190000   93.489766      138.29878      468.65025    
  11200000   85.32268       154.59221      523.86346    
  11210000   97.556259      140.70149      476.79226    
  11220000   94.004371      150.45781      509.85329    
  11230000   87.293454      130.8969       443.56764    
  11240000   97.962139      132.11322      447.68937    
  11250000   103.8684       155.66467      527.49767    
  11260000   96.583835      148.09783      501.85609    
  11270000   104.6736       132.58396      449.28456    
  11280000   99.412088      123.25837      417.68311    
  11290000   78.839272      143.856        487.4819     
  11300000   92.943316      144.19591      488.63372    
  11310000   95.270411      148.37051      502.78012    
  11320000   103.30232      141.90501      480.8706     
  11330000   64.104979      146.65266      496.95886    
  11340000   75.378245      147.57779      500.09384    
  11350000   92.93408       159.12203      539.21358    
  11360000   91.929456      150.7832       510.95594    
  11370000   87.114374      147.31418      499.20056    
  11380000   83.235235      141.57951      479.7676     
  11390000   90.64168       147.88509      501.13518    
  11400000   76.391856      145.34757      492.53635    
  11410000   97.907879      124.85177      423.08264    
  11420000   84.01226       123.39365      418.14154    
  11430000   74.954404      124.57966      422.16054    
  11440000   81.397065      152.4786       516.7011     
  11450000   99.151543      141.93711      480.97937    
  11460000   95.434505      132.59739      449.33006    
  11470000   96.26434       149.26742      505.81945    
  11480000   83.897045      146.67604      497.03811    
  11490000   104.78118      138.65287      469.85015    
  11500000   100.38082      139.28275      471.98459    
  11510000   82.893158      131.95849      447.16504    
  11520000   105.62326      128.57539      435.7008     
  11530000   83.846467      164.39043      557.06648    
  11540000   93.405949      140.2196       475.15928    
  11550000   89.899103      153.01823      518.52975    
  11560000   83.058903      146.77382      497.36946    
  11570000   73.94473       130.66872      442.79443    
  11580000   79.849947      136.15846      461.39738    
  11590000   96.666153      138.8324       470.45851    
  11600000   92.361016      150.38797      509.61663    
  11610000   91.765342      162.07629      549.22462    
  11620000   94.572834      137.76734      466.84937    
  11630000   92.69732       138.3021       468.66151    
  11640000   93.642241      138.9882       470.98648    
  11650000   87.659402      158.85665      538.31427    
  11660000   79.830775      168.97853      572.61411    
  11670000   91.555068      138.55843      469.53012    
  11680000   116.77362      129.82683      439.94152    
  11690000   90.115116      132.56354      449.21534    
  11700000   100.89815      139.47567      472.63836    
  11710000   89.586219      145.31146      492.41396    
  11720000   87.72347       137.80349      466.97187    
  11730000   86.036882      138.7045       470.02511    
  11740000   104.83959      146.44563      496.25733    
  11750000   92.413915      137.09145      464.55901    
  11760000   94.848201      163.94694      555.56366    
  11770000   84.589898      144.05473      488.15532    
  11780000   80.465858      147.70055      500.50984    
  11790000   82.49174       152.16608      515.64209    
  11800000   105.2137       143.86443      487.51044    
  11810000   91.051643      167.16697      566.47531    
  11820000   91.346323      151.48612      513.33792    
  11830000   90.008218      163.19381      553.01155    
  11840000   84.158719      144.45046      489.49633    
  11850000   109.69563      137.49229      465.9173     
  11860000   98.808206      133.15857      451.23174    
  11870000   97.619013      154.1791       522.46357    
  11880000   100.39371      143.73884      487.08487    
  11890000   105.97721      141.20378      478.49437    
  11900000   98.033677      137.84074      467.09809    
  11910000   99.100232      142.48067      482.82133    
  11920000   89.808265      140.47499      476.02473    
  11930000   92.625993      144.26438      488.86574    
  11940000   88.861198      143.3375       485.72487    
  11950000   98.420017      129.39912      438.49216    
  11960000   99.254646      129.44623      438.65181    
  11970000   97.648545      156.30539      529.66888    
  11980000   90.237509      152.00774      515.10553    
  11990000   94.414322      164.18445      556.36848    
  12000000   80.005498      141.16286      478.3557     
Loop time of 292.15 on 1 procs for 8000000 steps with 100 atoms

Performance: 23659.066 ns/day, 0.001 hours/ns, 27383.179 timesteps/s, 2.738 Matom-step/s
99.2% CPU use with 1 MPI tasks x 1 OpenMP threads

MPI task timing breakdown:
Section |  min time  |  avg time  |  max time  |%varavg| %total
---------------------------------------------------------------
Pair    | 228.25     | 228.25     | 228.25     |   0.0 | 78.13
Bond    | 38.259     | 38.259     | 38.259     |   0.0 | 13.10
Neigh   | 3.7906     | 3.7906     | 3.7906     |   0.0 |  1.30
Comm    | 3.6682     | 3.6682     | 3.6682     |   0.0 |  1.26
Output  | 0.20469    | 0.20469    | 0.20469    |   0.0 |  0.07
Modify  | 16.637     | 16.637     | 16.637     |   0.0 |  5.69
Other   |            | 1.338      |            |       |  0.46

Nlocal:            100 ave         100 max         100 min
Histogram: 1 0 0 0 0 0 0 0 0 0
Nghost:              0 ave           0 max           0 min
Histogram: 1 0 0 0 0 0 0 0 0 0
Neighs:            368 ave         368 max         368 min
Histogram: 1 0 0 0 0 0 0 0 0 0

Total # of neighbors = 368
Ave neighs/atom = 3.68
Ave special neighs/atom = 5.88
Neighbor list builds = 23446
Dangerous builds = 0

  # Hold at 500
  variable seedHH equal 45000+${c}
  variable seedHH equal 45000+1
  unfix fxl
  fix fxl all langevin ${T_high} ${T_high} 100000.0 ${seedHH}
  fix fxl all langevin 500 ${T_high} 100000.0 ${seedHH}
  fix fxl all langevin 500 500 100000.0 ${seedHH}
  fix fxl all langevin 500 500 100000.0 45001
  run ${n_holdH}
  run 8000000
Generated 0 of 6 mixed pair_coeff terms from geometric mixing rule
Per MPI rank memory allocation (min/avg/max) = 9.633 | 9.633 | 9.633 Mbytes
   Step         PotEng         KinEng          Temp     
  12000000   80.005498      141.16286      478.3557     
  12010000   93.322656      137.77521      466.87603    
  12020000   87.943486      144.40042      489.32674    
  12030000   93.022107      165.72936      561.6037     
  12040000   99.707401      139.25054      471.87547    
  12050000   107.78687      138.22278      468.39269    
  12060000   94.787821      134.83313      456.90626    
  12070000   108.3359       146.87299      497.7055     
  12080000   95.463599      159.86865      541.74364    
  12090000   91.823722      147.37269      499.39883    
  12100000   107.22789      138.62833      469.76698    
  12110000   98.951781      160.03142      542.2952     
  12120000   95.825409      154.68976      524.19402    
  12130000   101.25369      134.134        454.53714    
  12140000   120.57745      164.19458      556.4028     
  12150000   98.277068      148.17708      502.12465    
  12160000   90.302208      144.49049      489.63196    
  12170000   69.573514      155.5544       527.12401    
  12180000   93.591992      139.99074      474.38374    
  12190000   96.006492      145.55092      493.22544    
  12200000   89.024026      144.7525       490.51984    
  12210000   93.439873      171.39585      580.8056     
  12220000   104.82236      139.06261      471.23864    
  12230000   91.702924      160.68448      544.50821    
  12240000   101.63204      156.21338      529.35709    
  12250000   104.76827      149.97444      508.21531    
  12260000   97.547685      157.48756      533.67489    
  12270000   105.20427      170.11319      576.45909    
  12280000   98.410482      141.79766      480.50684    
  12290000   93.152282      143.13915      485.05271    
  12300000   86.852313      143.73603      487.07533    
  12310000   97.613633      143.81274      487.3353     
  12320000   99.432692      138.13427      468.09277    
  12330000   95.972104      147.90318      501.19647    
  12340000   87.285986      116.98615      396.42858    
  12350000   102.53671      162.34874      550.14785    
  12360000   100.39164      150.05281      508.4809     
  12370000   112.15572      159.05179      538.97555    
  12380000   82.971297      149.35337      506.11073    
  12390000   111.71972      131.11989      444.32329    
  12400000   76.898718      152.76444      517.66974    
  12410000   96.595482      151.77449      514.31512    
  12420000   96.000459      131.12155      444.32893    
  12430000   80.940242      139.08283      471.30714    
  12440000   80.417353      151.18793      512.32746    
  12450000   80.651256      147.53689      499.95525    
  12460000   116.36958      130.46793      442.11402    
  12470000   104.76967      134.55108      455.95048    
  12480000   80.865972      146.56524      496.66263    
  12490000   102.0609       144.41605      489.37971    
  12500000   114.49864      156.2539       529.49439    
  12510000   106.78682      170.83601      578.9085     
  12520000   81.267136      161.77734      548.21158    
  12530000   94.002516      154.19085      522.50339    
  12540000   89.077625      154.85137      524.74167    
  12550000   84.708062      158.85756      538.31738    
  12560000   111.3419       144.69181      490.31418    
  12570000   87.141488      141.93394      480.96863    
  12580000   99.514161      143.53029      486.37816    
  12590000   97.201457      150.09979      508.6401     
  12600000   72.201193      158.36712      536.65544    
  12610000   97.342582      154.38353      523.15632    
[...]
 404760000  -29.318783      81.98515       277.8214     
 404770000  -22.140477      92.359083      312.97534    
 404780000  -33.665376      83.949287      284.47723    
 404790000  -40.936762      85.921931      291.16189    
 404800000  -36.00727       89.802182      304.31082    
 404810000  -38.638304      102.69777      348.00985    
 404820000  -26.872165      83.059778      281.46297    
 404830000  -20.675425      84.564347      286.56148    
 404840000  -25.900992      89.091494      301.90253    
 404850000  -15.302143      87.669071      297.08239    
 404860000  -17.38024       91.841478      311.22134    
 404870000  -15.556386      90.943851      308.17957    
 404880000  -9.7813097      93.021742      315.22087    
 404890000   3.4090912      100.04182      339.00967    
 404900000  -19.150723      87.09677       295.14304    
 404910000  -15.912965      92.436679      313.23828    
 404920000  -14.027003      100.82269      341.65578    
 404930000  -23.04349       97.566088      330.62021    
 404940000  -18.689959      93.506401      316.86323    
 404950000  -3.2656499      87.225165      295.57813    
 404960000  -29.606267      97.577559      330.65908    
 404970000  -21.350676      84.493019      286.31977    
 404980000  -34.860631      90.984937      308.3188     
 404990000  -31.235285      83.67214       283.53807    
 405000000  -24.844963      87.169539      295.38963    
 405010000  -27.922304      95.286491      322.89538    
 405020000  -20.312001      88.587744      300.19548    
 405030000  -23.065773      97.550139      330.56616    
 405040000  -19.793306      86.90658       294.49855    
 405050000  -34.551388      91.790642      311.04907    
 405060000  -27.364224      89.094604      301.91307    
 405070000  -23.269709      92.207309      312.46102    
 405080000  -9.2532929      83.776573      283.89196    
 405090000  -20.809946      89.587926      303.58477    
 405100000  -19.886814      79.015332      267.75764    
 405110000  -29.238276      87.067827      295.04497    
 405120000  -29.893065      77.86778       263.86895    
 405130000  -18.637795      101.42401      343.69348    
 405140000  -23.078445      96.815832      328.07783    
 405150000  -26.496654      88.623391      300.31628    
 405160000  -21.76759       92.169377      312.33249    
 405170000  -30.094595      114.73284      388.79284    
 405180000  -10.838523      87.344145      295.98132    
 405190000  -15.78407       91.154516      308.89344    
 405200000  -24.388852      85.727869      290.50428    
 405210000  -26.199582      82.691672      280.21558    
 405220000  -27.571763      92.392212      313.0876     
 405230000  -28.60524       87.377256      296.09352    
 405240000  -21.761624      81.846216      277.3506     
 405250000  -18.774693      85.88402       291.03342    
 405260000  -28.591758      93.749511      317.68705    
 405270000  -16.657446      81.739635      276.98943    
 405280000  -31.258973      97.021857      328.77598    
 405290000  -21.924638      89.324788      302.69308    
 405300000  -23.139199      98.309298      333.13871    
 405310000  -12.294455      82.164837      278.4303     
 405320000  -21.316055      89.47846       303.21383    
 405330000  -22.136975      89.027559      301.68587    
 405340000  -19.512635      98.637053      334.24937    
 405350000  -30.269489      90.747879      307.51548    
 405360000  -45.65922       81.500974      276.18069    
 405370000  -37.557925      89.765759      304.18739    
 405380000  -36.852244      94.362954      319.76581    
 405390000  -29.701021      85.288848      289.01658    
 405400000  -32.716578      98.192845      332.74409    
 405410000  -27.253643      89.541326      303.42686    
 405420000  -24.333363      78.766077      266.913      
 405430000  -39.319593      91.780988      311.01636    
 405440000  -29.414163      87.793524      297.50412    
 405450000  -28.254599      75.230412      254.93176    
 405460000  -30.529973      83.387362      282.57305    
 405470000  -22.71606       97.889141      331.71493    
 405480000  -6.883116       93.283108      316.10656    
 405490000  -11.115984      99.605986      337.53277    
 405500000  -27.541464      95.775095      324.55111    
 405510000  -22.480561      98.752569      334.64081    
 405520000  -27.904224      92.838483      314.59987    
 405530000  -39.440994      75.566656      256.07118    
 405540000  -45.123488      82.503642      279.57841    
 405550000  -24.994216      87.959961      298.06812    
 405560000  -15.677751      90.807672      307.7181     
 405570000  -26.633641      76.24573       258.37235    
 405580000  -46.547254      96.385086      326.61817    
 405590000  -35.485687      92.241969      312.57848    
 405600000  -38.905882      85.917142      291.14566    
 405610000  -20.665794      78.279838      265.26529    
 405620000  -49.851582      82.439303      279.36038    
 405630000  -34.076058      84.425799      286.09198    
 405640000  -13.702264      84.81403       287.40757    
 405650000  -22.459825      85.33055       289.15789    
 405660000  -26.250414      88.398167      299.55306    
 405670000  -38.540073      92.953579      314.98989    
 405680000  -45.312659      82.246798      278.70804    
 405690000  -32.73296       80.559474      272.99024    
 405700000  -30.221772      90.153445      305.50114    
 405710000  -8.0408896      88.389319      299.52308    
 405720000  -26.293083      83.790884      283.94046    
 405730000  -21.021343      85.483555      289.67637    
 405740000  -39.874586      86.46348       292.99703    
 405750000  -32.819543      85.746439      290.56721    
 405760000  -14.918561      93.084796      315.43455    
 405770000  -10.51959       84.91876       287.76247    
 405780000  -26.930287      78.01591       264.37092    
 405790000  -40.49554       91.178245      308.97386    
 405800000  -35.600158      84.584494      286.62975    
 405810000  -28.519391      80.915916      274.19811    
 405820000  -29.308567      89.318433      302.67155    
 405830000  -43.025595      91.609102      310.43389    
 405840000  -36.273366      97.555883      330.58563    
 405850000  -41.905699      98.365236      333.32827    
 405860000  -23.739567      103.73446      351.52283    
 405870000  -28.176712      102.95924      348.89589    
 405880000  -13.714369      76.70874       259.94134    
 405890000  -15.098688      90.817931      307.75287    
 405900000  -21.523272      87.525672      296.59646    
 405910000  -25.713098      88.413273      299.60425    
 405920000  -23.728393      68.976041      233.7377     
 405930000  -38.473166      94.967168      321.8133     
 405940000  -35.867515      79.330877      268.82692    
 405950000  -46.312165      89.781813      304.2418     
 405960000  -49.464434      83.85706       284.16471    
 405970000  -53.133894      94.03259       318.64632    
 405980000  -30.171471      89.716792      304.02146    
 405990000  -24.709029      83.737256      283.75873    
 406000000  -22.083746      73.133851      247.82719    
 406010000  -36.000807      94.065868      318.75909    
 406020000  -46.720582      88.162611      298.75484    
 406030000  -26.105298      83.310501      282.31259    
 406040000  -41.897537      92.028226      311.85417    
 406050000  -40.077932      89.259843      302.473      
 406060000  -28.075376      94.560264      320.43443    
 406070000  -24.26189       88.887842      301.21241    
 406080000  -21.834372      85.284864      289.00308    
 406090000  -24.100683      82.036282      277.99467    
 406100000  -13.947603      80.564117      273.00598    
 406110000  -23.45239       94.145759      319.02981    
 406120000  -18.173191      95.647305      324.11807    
 406130000  -15.190771      95.067037      322.15173    
 406140000  -31.392503      88.248069      299.04443    
 406150000  -25.132843      86.869212      294.37192    
 406160000  -37.027007      90.798271      307.68625    
 406170000  -13.883773      88.381072      299.49513    
 406180000  -10.246952      86.669135      293.69393    
 406190000  -34.296983      104.26249      353.31217    
 406200000  -26.638306      102.85644      348.5475     
 406210000  -20.928636      82.753093      280.42372    
 406220000  -15.852365      83.510807      282.99136    
 406230000  -16.889262      87.35221       296.00865    
 406240000  -25.154924      84.968328      287.93044    
 406250000  -4.9862921      80.058913      271.294      
 406260000  -23.076846      80.915464      274.19658    
 406270000  -31.915461      90.599594      307.01299    
 406280000  -22.036364      87.906494      297.88694    
 406290000  -29.33053       87.694116      297.16726    
 406300000  -16.837851      85.016269      288.09289    
 406310000  -16.545476      82.633729      280.01923    
 406320000  -25.961157      97.662107      330.94559    
 406330000  -28.21764       87.447085      296.33015    
 406340000  -33.903477      87.138239      295.28357    
 406350000  -26.395104      87.879932      297.79693    
 406360000  -41.130609      95.286378      322.895      
 406370000  -28.243347      91.042343      308.51333    
 406380000  -42.42933       104.05557      352.61097    
 406390000  -12.718907      84.034349      284.76548    
 406400000  -8.2682523      84.750782      287.19324    
 406410000  -23.597982      93.538792      316.97299    
 406420000  -17.064095      90.870775      307.93194    
 406430000  -17.738872      107.61571      364.67515    
 406440000  -17.265385      91.256005      309.23736    
 406450000  -13.853173      98.479425      333.71521    
 406460000  -20.47576       86.130249      291.86781    
 406470000  -18.894705      81.537781      276.30541    
 406480000  -31.40041       104.10878      352.7913     
 406490000  -16.358856      88.682504      300.51659    
 406500000  -21.531894      91.687208      310.69857    
 406510000  -28.581659      83.09644       281.58721    
 406520000  -21.16364       77.141348      261.40731    
 406530000  -27.058452      84.44836       286.16843    
 406540000  -19.478251      90.799633      307.69086    
 406550000  -21.398217      83.457036      282.80915    
 406560000  -25.161556      94.068925      318.76945    
 406570000  -21.659433      92.395572      313.09899    
 406580000  -21.503833      88.876582      301.17426    
 406590000  -33.333893      101.07508      342.51105    
 406600000  -22.649201      89.523176      303.36536    
 406610000  -30.503254      80.96506       274.36465    
 406620000  -18.469655      85.965497      291.30952    
 406630000  -27.450624      84.977607      287.96188    
 406640000  -15.970207      78.943287      267.5135     
 406650000  -41.958736      93.10696       315.50965    
 406660000  -25.966585      84.522227      286.41874    
 406670000  -30.927476      86.900919      294.47937    
 406680000  -32.23263       94.209308      319.24516    
 406690000  -27.769395      86.478929      293.04938    
 406700000  -36.112507      88.707052      300.59977    
 406710000  -27.46549       83.332619      282.38754    
 406720000  -48.077576      88.715029      300.6268     
 406730000  -35.403135      84.322639      285.7424     
 406740000  -35.655989      89.622748      303.70277    
 406750000  -22.122533      89.867623      304.53258    
 406760000  -24.836509      82.671823      280.14832    
 406770000  -38.252394      99.747135      338.01108    
 406780000  -25.159346      89.725371      304.05053    
 406790000  -16.58417       94.861047      321.45369    
 406800000   4.9053567      81.401747      275.84443    
 406810000   3.4670661      89.740787      304.10277    
 406820000  -11.263046      92.113134      312.14189    
 406830000  -17.565774      90.402664      306.34566    
 406840000  -36.163635      94.231177      319.31926    
 406850000  -28.029292      85.922448      291.16364    
 406860000  -28.218143      92.927306      314.90086    
 406870000  -18.603877      93.666197      317.40473    
 406880000  -19.772446      86.500252      293.12164    
 406890000  -13.156387      93.703074      317.52969    
 406900000  -14.407466      93.470808      316.74262    
 406910000  -25.596694      94.443319      320.03814    
 406920000  -28.440242      88.36955       299.45609    
 406930000  -29.107858      107.66652      364.84733    
 406940000  -19.914509      96.0769        325.57383    
 406950000  -25.532165      96.387854      326.62755    
 406960000  -14.432618      81.378319      275.76505    
 406970000  -30.573924      90.357571      306.19285    
 406980000  -34.077908      104.96147      355.68078    
 406990000  -18.321911      94.385198      319.84119    
 407000000  -17.28238       79.750867      270.25013    
 407010000  -27.603111      86.453708      292.96391    
 407020000  -29.772948      89.73496       304.08303    
 407030000  -36.598238      97.061129      328.90907    
 407040000  -25.75707       84.384651      285.95254    
 407050000  -21.138155      80.964728      274.36352    
 407060000  -33.945904      103.24596      349.86749    
 407070000  -33.434671      94.417847      319.95183    
 407080000  -33.852621      93.365244      316.3849     
 407090000  -25.150616      88.686752      300.53098    
 407100000  -20.87412       75.610894      256.22109    
 407110000  -28.433696      76.828801      260.34819    
 407120000  -22.20255       92.338364      312.90513    
 407130000  -30.876822      91.016962      308.42732    
 407140000  -14.273919      82.92748       281.01466    
 407150000  -19.901258      93.817308      317.9168     
 407160000  -24.22327       87.728527      297.28387    
 407170000  -28.535148      84.435506      286.12487    
 407180000  -30.302442      105.69563      358.16862    
 407190000  -18.598474      100.90927      341.94917    
 407200000  -3.2461697      87.19253       295.46754    
 407210000   1.1095819      93.519101      316.90627    
 407220000  -18.659287      94.686718      320.86295    
 407230000  -17.098911      90.916343      308.08635    
 407240000  -1.3602128      92.087518      312.05509    
 407250000  -12.962707      93.074022      315.39804    
 407260000  -12.314352      96.835973      328.14608    
 407270000  -15.108048      99.115774      335.8716     
 407280000  -8.6178423      85.456547      289.58485    
 407290000  -6.159518       73.163483      247.9276     
 407300000  -5.8617548      71.787988      243.26649    
 407310000  -22.478885      97.136534      329.16459    
 407320000  -10.272902      112.32115      380.6204     
 407330000   1.0415449      94.59125       320.53944    
 407340000   11.263815      84.985022      287.98701    
 407350000   2.7786629      91.841358      311.22093    
 407360000  -4.7928705      90.343865      306.14641    
 407370000  -3.1486703      84.393983      285.98417    
 407380000  -12.705931      97.559491      330.59785    
 407390000  -7.6769016      84.048516      284.81349    
 407400000  -16.602607      83.682144      283.57197    
 407410000  -12.636238      102.0806       345.91843    
 407420000  -17.037864      92.136745      312.22191    
 407430000  -10.63727       86.796132      294.12428    
 407440000  -3.6834599      82.815444      280.635      
 407450000  -18.629938      88.028024      298.29877    
 407460000  -14.357855      77.241266      261.7459     
 407470000  -13.933782      88.87103       301.15544    
 407480000  -2.3760514      82.341185      279.02789    
 407490000  -4.0425549      92.434502      313.23091    
 407500000  -10.506682      91.217641      309.10736    
 407510000  -0.50049801     87.537064      296.63506    
 407520000   3.1395385      103.32527      350.13625    
 407530000   0.97751407     93.779965      317.79025    
 407540000  -0.92834135     100.1308       339.31118    
 407550000  -12.492842      96.709515      327.71756    
 407560000  -19.806905      93.386162      316.45578    
 407570000  -14.717913      82.971174      281.16272    
 407580000  -28.3018        82.182614      278.49055    
 407590000  -26.219892      77.198007      261.59931    
 407600000  -2.0375756      86.435904      292.90358    
 407610000  -7.7707257      89.776902      304.22515    
 407620000  -3.6811315      87.93974       297.9996     
 407630000   0.6515265      89.257924      302.4665     
 407640000   10.747732      93.625114      317.26551    
 407650000   8.5115272      105.78715      358.47877    
 407660000   11.504511      100.84495      341.73123    
 407670000   4.8388799      97.992188      332.06412    
 407680000  -6.3128857      95.138925      322.39533    
 407690000  -8.1424197      80.174542      271.68583    
 407700000  -8.6569729      97.198739      329.37538    
 407710000  -14.2497        104.29378      353.41821    
 407720000  -12.51432       79.51085       269.43679    
 407730000  -19.603067      97.063692      328.91775    
 407740000  -28.602225      84.874948      287.614      
 407750000  -14.261241      93.84843       318.02226    
 407760000  -19.679392      82.25119       278.72293    
 407770000  -29.338496      93.617413      317.23941    
 407780000  -9.891783       88.933986      301.36878    
 407790000  -17.507565      82.141043      278.34967    
 407800000  -36.42603       89.409359      302.97967    
 407810000  -36.725279      91.304822      309.40278    
 407820000  -34.094013      89.171718      302.17438    
 407830000  -38.940265      94.238074      319.34263    
 407840000  -11.989348      88.590646      300.20531    
 407850000  -2.951752       100.88759      341.87571    
 407860000  -6.3827549      96.398346      326.66311    
 407870000  -5.8191419      88.619776      300.30402    
 407880000   12.331486      91.737273      310.86822    
 407890000   3.3022917      93.943225      318.34349    
 407900000  -1.3755269      92.418171      313.17557    
 407910000  -4.4156867      89.037424      301.7193     
 407920000  -13.933587      87.291055      295.80141    
 407930000  -6.3801743      95.196387      322.59005    
 407940000  -8.0880891      93.463754      316.71871    
 407950000  -15.010344      86.579742      293.391      
 407960000  -3.3931118      80.420303      272.51864    
 407970000  -9.0205183      82.600209      279.90564    
 407980000  -20.820566      84.608525      286.71118    
 407990000  -13.549134      79.001444      267.71058    
 408000000  -3.2142418      91.182455      308.98812    
Loop time of 324.079 on 1 procs for 4000000 steps with 100 atoms

Performance: 10664.052 ns/day, 0.002 hours/ns, 12342.652 timesteps/s, 1.234 Matom-step/s
99.2% CPU use with 1 MPI tasks x 1 OpenMP threads

MPI task timing breakdown:
Section |  min time  |  avg time  |  max time  |%varavg| %total
---------------------------------------------------------------
Pair    | 291.16     | 291.16     | 291.16     |   0.0 | 89.84
Bond    | 19.657     | 19.657     | 19.657     |   0.0 |  6.07
Neigh   | 1.6778     | 1.6778     | 1.6778     |   0.0 |  0.52
Comm    | 2.0408     | 2.0408     | 2.0408     |   0.0 |  0.63
Output  | 0.095079   | 0.095079   | 0.095079   |   0.0 |  0.03
Modify  | 8.5779     | 8.5779     | 8.5779     |   0.0 |  2.65
Other   |            | 0.8671     |            |       |  0.27

Nlocal:            100 ave         100 max         100 min
Histogram: 1 0 0 0 0 0 0 0 0 0
Nghost:             19 ave          19 max          19 min
Histogram: 1 0 0 0 0 0 0 0 0 0
Neighs:            807 ave         807 max         807 min
Histogram: 1 0 0 0 0 0 0 0 0 0

Total # of neighbors = 807
Ave neighs/atom = 8.07
Ave special neighs/atom = 5.88
Neighbor list builds = 8757
Dangerous builds = 0

write_data outputs/${tag}_final.data
write_data outputs/config_18_len100_08.dat_final.data
System init for write_data ...
Generated 0 of 6 mixed pair_coeff terms from geometric mixing rule
Total wall time: 4:53:27
