
# ===============================
# FORCE FIELD
# ===============================
bond_style harmonic
bond_coeff 1 7.5 5.9

angle_style harmonic
angle_coeff 1 5.0 150.0

pair_style hybrid/overlay lj/cut 10.0 base/rna 18.0
pair_modify shift yes
pair_coeff * * lj/cut 2.0 8.9089871814

# Base-pair interactions
pair_coeff 1 1 base/rna 0.00000 3.0 13.8 1.5 0.5 1.8326 0.9425 1.8326 1.1345
pair_coeff 1 2 base/rna 0.00000 3.0 13.8 1.5 0.5 1.8326 0.9425 1.8326 1.1345
pair_coeff 1 3 base/rna 0.00000 3.0 13.8 1.5 0.5 1.8326 0.9425 1.8326 1.1345
pair_coeff 1 4 base/rna 3.33333 3.0 13.8 1.5 0.5 1.8326 0.9425 1.8326 1.1345
pair_coeff 2 2 base/rna 0.00000 3.0 13.8 1.5 0.5 1.8326 0.9425 1.8326 1.1345
pair_coeff 2 3 base/rna 5.00000 3.0 13.8 1.5 0.5 1.8326 0.9425 1.8326 1.1345
pair_coeff 2 4 base/rna 0.00000 3.0 13.8 1.5 0.5 1.8326 0.9425 1.8326 1.1345
pair_coeff 3 3 base/rna 0.00000 3.0 13.8 1.5 0.5 1.8326 0.9425 1.8326 1.1345
pair_coeff 3 4 base/rna 3.33333 3.0 13.8 1.5 0.5 1.8326 0.9425 1.8326 1.1345
pair_coeff 4 4 base/rna 0.00000 3.0 13.8 1.5 0.5 1.8326 0.9425 1.8326 1.1345

special_bonds lj 0.0 0.0 1.0
Finding 1-2 1-3 1-4 neighbors ...
  special bond factors lj:    0        0        1       
  special bond factors coul:  0        0        0       
     2 = max # of 1-2 neighbors
     2 = max # of 1-3 neighbors
     4 = max # of 1-4 neighbors
     6 = max # of special neighbors
  special bonds CPU = 0.000 seconds
neighbor 15.0 bin
neigh_modify every 10 delay 0
comm_style tiled
timestep 10

# ===============================
# DUMPS
# ===============================
dump d1 all custom ${dump_stride} outputs/${tag}.lammpstrj id mol type q xu yu zu
dump d1 all custom 50000 outputs/${tag}.lammpstrj id mol type q xu yu zu
dump d1 all custom 50000 outputs/config_12_len100_02.dat.lammpstrj id mol type q xu yu zu
dump_modify d1 sort id

# ===============================
# THERMO
# ===============================
thermo_style custom step pe ke temp
thermo ${thermo_stride}
thermo 10000
thermo_modify flush yes

variable vpe equal pe
variable vke equal ke
variable vT  equal temp

fix fa all ave/time ${thermo_stride} 10 ${stride10} v_vpe v_vke v_vT file outputs/thermo_${tag}_averaged.dat
fix fa all ave/time 10000 10 ${stride10} v_vpe v_vke v_vT file outputs/thermo_${tag}_averaged.dat
fix fa all ave/time 10000 10 100000 v_vpe v_vke v_vT file outputs/thermo_${tag}_averaged.dat
fix fa all ave/time 10000 10 100000 v_vpe v_vke v_vT file outputs/thermo_config_12_len100_02.dat_averaged.dat

# ===============================
# EQUILIBRATION (40 ns)
# ===============================
fix fxnve all nve
variable seed0 equal 43001
fix fxl all langevin ${T_eq} ${T_eq} 100000.0 ${seed0}
fix fxl all langevin 298 ${T_eq} 100000.0 ${seed0}
fix fxl all langevin 298 298 100000.0 ${seed0}
fix fxl all langevin 298 298 100000.0 43001

run ${n_eq}
run 4000000

CITE-CITE-CITE-CITE-CITE-CITE-CITE-CITE-CITE-CITE-CITE-CITE-CITE

Your simulation uses code contributions which should be cited:

- Type Label Framework: https://doi.org/10.1021/acs.jpcb.3c08419

@Article{Gissinger24,
 author = {Jacob R. Gissinger, Ilia Nikiforov, Yaser Afshar, Brendon Waters, Moon-ki Choi, Daniel S. Karls, Alexander Stukowski, Wonpil Im, Hendrik Heinz, Axel Kohlmeyer, and Ellad B. Tadmor},
 title = {Type Label Framework for Bonded Force Fields in LAMMPS},
 journal = {J. Phys. Chem. B},
 year =    2024,
 volume =  128,
 number =  13,
 pages =   {3282–-3297}
}

CITE-CITE-CITE-CITE-CITE-CITE-CITE-CITE-CITE-CITE-CITE-CITE-CITE

Generated 0 of 6 mixed pair_coeff terms from geometric mixing rule
Neighbor list info ...
  update: every = 10 steps, delay = 0 steps, check = yes
  max neighbors/atom: 2000, page size: 100000
  master list distance cutoff = 33
  ghost atom cutoff = 33
  binsize = 16.5, bins = 61 61 61
  2 neighbor lists, perpetual/occasional/extra = 2 0 0
  (1) pair lj/cut, perpetual, trim from (2)
      attributes: half, newton on, cut 25
      pair build: trim
      stencil: none
      bin: none
  (2) pair base/rna, perpetual
      attributes: half, newton on
      pair build: half/bin/newton
      stencil: half/bin/3d
      bin: standard
Per MPI rank memory allocation (min/avg/max) = 8.37 | 8.37 | 8.37 Mbytes
   Step         PotEng         KinEng          Temp     
         0   134.33628      0              0            
     10000   59.894322      83.914895      284.36069    
     20000   63.507997      101.57869      344.21763    
     30000   53.027279      89.816699      304.36001    
     40000   45.962347      83.385973      282.56834    
     50000   47.839439      95.578748      323.88575    
     60000   55.897479      91.291813      309.3587     
     70000   51.199106      83.116867      281.65643    
     80000   39.805407      91.131914      308.81685    
     90000   37.42524       86.563144      293.33476    
    100000   30.346062      84.772926      287.26828    
    110000   21.469783      84.661265      286.8899     
    120000   35.721221      93.565127      317.06223    
    130000   14.21251       81.182886      275.10279    
    140000   23.383231      96.371741      326.57295    
    150000   20.115062      90.459679      306.53886    
    160000   5.7281066      80.249888      271.94116    
    170000   19.135152      90.545216      306.82872    
    180000   11.865486      87.311192      295.86965    
    190000   25.305022      81.583701      276.46102    
    200000   23.572576      88.563041      300.11177    
    210000   25.756256      89.96021       304.84632    
    220000   25.66798       79.473351      269.30972    
    230000   13.290892      84.240357      285.46358    
    240000   11.011217      80.250345      271.9427     
    250000   20.118599      80.351563      272.2857     
    260000   30.396101      87.035446      294.93524    
    270000   38.653478      105.14843      356.31432    
    280000   15.17387       100.55576      340.75126    
    290000   27.212177      86.279555      292.37376    
    300000   0.95789999     99.400868      336.83769    
    310000   7.5103916      87.183479      295.43687    
    320000   11.387553      90.935095      308.1499     
    330000   1.8575187      98.403113      333.45662    
    340000   4.2384339      90.2918        305.96998    
    350000  -3.6734194      85.812233      290.79016    
    360000   6.3602244      94.997502      321.91609    
    370000   24.372025      85.07005       288.27514    
    380000   2.898843       93.987829      318.49463    
    390000   21.117207      88.965248      301.47472    
    400000   14.236745      93.158954      315.68584    
    410000  -0.015756051    88.002577      298.21253    
    420000  -20.368885      84.996019      288.02427    
    430000  -1.8157268      96.444336      326.81895    
    440000  -16.258032      84.589951      286.64824    
    450000  -12.953663      88.561623      300.10696    
    460000  -21.748515      78.966912      267.59356    
    470000  -22.520463      84.879676      287.63002    
    480000   12.184821      84.404788      286.02078    
    490000  -11.278846      92.276729      312.69627    
    500000  -4.4584092      88.303248      299.23141    
    510000  -4.1145075      78.384512      265.61999    
    520000   0.039663388    91.549036      310.23035    
    530000  -2.277164       82.491459      279.53712    
    540000  -5.5969462      98.601347      334.12837    
    550000  -0.98736197     88.016677      298.26032    
    560000  -9.7150051      88.428676      299.65645    
    570000  -7.7766863      92.362605      312.98727    
    580000  -25.617839      82.459862      279.43005    
    590000  -17.64441       91.895262      311.4036     
    600000  -25.091283      87.688997      297.14991    
    610000  -15.287704      92.552194      313.62973    
    620000  -25.467681      96.334826      326.44785    
    630000  -23.256806      98.401838      333.4523     
    640000  -6.6142784      82.258176      278.7466     
    650000  -21.765813      82.690629      280.21205    
    660000  -22.536072      71.4688        242.18486    
    670000  -19.066967      78.455518      265.86061    
    680000  -35.891386      81.642928      276.66172    
    690000  -36.042373      86.27536       292.35955    
    700000  -22.639963      81.636278      276.63919    
    710000  -26.67367       97.654468      330.9197     
    720000  -18.21968       79.232841      268.49471    
    730000  -36.114686      82.882377      280.86182    
    740000  -29.528482      87.906878      297.88824    
    750000  -11.560475      84.323393      285.74496    
    760000  -21.292376      86.423608      292.86191    
    770000  -26.000939      104.80931      355.16515    
    780000  -34.799935      93.729313      317.61861    
    790000  -25.852482      86.764691      294.01774    
    800000  -22.074481      79.220616      268.45328    
    810000  -23.154773      91.389441      309.68953    
    820000  -26.246327      80.8784        274.07098    
    830000  -21.55239       77.746852      263.45917    
    840000  -33.520508      87.614705      296.89816    
    850000  -29.684715      84.199786      285.3261     
    860000  -22.112127      77.359505      262.14657    
    870000  -8.2486051      81.524098      276.25905    
    880000  -17.4263        90.022522      305.05748    
    890000  -20.523222      91.36434       309.60447    
    900000  -37.633354      94.588875      320.53139    
    910000  -41.133817      76.482588      259.17498    
    920000  -39.146625      86.857964      294.33381    
    930000  -20.400039      78.868545      267.26023    
    940000  -22.925412      86.655858      293.64894    
    950000  -25.544096      85.816225      290.80369    
    960000  -27.534773      92.720275      314.1993     
    970000  -20.820657      84.952178      287.87571    
    980000  -8.9728274      94.09352       318.85279    
    990000   2.266385       86.783242      294.0806     
   1000000  -13.37174       83.811318      284.0097     
   1010000  -8.3379392      80.864346      274.02336    
   1020000  -15.62241       100.2644       339.76394    
   1030000  -9.6393394      88.168023      298.77318    
   1040000  -8.4289526      94.333191      319.66496    
   1050000  -14.565074      102.19554      346.30794    
   1060000  -11.918275      97.964362      331.96983    
   1070000   2.2885968      85.072625      288.28387    
   1080000  -4.0775012      83.414705      282.66571    
   1090000  -7.3424573      96.870505      328.2631     
   1100000  -3.2046373      93.074585      315.39994    
   1110000  -9.3639116      100.89874      341.91351    
   1120000  -8.3564949      95.760757      324.50252    
   1130000  -4.7110776      88.885115      301.20317    
   1140000  -7.9718691      85.208418      288.74403    
   1150000  -11.11037       88.600196      300.23768    
   1160000  -14.319302      85.862692      290.96115    
   1170000  -24.748363      91.258175      309.24471    
   1180000  -5.1451617      84.657193      286.8761     
   1190000  -24.308976      95.273582      322.85164    
   1200000  -12.400919      94.343793      319.70088    
   1210000   3.5823249      84.587604      286.64028    
   1220000  -14.482094      88.0087        298.23328    
   1230000  -28.20867       89.948797      304.80765    
   1240000  -10.646263      94.844685      321.39825    
   1250000  -25.964434      89.268748      302.50318    
   1260000   3.0908755      77.325165      262.03021    
   1270000  -15.574481      94.46019       320.09531    
   1280000  -15.711303      92.256452      312.62756    
   1290000  -9.843678       96.755712      327.8741     
   1300000   2.3454049      92.820667      314.5395     
   1310000  -20.089549      97.026186      328.79065    
   1320000  -27.106938      76.679268      259.84147    
   1330000  -29.950991      82.252503      278.72738    
   1340000  -27.705422      82.529103      279.66469    
   1350000  -35.2009        93.602781      317.18983    
   1360000  -25.337511      91.166092      308.93267    
   1370000  -23.533411      87.833737      297.64039    
   1380000  -25.766926      85.123641      288.45674    
   1390000  -18.487582      88.455393      299.74698    
   1400000  -22.134461      97.920887      331.82251    
   1410000  -13.96398       88.587907      300.19603    
   1420000   0.15165841     88.154401      298.72702    
   1430000  -7.5011081      88.920239      301.3222     
   1440000  -7.2009611      101.21085      342.97113    
   1450000   12.847238      82.236205      278.67215    
   1460000  -4.3036361      85.395116      289.37668    
   1470000   0.33403692     82.188333      278.50992    
   1480000  -4.4877708      91.417955      309.78616    
   1490000  -6.5793905      91.079002      308.63755    
   1500000  -8.9065306      91.843383      311.2278     
   1510000   2.762607       91.342553      309.53064    
   1520000   3.4322422      99.013414      335.52473    
   1530000  -15.272629      98.244424      332.91887    
   1540000  -27.043436      98.288342      333.0677     
   1550000  -14.197292      87.531507      296.61623    
   1560000  -25.56453       95.018573      321.9875     
   1570000  -26.176806      79.859137      270.61702    
   1580000  -7.5303483      87.754178      297.37079    
   1590000  -22.549478      102.75307      348.19724    
   1600000  -25.070545      82.706745      280.26666    
   1610000  -51.261328      95.161119      322.47054    
   1620000  -43.978119      85.538884      289.86387    
   1630000  -24.504942      92.070671      311.998      
   1640000  -31.216423      90.707809      307.3797     
   1650000  -31.446536      81.329163      275.59847    
   1660000  -41.75145       96.550797      327.17971    
   1670000  -36.216239      84.403545      286.01657    
   1680000  -55.801977      86.630792      293.564      
   1690000  -45.829495      85.191779      288.68764    
   1700000  -44.386074      88.468966      299.79298    
   1710000  -53.908953      89.141159      302.07082    
   1720000  -35.512583      86.23755       292.23142    
   1730000  -41.302421      98.477932      333.71016    
   1740000  -44.619652      85.392949      289.36934    
   1750000  -45.206085      93.629704      317.28106    
   1760000  -57.140609      90.849566      307.86007    
   1770000  -51.224147      80.487834      272.74748    
   1780000  -46.712981      94.053742      318.71799    
   1790000  -46.905839      87.470872      296.41075    
   1800000  -36.853581      97.111707      329.08046    
   1810000  -17.549374      88.806282      300.93603    
   1820000  -23.965037      87.621995      296.92286    
   1830000  -40.872575      91.308588      309.41555    
   1840000  -32.569374      88.221447      298.95421    
   1850000  -28.947549      89.917064      304.70012    
   1860000  -29.64438       92.236965      312.56152    
   1870000  -14.358469      83.112914      281.64303    
   1880000  -28.408099      90.959568      308.23283    
   1890000  -24.676655      85.896371      291.07528    
   1900000  -10.722774      83.516695      283.01132    
   1910000  -17.825812      98.852364      334.97899    
   1920000  -19.943191      97.24761       329.54099    
   1930000  -20.806146      80.027512      271.18759    
   1940000  -28.029327      83.73776       283.76044    
   1950000  -36.416731      87.310772      295.86823    
   1960000  -28.598817      82.463116      279.44108    
   1970000  -41.698847      94.41276       319.93459    
   1980000  -31.283843      79.748827      270.24322    
   1990000  -41.287975      96.218138      326.05244    
   2000000  -30.169515      85.535955      289.85394    
   2010000  -28.836972      88.90981       301.28685    
   2020000  -14.767125      92.278098      312.7009     
   2030000  -11.367184      94.205338      319.2317     
   2040000  -4.4137109      88.825306      301.0005     
   2050000  -17.679647      97.064771      328.92141    
   2060000  -37.792275      106.28759      360.1746     
   2070000  -39.796807      94.985115      321.87412    
   2080000  -26.212017      85.703957      290.42325    
   2090000  -28.89904       90.695677      307.33859    
   2100000  -34.110956      99.972451      338.7746     
   2110000  -31.588068      95.984444      325.26053    
   2120000  -32.097673      90.193325      305.63628    
   2130000  -35.376438      89.324024      302.69049    
   2140000  -37.191231      84.775866      287.27824    
   2150000  -46.607284      98.638968      334.25586    
   2160000  -34.632789      84.290175      285.63239    
   2170000  -28.017797      89.030285      301.69511    
   2180000  -41.793765      89.730359      304.06743    
   2190000  -34.194354      91.204117      309.06153    
   2200000  -28.070591      86.918061      294.53746    
   2210000  -26.818731      85.908121      291.11509    
   2220000  -22.891145      89.43053       303.05141    
   2230000  -39.133735      96.739276      327.81841    
   2240000  -0.98067513     91.319046      309.45099    
   2250000  -7.3258107      92.635689      313.91266    
   2260000  -11.870842      87.693632      297.16562    
   2270000  -11.215551      83.36378       282.49314    
   2280000  -7.7966483      88.177662      298.80584    
   2290000  -0.13397095     80.59134       273.09823    
   2300000   2.4879974      95.058094      322.12142    
   2310000   7.150489       97.894318      331.73248    
   2320000   11.676756      88.561769      300.10746    
   2330000   16.355833      80.629876      273.22881    
   2340000   11.622325      90.56775       306.90508    
   2350000   14.211184      85.486621      289.68677    
   2360000  -1.9409927      85.856528      290.94026    
   2370000  -5.6456405      102.66283      347.89145    
   2380000   8.0445818      79.052707      267.88429    
   2390000   0.36722349     83.663143      283.50758    
   2400000  -19.165995      93.021256      315.21923    
   2410000  -16.984122      72.808293      246.72398    
   2420000  -26.683855      85.497642      289.72411    
   2430000  -16.483743      91.146132      308.86504    
   2440000   4.5702565      79.686851      270.0332     
   2450000  -4.2957162      100.40646      340.24533    
   2460000  -19.018225      90.504602      306.69109    
   2470000  -4.0257043      85.638481      290.20137    
   2480000  -18.107258      86.973792      294.72631    
   2490000  -11.811518      87.006641      294.83763    
   2500000  -10.869705      92.066629      311.9843     
   2510000   5.4008551      79.30112       268.72609    
   2520000  -4.3237357      93.776568      317.77874    
   2530000  -12.487816      93.952321      318.37431    
   2540000   0.47438686     93.257211      316.0188     
   2550000   2.6126281      100.62011      340.96931    
   2560000   0.90514099     94.614029      320.61662    
   2570000  -1.3315168      95.460617      323.48544    
   2580000   21.913278      86.674587      293.7124     
   2590000  -7.4354922      100.25033      339.71625    
   2600000  -6.607843       88.363788      299.43656    
   2610000  -2.460594       92.138586      312.22814    
   2620000   9.7294974      77.630264      263.06409    
   2630000  -0.48624989     84.389749      285.96982    
   2640000  -11.291659      100.82965      341.67937    
   2650000  -3.972579       89.961006      304.84902    
   2660000  -18.130972      94.407714      319.91749    
   2670000  -25.014228      96.092389      325.62632    
   2680000  -12.741914      87.015403      294.86732    
   2690000   1.361605       70.211544      237.92442    
   2700000  -12.445561      85.090141      288.34322    
   2710000  -5.902039       86.064257      291.64419    
   2720000  -17.481128      90.05663       305.17306    
   2730000  -20.40242       88.310501      299.25599    
   2740000  -10.743465      79.605762      269.75842    
   2750000  -25.267916      95.359488      323.14275    
   2760000  -9.0634057      88.395951      299.54555    
   2770000  -6.3647833      88.000892      298.20682    
   2780000  -16.639772      97.570457      330.63501    
   2790000  -3.8680759      89.040589      301.73002    
   2800000  -10.078651      85.280523      288.98837    
   2810000  -25.378111      86.803518      294.14931    
   2820000  -21.188765      79.859488      270.61822    
   2830000  -39.285618      89.332616      302.71961    
   2840000  -31.391942      109.37496      370.6367     
   2850000  -26.800625      72.922682      247.1116     
   2860000  -35.472039      88.941614      301.39463    
   2870000  -10.032768      87.248754      295.65807    
   2880000  -1.552872       88.188867      298.84381    
   2890000  -0.5072607      85.140824      288.51497    
   2900000  -2.8082328      95.985531      325.26421    
   2910000  -0.57033347     90.161578      305.5287     
   2920000  -5.4055754      90.283946      305.94336    
   2930000   2.8542604      90.839617      307.82635    
   2940000   1.0282386      82.698326      280.23813    
   2950000  -5.2497792      93.254298      316.00894    
   2960000  -3.6279403      97.367493      329.94723    
   2970000  -4.3918036      84.760011      287.22452    
   2980000   19.156519      80.450298      272.62028    
   2990000  -12.353861      99.032282      335.58867    
   3000000  -3.8397887      105.81285      358.56584    
   3010000  -20.220236      94.523714      320.31058    
   3020000  -27.685557      92.962262      315.01932    
   3030000  -37.258837      85.310882      289.09124    
   3040000  -35.85215       80.845201      273.95848    
   3050000  -33.402827      82.526881      279.65715    
   3060000  -39.909552      80.474264      272.7015     
   3070000  -50.030728      99.90463       338.54478    
   3080000  -14.4405        83.093433      281.57702    
   3090000  -19.065032      93.461445      316.71089    
   3100000  -15.294183      74.076269      251.02074    
   3110000  -23.792744      100.79834      341.57328    
   3120000  -15.198511      106.26282      360.09065    
   3130000  -6.937765       100.62325      340.97994    
   3140000  -4.1923746      87.898836      297.86099    
   3150000  -23.221055      83.608215      283.32145    
   3160000  -20.783517      84.503988      286.35694    
   3170000  -36.869037      83.515111      283.00595    
   3180000  -27.758279      79.329324      268.82166    
   3190000  -18.459783      88.726041      300.66412    
   3200000  -11.584918      82.159346      278.4117     
   3210000  -16.559332      92.16179       312.30677    
   3220000  -14.315521      90.089751      305.2853     
   3230000  -21.216484      95.223909      322.68332    
   3240000  -22.342111      90.174096      305.57112    
   3250000  -11.699696      92.407882      313.1407     
   3260000  -33.86451       94.369605      319.78835    
   3270000  -20.715786      83.426885      282.70698    
   3280000  -26.557099      99.537951      337.30222    
   3290000  -20.845338      79.881811      270.69386    
   3300000  -13.883378      89.973512      304.8914     
   3310000  -18.707541      92.311233      312.81319    
   3320000  -19.912434      86.927245      294.56858    
   3330000  -28.082458      101.64218      344.43279    
   3340000  -15.053614      85.878534      291.01483    
   3350000  -19.339967      97.411556      330.09655    
   3360000  -4.1697649      84.681276      286.95771    
   3370000  -18.450088      94.027798      318.63008    
   3380000  -25.056824      96.18702       325.94699    
   3390000  -11.291193      89.403307      302.95916    
   3400000  -17.535766      89.398957      302.94442    
   3410000  -8.6608354      83.235585      282.05873    
   3420000  -26.455528      81.784092      277.14008    
   3430000  -16.437968      88.474673      299.81232    
   3440000  -2.3670896      87.218785      295.55652    
   3450000   10.526518      89.930017      304.74401    
   3460000  -8.9162491      86.53625       293.24362    
   3470000  -14.473267      90.509791      306.70868    
   3480000  -14.764447      82.709694      280.27665    
   3490000  -17.473545      91.63851       310.53355    
   3500000  -20.433959      91.643157      310.54929    
   3510000  -17.372356      88.114945      298.59331    
   3520000  -12.678915      83.550623      283.12629    
   3530000  -8.4707242      90.272881      305.90587    
   3540000  -19.511262      82.188748      278.51133    
   3550000  -2.6710899      79.314183      268.77035    
   3560000  -20.140121      85.440412      289.53018    
   3570000  -20.569613      103.79299      351.72117    
   3580000  -9.9142654      79.65642       269.93008    
   3590000  -17.491906      84.538162      286.47274    
   3600000  -18.685423      101.834        345.08279    
   3610000   15.147475      86.382007      292.72094    
   3620000  -12.823919      101.62762      344.38345    
   3630000  -11.574131      84.138254      285.11758    
   3640000  -7.6798298      94.13004       318.97654    
   3650000  -2.5468669      90.390134      306.3032     
   3660000  -7.4090393      91.01027       308.40464    
   3670000   0.8423164      99.124137      335.89994    
   3680000  -1.7818081      96.128033      325.7471     
   3690000  -7.4446993      84.316307      285.72095    
   3700000  -21.848105      97.394788      330.03973    
   3710000  -24.99362       82.914838      280.97182    
   3720000  -33.097151      107.5528       364.46198    
   3730000  -16.215907      85.663716      290.28688    
   3740000  -27.089352      93.592143      317.15378    
   3750000  -27.546402      84.982679      287.97907    
   3760000  -40.875481      88.438965      299.69131    
   3770000  -38.869875      85.938276      291.21728    
   3780000  -50.23774       86.917917      294.53697    
   3790000  -40.960181      90.348745      306.16295    
   3800000  -40.740493      91.487195      310.02079    
   3810000  -36.741059      80.281116      272.04698    
   3820000  -27.626791      93.965555      318.41915    
   3830000  -48.379211      86.781498      294.07469    
   3840000  -46.459227      78.530235      266.1138     
   3850000  -46.432281      85.791755      290.72077    
   3860000  -46.915452      107.85676      365.492      
   3870000  -31.398636      77.643268      263.10816    
   3880000  -36.981042      97.486814      330.35158    
   3890000  -21.249972      96.308281      326.3579     
   3900000  -29.451604      74.236842      251.56487    
   3910000  -36.869298      90.490741      306.64413    
   3920000  -46.967028      99.180957      336.09248    
   3930000  -37.43151       92.624726      313.87552    
   3940000  -19.035382      88.420095      299.62737    
   3950000  -41.111876      86.422874      292.85943    
   3960000  -52.86756       88.707053      300.59978    
   3970000  -39.350542      80.800816      273.80807    
   3980000  -27.843823      105.38801      357.12618    
   3990000  -24.823821      95.079587      322.19425    
   4000000  -23.244355      93.681531      317.45669    
Loop time of 274.938 on 1 procs for 4000000 steps with 100 atoms

Performance: 12570.113 ns/day, 0.002 hours/ns, 14548.742 timesteps/s, 1.455 Matom-step/s
99.2% CPU use with 1 MPI tasks x 1 OpenMP threads

MPI task timing breakdown:
Section |  min time  |  avg time  |  max time  |%varavg| %total
---------------------------------------------------------------
Pair    | 242.28     | 242.28     | 242.28     |   0.0 | 88.12
Bond    | 19.582     | 19.582     | 19.582     |   0.0 |  7.12
Neigh   | 1.6496     | 1.6496     | 1.6496     |   0.0 |  0.60
Comm    | 1.6403     | 1.6403     | 1.6403     |   0.0 |  0.60
Output  | 0.12225    | 0.12225    | 0.12225    |   0.0 |  0.04
Modify  | 8.9416     | 8.9416     | 8.9416     |   0.0 |  3.25
Other   |            | 0.7213     |            |       |  0.26

Nlocal:            100 ave         100 max         100 min
Histogram: 1 0 0 0 0 0 0 0 0 0
Nghost:              0 ave           0 max           0 min
Histogram: 1 0 0 0 0 0 0 0 0 0
Neighs:           1126 ave        1126 max        1126 min
Histogram: 1 0 0 0 0 0 0 0 0 0

Total # of neighbors = 1126
Ave neighs/atom = 11.26
Ave special neighs/atom = 5.88
Neighbor list builds = 8920
Dangerous builds = 0

# ===============================
# MAIN SA LOOP — 10 cycles
# ===============================
variable c loop ${ncycle}
variable c loop 10
label cyc

  # Heat 298 → 500
  variable seedH equal 44000+${c}
  variable seedH equal 44000+1
  unfix fxl
  fix fxl all langevin ${T_eq} ${T_high} 100000.0 ${seedH}
  fix fxl all langevin 298 ${T_high} 100000.0 ${seedH}
  fix fxl all langevin 298 500 100000.0 ${seedH}
  fix fxl all langevin 298 500 100000.0 44001
  run ${n_heat}
  run 8000000
Generated 0 of 6 mixed pair_coeff terms from geometric mixing rule
Per MPI rank memory allocation (min/avg/max) = 9.632 | 9.632 | 9.632 Mbytes
   Step         PotEng         KinEng          Temp     
   4000000  -23.244355      93.681531      317.45669    
   4010000  -31.984817      95.791755      324.60756    
   4020000  -28.907109      76.887255      260.54627    
   4030000  -18.390158      93.096523      315.47429    
   4040000  -34.193552      88.439975      299.69474    
   4050000  -23.658634      86.794621      294.11916    
   4060000  -16.2961        99.333987      336.61105    
   4070000  -20.90995       92.329241      312.87421    
   4080000  -21.068377      85.498644      289.72751    
   4090000  -14.690804      88.779288      300.84456    
   4100000  -18.964419      81.351103      275.67282    
   4110000  -25.129993      98.143871      332.57813    
   4120000  -22.29551       82.488071      279.52564    
   4130000  -33.988612      76.927204      260.68164    
   4140000  -33.687805      86.328825      292.54073    
   4150000  -27.191844      85.33026       289.15691    
   4160000  -26.371269      84.089616      284.95276    
   4170000  -16.193856      93.515001      316.89237    
   4180000  -9.4383278      90.996429      308.35774    
   4190000  -9.0690539      89.351179      302.78251    
   4200000  -12.434713      81.388629      275.79998    
   4210000  -29.4697        93.752465      317.69706    
   4220000  -18.908241      103.00375      349.04671    
   4230000  -8.4944231      97.480714      330.3309     
   4240000  -2.0391973      77.628342      263.05758    
   4250000  -7.0934598      86.624636      293.54313    
   4260000  -18.538894      95.575669      323.87532    
   4270000  -8.9049382      90.259641      305.861      
   4280000  -21.54385       77.983922      264.26252    
   4290000  -24.894481      80.568324      273.02023    
   4300000  -22.994818      96.999353      328.69973    
   4310000  -21.012456      99.23766       336.28463    
   4320000  -13.022155      89.292409      302.58336    
   4330000  -14.606109      84.983403      287.98152    
   4340000   2.6508892      81.46532       276.05986    
   4350000  -1.3610242      95.232521      322.7125     
   4360000  -8.4567888      100.56468      340.78147    
   4370000  -14.974165      93.690411      317.48678    
   4380000   10.67894       84.700861      287.02408    
   4390000  -1.5933469      99.286439      336.44993    
   4400000  -5.947367       104.17972      353.0317     
   4410000  -20.64231       84.865033      287.5804     
   4420000  -13.125982      88.222785      298.95875    
   4430000  -16.704127      83.859907      284.17435    
   4440000  -13.128883      99.356743      336.68816    
   4450000  -19.688387      93.803292      317.8693     
   4460000  -12.890017      98.379611      333.37698    
   4470000  -5.5761814      88.15339       298.72359    
   4480000  -15.832456      86.995777      294.80081    
   4490000  -11.519939      76.66455       259.79159    
   4500000  -19.953585      71.197953      241.26705    
   4510000  -24.864712      87.823084      297.60429    
   4520000  -15.054962      90.543299      306.82223    
   4530000  -1.1943271      102.5703       347.57786    
   4540000  -3.5329156      98.274968      333.02237    
   4550000   6.7139963      84.134676      285.10546    
   4560000   4.7685584      102.18708      346.27928    
   4570000   14.835839      95.532136      323.7278     
   4580000   20.183408      95.192737      322.57768    
   4590000   15.016647      97.943198      331.89811    
   4600000   7.5438143      89.662167      303.83635    
   4610000   21.812472      102.10313      345.99479    
   4620000   9.1599114      107.96496      365.85866    
   4630000   0.035562548    89.807833      304.32997    
   4640000  -2.0609772      98.466779      333.67236    
   4650000   9.272275       96.535567      327.1281     
   4660000   17.185106      84.489399      286.3075     
   4670000   2.8544961      113.18897      383.56115    
   4680000  -1.3652798      83.683034      283.57499    
   4690000   16.859303      79.406756      269.08405    
   4700000   3.2904691      101.9632       345.52061    
   4710000   9.0021881      100.05405      339.05111    
   4720000   17.894004      90.240473      305.79605    
   4730000   8.772623       112.05224      379.70913    
   4740000   26.167576      90.559372      306.87669    
   4750000   7.745068       106.11689      359.59614    
   4760000   4.6462221      103.43779      350.51754    
   4770000   11.306129      96.40024       326.66952    
   4780000  -0.045156285    112.83407      382.35852    
   4790000   9.8014131      96.973579      328.61238    
   4800000   13.498178      100.91987      341.9851     
   4810000   28.893251      100.37619      340.14275    
   4820000   34.155159      107.14911      363.094      
   4830000   20.801877      101.42583      343.69964    
   4840000   2.2475814      96.40755       326.69429    
   4850000   18.537466      95.053332      322.10528    
   4860000   23.684748      101.264        343.15125    
   4870000   6.9475357      96.095691      325.63751    
   4880000   8.2983964      123.57513      418.75653    
   4890000   6.6958141      93.892046      318.17006    
   4900000   8.8735444      89.529092      303.38541    
   4910000   27.68998       94.894688      321.56769    
   4920000   39.032898      95.036688      322.04888    
   4930000   34.898157      88.301688      299.22613    
   4940000   31.056603      95.190894      322.57144    
   4950000   32.63701       93.881366      318.13387    
   4960000   19.851392      107.9309       365.74322    
   4970000   28.604613      99.56289       337.38673    
   4980000   19.839488      81.454429      276.02296    
   4990000   9.3022993      88.915087      301.30474    
   5000000   16.299459      89.542385      303.43045    
   5010000   7.9649878      96.441787      326.81031    
   5020000   15.58939       85.892897      291.06351    
   5030000   10.964381      93.360157      316.36766    
   5040000  -8.4453149      103.58605      351.01994    
   5050000  -9.7507057      97.586595      330.6897     
   5060000  -18.098836      98.682601      334.40371    
   5070000  -12.610666      92.104368      312.11219    
   5080000  -13.647261      94.773682      321.15764    
   5090000  -24.598608      95.109099      322.29426    
   5100000  -26.227252      103.28727      350.00746    
   5110000  -6.3650079      91.760405      310.94661    
   5120000  -24.627182      100.56748      340.79097    
   5130000  -0.69443932     103.28501      349.99979    
   5140000   6.4060454      87.28172       295.76978    
   5150000  -5.3617682      93.059166      315.34769    
   5160000  -0.91041187     99.175263      336.07319    
   5170000   9.0910429      95.813477      324.68117    
   5180000  -6.5261021      112.04966      379.70039    
   5190000   7.5947782      106.35591      360.40611    
   5200000   7.7100773      98.550889      333.95738    
   5210000   2.6980029      102.00327      345.6564     
   5220000  -17.775334      95.923863      325.05523    
   5230000  -5.2537807      80.074848      271.348      
   5240000  -15.198886      101.92422      345.38852    
   5250000   18.928773      91.486587      310.01873    
   5260000   20.97954       103.6559       351.25663    
   5270000   13.275524      90.142115      305.46274    
   5280000   11.098212      93.97338       318.44567    
   5290000   18.324112      95.909611      325.00694    
   5300000   26.292742      105.38904      357.12969    
   5310000   18.493568      104.35634      353.6302     
   5320000   19.927181      105.53132      357.61183    
   5330000   16.260324      112.71263      381.94699    
   5340000   26.58148       105.72595      358.27138    
   5350000   22.964126      117.97743      399.7877     
   5360000   39.008946      100.16059      339.41215    
   5370000   29.443731      108.31921      367.0591     
   5380000   18.96743       108.2919       366.96656    
   5390000   21.399104      96.027934      325.4079     
   5400000   29.659661      99.662244      337.72341    
   5410000   13.292841      100.01842      338.93039    
   5420000   8.9684239      99.344106      336.64534    
   5430000   17.190734      90.199993      305.65887    
   5440000   11.235825      91.870505      311.3197     
   5450000   15.539969      100.53538      340.68219    
   5460000   7.897327       103.77316      351.65398    
   5470000   16.54825       105.00657      355.83362    
   5480000   17.458592      116.76365      395.67459    
   5490000   23.126545      93.032719      315.25807    
   5500000   19.666321      105.05173      355.98666    
   5510000   47.581631      94.831045      321.35202    
   5520000   38.634111      96.591854      327.31884    
   5530000   45.212542      105.27141      356.73106    
   5540000   22.661771      91.489522      310.02867    
   5550000   35.334884      93.53733       316.96804    
   5560000   23.977263      99.968127      338.75995    
   5570000   24.20999       111.68763      378.4736     
   5580000   53.805013      106.94688      362.4087     
   5590000   51.230115      103.76633      351.63085    
   5600000   34.453442      97.271831      329.62306    
   5610000   45.779951      92.573113      313.70062    
   5620000   36.333282      88.417933      299.62004    
   5630000   36.712176      96.04451       325.46407    
   5640000   27.227328      105.82286      358.59977    
   5650000   17.258726      114.90067      389.36154    
   5660000   34.5323        103.27102      349.95241    
   5670000   29.188944      100.90341      341.92932    
   5680000   12.673082      103.48986      350.69397    
   5690000   16.802682      105.38779      357.12545    
   5700000   23.10095       100.74786      341.40223    
   5710000   42.379049      107.24759      363.42772    
   5720000   19.493129      102.35682      346.85446    
   5730000   24.99781       102.31255      346.70443    
   5740000  -2.7579628      99.027171      335.57135    
   5750000  -16.111377      100.22896      339.64382    
   5760000  -5.5337699      94.773359      321.15654    
   5770000   4.18296        108.37775      367.25748    
   5780000   16.406959      102.47512      347.25534    
   5790000   5.9145643      106.98481      362.53725    
   5800000   20.706985      97.685739      331.02567    
   5810000   20.256829      117.70361      398.85983    
   5820000   44.020591      90.609072      307.04511    
   5830000   22.835025      112.41636      380.94302    
   5840000   23.21904       108.45862      367.5315     
   5850000   35.950976      98.20087       332.77128    
   5860000   30.606293      91.41497       309.77604    
   5870000   39.473798      108.15617      366.50659    
   5880000   48.73093       105.67606      358.10232    
   5890000   49.879162      96.816594      328.08041    
   5900000   62.440858      101.71742      344.68773    
   5910000   63.176185      114.61467      388.39237    
   5920000   64.307005      86.638317      293.58949    
   5930000   55.983626      105.9966       359.1885     
   5940000   71.719399      95.23382       322.7169     
   5950000   56.269772      101.90146      345.31139    
   5960000   67.104336      119.51906      405.01178    
   5970000   73.981964      113.84473      385.78332    
   5980000   76.73537       103.00639      349.05565    
   5990000   66.720938      116.39337      394.41985    
   6000000   71.216419      101.63481      344.40779    
   6010000   61.037235      103.3409       350.1892     
   6020000   69.533071      126.10912      427.34341    
   6030000   48.986127      98.323173      333.18573    
   6040000   62.86224       104.17026      352.99962    
   6050000   77.64172       105.62565      357.9315     
   6060000   75.576966      124.00915      420.22727    
   6070000   75.888056      111.70414      378.52952    
   6080000   61.023667      124.99626      423.57226    
   6090000   63.631719      109.77287      371.98509    
   6100000   61.718439      106.10103      359.54238    
   6110000   56.123128      101.33666      343.39746    
   6120000   59.770807      93.226807      315.91577    
   6130000   55.774694      103.04849      349.19832    
   6140000   68.568192      119.56302      405.16077    
   6150000   73.600406      108.9363       369.15021    
   6160000   52.486361      101.93212      345.4153     
   6170000   46.664301      105.39493      357.14963    
   6180000   75.130479      112.26239      380.42128    
   6190000   67.088898      101.76599      344.85233    
   6200000   66.320172      102.94203      348.83756    
   6210000   61.215319      112.10325      379.88201    
   6220000   57.575811      107.73286      365.07213    
   6230000   58.130751      108.99521      369.34983    
   6240000   62.009105      105.4978       357.49823    
   6250000   59.24242       108.20699      366.67883    
   6260000   59.50033       111.62088      378.24741    
   6270000   54.22921       106.99243      362.56306    
   6280000   44.305744      119.21312      403.97506    
   6290000   60.535884      103.74284      351.55125    
   6300000   65.656246      96.695226      327.66914    
   6310000   54.5618        111.94496      379.34559    
   6320000   56.882231      101.04799      342.41926    
   6330000   54.648334      104.89699      355.4623     
   6340000   53.09054       107.30358      363.61746    
   6350000   47.580968      106.02273      359.27705    
   6360000   58.914759      99.776958      338.11214    
   6370000   54.127399      113.692        385.26576    
   6380000   58.167515      108.87459      368.94111    
   6390000   47.659008      102.03398      345.76048    
   6400000   46.605122      107.82474      365.38348    
   6410000   57.58729       111.08629      376.43586    
   6420000   58.953121      102.2803       346.59515    
   6430000   66.537423      113.57536      384.87051    
   6440000   57.553488      117.83457      399.3036     
   6450000   47.543263      98.990505      335.4471     
   6460000   52.791308      89.047835      301.75458    
   6470000   52.395659      91.286617      309.34109    
   6480000   40.787154      94.60052       320.57085    
   6490000   64.179236      97.181238      329.31608    
   6500000   58.746154      108.97201      369.27122    
   6510000   65.224528      98.62648       334.21354    
   6520000   64.675445      102.63528      347.79808    
   6530000   55.979066      99.449368      337.00204    
   6540000   65.053509      96.49769       326.99975    
   6550000   62.817563      94.371389      319.7944     
   6560000   68.484988      91.821243      311.15277    
   6570000   78.276762      111.78814      378.81418    
   6580000   51.587932      108.80002      368.68839    
   6590000   48.858585      92.298175      312.76894    
   6600000   37.010503      108.56182      367.88121    
   6610000   39.310752      107.74381      365.10924    
   6620000   49.640912      109.21288      370.08745    
   6630000   71.851331      105.81319      358.567      
   6640000   52.759655      100.98005      342.18904    
   6650000   54.853151      102.13638      346.10745    
   6660000   73.734098      109.11383      369.75181    
   6670000   68.161661      106.43733      360.682      
   6680000   64.98319       93.05888       315.34672    
   6690000   73.255024      101.3447       343.42471    
   6700000   73.091952      99.976791      338.78931    
   6710000   73.809825      93.63742       317.30721    
   6720000   74.170575      104.85991      355.33663    
   6730000   70.801679      130.39164      441.85549    
   6740000   69.678371      110.41986      374.17751    
   6750000   65.402126      102.12829      346.08006    
   6760000   66.492459      112.58339      381.50904    
   6770000   79.462522      103.8503       351.91539    
   6780000   78.607547      106.57625      361.15277    
   6790000   72.586794      116.4796       394.71206    
   6800000   79.895102      109.64149      371.53987    
   6810000   77.282534      106.95745      362.44453    
   6820000   69.880376      102.82398      348.43751    
   6830000   77.851485      103.81177      351.78481    
   6840000   55.328528      120.80338      409.36393    
   6850000   75.809617      101.84774      345.12935    
   6860000   71.784249      101.97009      345.54396    
   6870000   86.383703      112.92963      382.68234    
   6880000   82.327687      120.17401      407.2312     
   6890000   81.971001      125.82563      426.38274    
   6900000   68.888768      117.4711       398.07192    
   6910000   77.277609      121.25937      410.90916    
   6920000   75.274726      133.98202      454.02212    
   6930000   86.752948      113.03384      383.03546    
   6940000   75.887883      105.66801      358.07502    
   6950000   64.497198      104.92622      355.56134    
   6960000   65.106647      117.98183      399.80263    
   6970000   78.357825      118.93897      403.04605    
   6980000   66.41136       125.80533      426.31396    
   6990000   72.719486      118.09508      400.18638    
   7000000   69.042197      111.68276      378.45707    
   7010000   62.963359      133.41511      452.10105    
   7020000   68.80818       109.10986      369.73837    
   7030000   74.797066      121.23245      410.81792    
   7040000   77.085451      106.8818       362.18819    
   7050000   73.237151      116.69984      395.45835    
   7060000   71.21017       114.24874      387.15238    
   7070000   59.715849      100.20598      339.56595    
   7080000   43.924672      125.34767      424.76308    
   7090000   54.137323      98.13215       332.53841    
   7100000   53.527208      104.62537      354.54186    
   7110000   44.717634      110.91719      375.86281    
   7120000   48.362203      108.99389      369.34538    
   7130000   59.992074      94.311076      319.59002    
   7140000   46.558304      113.19149      383.56968    
   7150000   48.250246      112.02261      379.60872    
   7160000   41.734623      122.30965      414.46822    
   7170000   39.603885      112.20331      380.22108    
   7180000   39.321694      111.79317      378.83122    
   7190000   47.568961      117.17086      397.0545     
   7200000   56.649956      108.25565      366.8437     
   7210000   44.416284      119.7629       405.83811    
   7220000   48.499968      121.26058      410.91325    
   7230000   47.360696      101.63604      344.41196    
   7240000   44.465401      105.78105      358.45808    
   7250000   53.899416      110.81718      375.52391    
   7260000   61.005975      111.3059       377.18004    
   7270000   64.53991       112.45385      381.07006    
   7280000   56.453312      107.70753      364.9863     
   7290000   59.515164      98.913121      335.18487    
   7300000   70.894931      105.51388      357.55274    
   7310000   62.249723      119.53805      405.07616    
   7320000   78.530265      132.1193       447.70996    
   7330000   69.53666       119.78342      405.90762    
   7340000   70.052738      102.78669      348.31115    
   7350000   61.857624      107.90998      365.67234    
   7360000   67.894564      115.27039      390.61443    
   7370000   88.682338      106.65826      361.43067    
   7380000   65.759732      146.4704       496.34125    
   7390000   82.450454      115.66308      391.94512    
   7400000   71.511227      118.76378      402.45238    
   7410000   79.989685      100.57696      340.8231     
   7420000   80.388886      124.6352       422.34874    
   7430000   77.313983      122.27157      414.33916    
   7440000   73.47605       120.16364      407.19608    
   7450000   66.40264       109.23197      370.15213    
   7460000   85.78201       91.256889      309.24036    
   7470000   71.068796      100.83527      341.69842    
   7480000   64.131959      123.25958      417.68721    
   7490000   75.794357      128.94585      436.95616    
   7500000   69.157505      119.15696      403.78475    
   7510000   69.698105      131.7717       446.53206    
   7520000   79.033525      93.518406      316.90391    
   7530000   73.696162      127.00479      430.37855    
   7540000   75.980948      117.93498      399.64385    
   7550000   75.469784      110.05283      372.93379    
   7560000   76.637006      114.85504      389.20693    
   7570000   80.975036      97.470219      330.29534    
   7580000   63.8846        121.88511      413.02958    
   7590000   71.241624      116.00966      393.11958    
   7600000   84.420302      106.45696      360.74854    
   7610000   80.811547      100.77904      341.50786    
   7620000   74.164689      117.87009      399.42397    
   7630000   63.175252      107.94101      365.77748    
   7640000   61.430007      134.33611      455.22203    
   7650000   68.099672      115.97667      393.00778    
   7660000   67.045429      104.38743      353.73556    
   7670000   69.658478      120.60114      408.67862    
   7680000   58.791803      108.10431      366.33085    
   7690000   54.810299      122.16239      413.9692     
   7700000   49.182826      108.19869      366.65069    
   7710000   42.533116      114.30708      387.35007    
   7720000   70.654689      129.25331      437.99805    
   7730000   50.169723      118.07736      400.12633    
   7740000   94.81511       108.54161      367.81275    
   7750000   62.330868      135.76581      460.06682    
   7760000   59.715668      101.00915      342.28763    
   7770000   65.15068       96.41812       326.73011    
   7780000   47.784061      134.29209      455.07286    
   7790000   73.059707      112.4782       381.15259    
   7800000   85.269756      129.45753      438.69008    
   7810000   79.631008      128.59662      435.77274    
   7820000   72.943348      118.74839      402.40023    
   7830000   77.805716      129.45042      438.66601    
   7840000   76.907916      118.08833      400.16351    
   7850000   72.071394      98.114         332.47691    
   7860000   68.707816      126.7704       429.58428    
   7870000   79.345819      103.86374      351.96094    
   7880000   75.653292      116.66907      395.35409    
   7890000   69.775588      105.29868      356.82349    
   7900000   77.09225       133.91688      453.8014     
   7910000   77.290352      127.68677      432.68955    
   7920000   73.754459      116.22788      393.85903    
   7930000   76.45509       117.29757      397.48387    
   7940000   70.127306      118.15145      400.37742    
   7950000   59.173908      115.09282      390.0127     
   7960000   80.401502      116.71425      395.5072     
   7970000   66.258262      118.01791      399.92489    
   7980000   77.344615      133.70556      453.0853     
   7990000   90.47462       127.38575      431.66948    
   8000000   79.011673      137.21866      464.99007    
   8010000   78.690032      143.65932      486.81541    
   8020000   78.863236      125.96947      426.87017    
   8030000   84.96805       109.49767      371.05253    
   8040000   58.357019      146.61417      496.82843    
   8050000   67.581311      137.96058      467.50421    
   8060000   65.611211      122.17569      414.01426    
   8070000   77.279351      130.74434      443.05067    
   8080000   78.528848      141.87459      480.76754    
   8090000   65.314913      132.66253      449.55081    
   8100000   64.833092      131.36839      445.16539    
   8110000   66.230464      130.54824      442.38614    
   8120000   90.533632      114.07305      386.55703    
   8130000   73.410087      136.57329      462.80312    
   8140000   72.790325      123.15505      417.33301    
   8150000   79.318729      133.96559      453.96646    
   8160000   77.00017       122.4831       415.05597    
   8170000   74.222291      117.96988      399.76212    
   8180000   77.894406      121.60347      412.0752     
   8190000   80.552596      98.743167      334.60895    
   8200000   85.153108      123.73474      419.29739    
   8210000   90.142475      119.73006      405.72681    
   8220000   86.616026      119.86765      406.19306    
   8230000   74.923654      138.71886      470.07375    
   8240000   80.56747       127.1248       430.78521    
   8250000   74.191914      130.95238      443.75565    
   8260000   93.847239      116.44495      394.59463    
   8270000   86.265678      123.58479      418.78924    
   8280000   75.213376      112.22186      380.28394    
   8290000   69.15294       111.09541      376.46676    
   8300000   90.672751      127.13684      430.82602    
   8310000   84.342553      130.9836       443.86145    
   8320000   82.597107      123.66177      419.05013    
   8330000   70.128241      119.88471      406.25087    
   8340000   75.121287      125.72479      426.04104    
   8350000   91.977124      111.26403      377.03814    
   8360000   94.324136      122.22132      414.16889    
   8370000   91.166509      135.42764      458.92087    
   8380000   86.528323      141.33003      478.9222     
   8390000   77.452889      129.62502      439.25767    
   8400000   82.225185      108.64823      368.17403    
   8410000   76.780478      119.26123      404.1381     
   8420000   73.441274      108.0115       366.01636    
   8430000   78.155294      126.01132      427.01197    
   8440000   70.8733        139.8024       473.74555    
   8450000   92.072823      138.18889      468.27786    
   8460000   86.029212      126.80888      429.71467    
   8470000   92.163118      113.53798      384.74382    
   8480000   90.57704       104.25437      353.28466    
   8490000   72.613357      105.99019      359.16679    
   8500000   66.149627      124.06564      420.41869    
   8510000   70.640659      113.34986      384.10636    
   8520000   68.727277      127.1103       430.73606    
   8530000   78.344004      146.58491      496.72928    
   8540000   82.850112      127.30425      431.3933     
   8550000   81.319074      130.18436      441.15308    
   8560000   71.280914      133.60244      452.73585    
   8570000   75.123472      143.35105      485.77077    
   8580000   70.770556      128.25368      434.61063    
   8590000   98.468549      122.38114      414.71046    
   8600000   85.572532      117.33637      397.61537    
   8610000   73.822736      133.6259       452.81536    
   8620000   74.327973      133.29993      451.71075    
   8630000   64.208013      120.67652      408.93407    
   8640000   62.218881      133.52382      452.46944    
   8650000   82.41039       115.43547      391.17383    
   8660000   88.935158      112.25189      380.38568    
   8670000   68.539888      127.79497      433.05619    
   8680000   63.106702      111.33097      377.26497    
   8690000   74.227009      114.78974      388.98565    
   8700000   46.473491      142.16117      481.73866    
   8710000   46.290722      122.18288      414.03863    
   8720000   55.165211      119.58613      405.23907    
   8730000   80.201785      136.51565      462.6078     
   8740000   85.399314      113.36059      384.14272    
   8750000   70.869212      122.30763      414.46137    
   8760000   80.406344      124.33929      421.346      
   8770000   81.186127      126.0043       426.98818    
   8780000   84.887354      133.15628      451.22396    
   8790000   88.706288      114.19814      386.98092    
   8800000   106.9013       132.71742      449.73682    
   8810000   99.743254      138.73372      470.12413    
   8820000   84.717586      125.87757      426.55876    
   8830000   81.196217      119.31074      404.30586    
   8840000   82.351378      122.0057       413.43824    
   8850000   71.431446      139.32355      472.12285    
   8860000   101.99113      114.53187      388.11181    
   8870000   88.777084      123.3004       417.82555    
   8880000   81.204402      109.63022      371.50168    
   8890000   88.344112      127.09745      430.69252    
   8900000   79.531416      129.31066      438.1924     
   8910000   72.708583      124.90157      423.25141    
   8920000   69.084215      127.15758      430.89629    
   8930000   91.274802      120.52706      408.42759    
   8940000   84.22142       115.36918      390.94918    
   8950000   73.850317      120.61457      408.72411    
   8960000   70.309117      153.94987      521.68679    
   8970000   79.623406      120.59397      408.65431    
   8980000   79.544235      118.48584      401.51054    
   8990000   80.144892      118.66941      402.13262    
   9000000   80.107981      121.2637       410.92383    
   9010000   70.443088      136.42886      462.31368    
   9020000   75.120872      121.87878      413.00812    
   9030000   69.195248      141.28213      478.75986    
   9040000   82.100073      134.99126      457.44211    
   9050000   68.90801       122.13355      413.87147    
   9060000   77.531196      129.94028      440.32599    
   9070000   72.238033      119.94505      406.45534    
   9080000   76.735607      105.0903       356.11735    
   9090000   68.56316       125.73111      426.06245    
   9100000   66.145429      131.05843      444.11501    
   9110000   78.017951      130.4722       442.12848    
   9120000   79.96933       123.69694      419.16929    
   9130000   78.60302       125.19258      424.23755    
   9140000   72.272285      133.15236      451.21068    
   9150000   77.349435      116.95509      396.32332    
   9160000   91.196376      129.85463      440.03572    
   9170000   80.289616      139.35418      472.22666    
   9180000   70.260456      128.66859      436.01661    
   9190000   81.121901      124.03794      420.32483    
   9200000   73.912038      119.98063      406.57591    
   9210000   75.314948      145.16757      491.92639    
   9220000   76.349516      127.78843      433.03406    
   9230000   71.055781      120.38845      407.95789    
   9240000   88.49408       123.0728       417.05428    
   9250000   84.781115      132.77203      449.92187    
   9260000   101.09642      109.952        372.5921     
   9270000   104.30179      129.46525      438.71623    
   9280000   93.391088      113.73749      385.4199     
   9290000   87.44923       128.44769      435.26806    
   9300000   74.479845      119.38778      404.56692    
   9310000   72.577134      120.2905       407.62597    
   9320000   74.842117      142.74997      483.7339     
   9330000   76.568108      121.17732      410.6311     
   9340000   79.287167      122.01535      413.47092    
   9350000   79.021833      134.56877      456.01045    
   9360000   92.294313      133.87706      453.66645    
   9370000   74.063223      152.55354      516.95508    
   9380000   80.059951      122.31175      414.47531    
   9390000   83.800965      121.80923      412.77246    
   9400000   80.555231      144.99152      491.32981    
   9410000   101.64853      129.38693      438.45085    
   9420000   79.567291      132.01704      447.36345    
   9430000   83.17922       135.85372      460.36471    
   9440000   81.495247      144.71303      490.38608    
   9450000   68.771114      134.19448      454.7421     
   9460000   80.183516      135.44765      458.98869    
   9470000   83.899136      136.89064      463.87852    
   9480000   83.630717      146.77105      497.36006    
   9490000   100.55763      130.76438      443.11858    
   9500000   86.638022      121.78872      412.70295    
   9510000   74.806359      139.99951      474.41349    
   9520000   77.031346      121.85924      412.94191    
   9530000   73.252366      127.26774      431.26959    
   9540000   87.464714      126.42649      428.41886    
   9550000   68.387067      144.36599      489.21008    
   9560000   74.730459      122.86119      416.3372     
   9570000   78.241576      128.31436      434.81627    
   9580000   80.252572      141.73171      480.28334    
   9590000   78.775096      133.31219      451.7523     
   9600000   86.396022      146.93846      497.92734    
   9610000   79.026934      136.20896      461.56852    
   9620000   88.812575      137.32584      465.35326    
   9630000   77.563029      121.15637      410.56013    
   9640000   69.574579      108.12246      366.39238    
   9650000   74.204095      107.83847      365.43001    
   9660000   64.64861       136.61059      462.92951    
   9670000   84.363916      124.71473      422.61826    
   9680000   99.401486      108.11919      366.38129    
   9690000   69.751736      115.97344      392.99682    
   9700000   82.297023      122.37891      414.70292    
   9710000   73.269591      142.092        481.50427    
   9720000   90.789664      141.49585      479.48409    
   9730000   106.56902      146.19973      495.42404    
   9740000   85.060866      121.15558      410.55743    
   9750000   82.444372      120.773        409.26098    
   9760000   76.113544      132.60058      449.34088    
   9770000   81.929152      122.21583      414.15028    
   9780000   84.178759      118.74851      402.40063    
   9790000   93.554012      133.76781      453.29624    
   9800000   87.836098      127.71285      432.77793    
   9810000   82.528532      124.36826      421.4442     
   9820000   100.40768      138.88753      470.64534    
   9830000   80.787059      132.04332      447.4525     
   9840000   87.45191       133.04507      450.8471     
   9850000   86.704146      134.52378      455.85799    
   9860000   88.388335      112.99266      382.89592    
   9870000   92.439568      124.06061      420.40167    
   9880000   95.95152       131.81894      446.69214    
   9890000   83.487546      139.68124      473.33495    
   9900000   78.615692      144.01654      488.02592    
   9910000   83.685086      129.98178      440.46661    
   9920000   97.678589      147.75874      500.70703    
   9930000   85.965392      138.91872      470.75102    
   9940000   96.512642      143.53142      486.382      
   9950000   85.830313      147.87871      501.11357    
   9960000   77.437922      144.1933       488.62489    
   9970000   87.80682       130.99748      443.90849    
   9980000   75.027136      141.55597      479.68782    
   9990000   84.732332      134.23996      454.89622    
  10000000   80.417515      136.32917      461.97589    
  10010000   87.319906      138.56666      469.55802    
  10020000   91.145759      138.60728      469.69567    
  10030000   82.335843      123.07716      417.06905    
  10040000   83.774698      123.9499       420.02648    
  10050000   79.910267      115.7043       392.08479    
  10060000   84.819727      123.06935      417.04258    
  10070000   88.52935       130.602        442.56834    
  10080000   97.135898      120.2912       407.62833    
  10090000   79.573723      123.56746      418.73052    
  10100000   82.495101      141.28572      478.77203    
  10110000   84.248364      134.32357      455.17953    
  10120000   102.97323      133.5834       452.67134    
  10130000   81.339053      134.50561      455.7964     
  10140000   79.057523      132.596        449.32537    
  10150000   66.938188      130.54273      442.36747    
  10160000   71.628617      117.59279      398.48428    
  10170000   70.167641      168.79618      571.99616    
  10180000   96.032274      130.27968      441.4761     
  10190000   93.548273      144.49526      489.64815    
  10200000   94.577519      138.30747      468.67971    
  10210000   104.16949      139.80169      473.74312    
  10220000   79.005321      132.46093      448.86763    
  10230000   78.157704      145.41761      492.77369    
  10240000   87.836032      124.34399      421.36194    
  10250000   105.90268      111.53512      377.95678    
  10260000   84.220633      144.40207      489.33236    
  10270000   92.375882      128.30813      434.79515    
  10280000   92.832738      126.74088      429.48424    
  10290000   78.785861      133.95834      453.9419     
  10300000   85.473706      133.61404      452.77518    
  10310000   80.526931      134.73875      456.58646    
  10320000   67.960318      128.92066      436.87082    
  10330000   74.582511      138.6667       469.897      
  10340000   99.558901      128.6846       436.07089    
  10350000   103.0224       129.925        440.27418    
  10360000   82.083193      128.76388      436.33952    
  10370000   83.262747      138.28202      468.59345    
  10380000   84.632666      135.37218      458.73295    
  10390000   90.190331      154.83408      524.68308    
  10400000   76.563955      117.45519      398.01802    
  10410000   91.580311      118.34555      401.03515    
  10420000   93.760075      132.441        448.8001     
  10430000   78.757429      138.0849       467.92547    
  10440000   89.139464      123.41605      418.21745    
  10450000   85.687485      139.07056      471.26555    
  10460000   78.54158       144.80645      490.70267    
  10470000   86.030912      121.37038      411.28533    
  10480000   89.417995      133.43008      452.15178    
  10490000   100.01181      134.7127       456.49816    
  10500000   83.730234      144.32146      489.05918    
  10510000   97.019708      139.54099      472.8597     
  10520000   94.346748      136.3107       461.91327    
  10530000   85.72991       116.01502      393.13774    
  10540000   103.69778      142.90854      484.27124    
  10550000   84.922196      131.25907      444.79492    
  10560000   82.064454      149.16423      505.46977    
  10570000   95.173088      148.73009      503.99862    
  10580000   74.600605      117.82868      399.28363    
  10590000   90.845684      122.84927      416.2968     
  10600000   78.651009      129.77978      439.78211    
  10610000   89.545748      164.53861      557.56861    
  10620000   96.810047      126.7815       429.62188    
  10630000   74.836689      154.00789      521.8834     
  10640000   86.933629      135.86397      460.39946    
  10650000   98.787373      141.21103      478.51893    
  10660000   98.143313      109.16745      369.93352    
  10670000   88.411953      131.82317      446.70647    
  10680000   73.683845      141.19712      478.47178    
  10690000   91.166092      113.13603      383.38175    
  10700000   83.140271      151.00118      511.6946     
  10710000   84.570379      119.85676      406.15614    
  10720000   97.862069      142.49827      482.88096    
  10730000   99.874821      143.72888      487.05113    
  10740000   83.321011      140.83598      477.24802    
  10750000   89.426787      124.86651      423.13258    
  10760000   88.41099       125.3189       424.66559    
  10770000   93.588495      146.19814      495.41864    
  10780000   103.34474      122.84154      416.27063    
  10790000   105.3105       151.54677      513.54346    
  10800000   82.644065      142.82106      483.97481    
  10810000   102.51446      125.60489      425.63474    
  10820000   106.57872      130.90075      443.58069    
  10830000   97.636579      140.59086      476.41736    
  10840000   93.67808       118.05483      400.04999    
  10850000   84.598801      113.2745       383.85099    
  10860000   85.72002       139.90886      474.10629    
  10870000   81.64529       133.07639      450.95325    
  10880000   93.788581      129.97259      440.43546    
  10890000   71.548569      147.48841      499.79096    
  10900000   66.314917      152.62028      517.18123    
  10910000   80.188302      145.53645      493.17639    
  10920000   88.147385      146.99874      498.13164    
  10930000   80.419605      142.98268      484.52249    
  10940000   89.983927      145.44113      492.8534     
  10950000   95.721903      148.29967      502.54006    
  10960000   89.235948      136.15132      461.37319    
  10970000   78.631103      138.78018      470.28157    
  10980000   90.421088      135.07776      457.73525    
  10990000   78.297418      149.26688      505.81764    
  11000000   79.066991      160.94654      545.39625    
  11010000   96.758585      138.00067      467.64004    
  11020000   91.078422      145.78035      494.00291    
  11030000   100.91941      158.69661      537.77195    
  11040000   89.381824      162.77473      551.59139    
  11050000   92.957064      136.61681      462.95059    
  11060000   85.94806       126.51454      428.71723    
  11070000   98.570474      131.88408      446.91288    
  11080000   73.386107      156.68934      530.96996    
  11090000   85.720915      143.0117       484.62082    
  11100000   76.646066      139.77704      473.65961    
  11110000   79.929064      148.56562      503.44128    
  11120000   90.740655      129.39913      438.49218    
  11130000   84.254465      125.57858      425.54558    
  11140000   101.81376      142.65257      483.40385    
  11150000   94.461517      150.09035      508.60812    
  11160000   97.458048      160.0996       542.52623    
  11170000   82.180655      142.85065      484.07507    
  11180000   96.055222      132.43028      448.76377    
  11190000   98.48931       133.83385      453.52002    
  11200000   94.907218      142.17896      481.79893    
  11210000   90.762715      119.74517      405.77801    
  11220000   89.097053      128.58875      435.74609    
  11230000   75.042289      133.77334      453.31498    
  11240000   82.017845      136.88648      463.8644     
  11250000   92.117734      141.40678      479.18225    
  11260000   77.688103      145.73941      493.86415    
  11270000   86.395186      133.04833      450.85815    
  11280000   85.279658      142.17614      481.78939    
  11290000   90.151573      141.60296      479.84707    
  11300000   99.221471      145.55638      493.24392    
  11310000   89.688774      142.67047      483.46451    
  11320000   73.527153      142.43523      482.66737    
  11330000   92.047456      133.65336      452.90841    
  11340000   102.35342      142.46715      482.7755     
  11350000   87.145976      140.89833      477.4593     
  11360000   86.12678       153.67528      520.75629    
  11370000   104.83647      142.65245      483.40344    
  11380000   92.347919      142.002        481.19928    
  11390000   96.8113        149.40791      506.29552    
  11400000   95.194331      142.63315      483.33804    
  11410000   87.65147       135.08484      457.75923    
  11420000   95.474298      148.82138      504.30798    
  11430000   93.347898      127.25689      431.23281    
  11440000   84.918854      145.92666      494.4987     
  11450000   102.24586      144.17421      488.56021    
  11460000   105.80125      133.70649      453.08844    
  11470000   95.381414      149.19544      505.57554    
  11480000   87.59807       161.056        545.76717    
  11490000   91.814665      153.58962      520.46599    
  11500000   104.08801      131.69507      446.2724     
  11510000   99.544663      135.33809      458.61741    
  11520000   94.058218      138.88583      470.63956    
  11530000   108.43847      144.44969      489.49372    
  11540000   88.350794      131.23649      444.7184     
  11550000   108.56625      138.83551      470.46904    
  11560000   100.00165      154.93262      525.01699    
  11570000   93.761601      156.66747      530.89586    
  11580000   98.126481      137.50158      465.9488     
  11590000   72.2245        148.59018      503.52452    
  11600000   83.189951      133.29365      451.68947    
  11610000   89.32975       137.43264      465.71517    
  11620000   85.896432      144.37466      489.23947    
  11630000   83.533835      147.47532      499.74659    
  11640000   72.944558      149.89113      507.93301    
  11650000   80.915342      139.24042      471.84118    
  11660000   100.74251      153.28259      519.42557    
  11670000   83.994011      143.92223      487.70631    
  11680000   100.17664      141.3263       478.90954    
  11690000   92.628338      174.57182      591.56795    
  11700000   109.37186      140.04184      474.55691    
  11710000   86.914242      137.09378      464.5669     
  11720000   93.413484      159.90236      541.85787    
  11730000   93.017596      147.75297      500.68746    
  11740000   105.12248      158.14949      535.91795    
  11750000   89.263123      143.11513      484.97132    
  11760000   83.485836      134.75966      456.6573     
  11770000   98.117894      139.54641      472.87807    
  11780000   81.212538      153.90327      521.52888    
  11790000   92.924744      166.39462      563.85804    
  11800000   87.737512      155.42958      526.70104    
  11810000   108.53941      144.96179      491.22906    
  11820000   89.059688      141.94483      481.00555    
  11830000   86.425299      148.6894       503.86071    
  11840000   86.646452      168.26552      570.19794    
  11850000   91.34887       148.24625      502.35903    
  11860000   85.180674      149.04658      505.07109    
  11870000   92.452672      154.53507      523.66982    
  11880000   102.08962      145.67396      493.64238    
  11890000   108.74917      166.26131      563.40631    
  11900000   78.840515      140.51974      476.17637    
  11910000   92.32777       155.19963      525.92182    
  11920000   80.796867      147.19011      498.78011    
  11930000   71.809966      149.97831      508.22844    
  11940000   83.943892      153.03694      518.59314    
  11950000   86.444883      151.57764      513.64804    
  11960000   79.161055      158.43408      536.88231    
  11970000   92.589077      125.93038      426.73771    
  11980000   97.902565      150.9878       511.64926    
  11990000   103.59482      148.55464      503.40406    
  12000000   99.648522      145.16192      491.90724    
Loop time of 280.982 on 1 procs for 8000000 steps with 100 atoms

Performance: 24599.443 ns/day, 0.001 hours/ns, 28471.578 timesteps/s, 2.847 Matom-step/s
99.0% CPU use with 1 MPI tasks x 1 OpenMP threads

MPI task timing breakdown:
Section |  min time  |  avg time  |  max time  |%varavg| %total
---------------------------------------------------------------
Pair    | 215.24     | 215.24     | 215.24     |   0.0 | 76.60
Bond    | 38.601     | 38.601     | 38.601     |   0.0 | 13.74
Neigh   | 3.8292     | 3.8292     | 3.8292     |   0.0 |  1.36
Comm    | 3.4599     | 3.4599     | 3.4599     |   0.0 |  1.23
Output  | 0.45082    | 0.45082    | 0.45082    |   0.0 |  0.16
Modify  | 18.042     | 18.042     | 18.042     |   0.0 |  6.42
Other   |            | 1.354      |            |       |  0.48

Nlocal:            100 ave         100 max         100 min
Histogram: 1 0 0 0 0 0 0 0 0 0
Nghost:              0 ave           0 max           0 min
Histogram: 1 0 0 0 0 0 0 0 0 0
Neighs:            528 ave         528 max         528 min
Histogram: 1 0 0 0 0 0 0 0 0 0

Total # of neighbors = 528
Ave neighs/atom = 5.28
Ave special neighs/atom = 5.88
Neighbor list builds = 23735
Dangerous builds = 0

  # Hold at 500
  variable seedHH equal 45000+${c}
  variable seedHH equal 45000+1
  unfix fxl
  fix fxl all langevin ${T_high} ${T_high} 100000.0 ${seedHH}
  fix fxl all langevin 500 ${T_high} 100000.0 ${seedHH}
  fix fxl all langevin 500 500 100000.0 ${seedHH}
  fix fxl all langevin 500 500 100000.0 45001
  run ${n_holdH}
  run 8000000
Generated 0 of 6 mixed pair_coeff terms from geometric mixing rule
Per MPI rank memory allocation (min/avg/max) = 9.633 | 9.633 | 9.633 Mbytes
   Step         PotEng         KinEng          Temp     
  12000000   99.648522      145.16192      491.90724    
  12010000   103.34086      136.58249      462.83429    
  12020000   93.766297      156.13389      529.08773    
  12030000   100.2878       132.46427      448.87895    
  12040000   105.58821      170.97708      579.38653    
  12050000   105.42849      179.34042      607.72721    
  12060000   100.88933      147.5919       500.14164    
  12070000   109.05438      186.6708       632.56752    
  12080000   104.00591      183.42909      621.5824     
  12090000   98.364695      151.5509       513.55743    
  12100000   88.097094      147.89711      501.1759     
  12110000   106.09706      163.85801      555.2623     
  12120000   105.78315      142.58545      483.17642    
  12130000   96.047027      136.11886      461.2632     
  12140000   102.74979      134.36256      455.31167    
  12150000   86.668327      158.66729      537.6726     
  12160000   96.760738      130.20986      441.2395     
  12170000   82.547747      155.44138      526.74102    
  12180000   89.332564      148.38204      502.81918    
  12190000   102.57273      143.79536      487.27639    
  12200000   119.05489      126.85692      429.87744    
  12210000   90.308109      146.24719      495.58487    
  12220000   98.946201      136.0879       461.1583     
  12230000   86.259539      142.4328       482.65912    
  12240000   99.393436      156.79348      531.32286    
  12250000   97.225838      142.803        483.9136     
  12260000   96.158182      165.87845      562.1089     
  12270000   90.153398      134.98987      457.43742    
  12280000   132.79718      144.05002      488.13936    
  12290000   90.522898      168.56907      571.22657    
  12300000   98.009184      157.38533      533.32845    
  12310000   97.471062      131.12187      444.33       
  12320000   95.737087      158.70381      537.79635    
  12330000   100.03721      164.03296      555.85515    
  12340000   89.105264      168.06519      569.51907    
  12350000   94.788147      148.63565      503.67858    
  12360000   91.384375      134.45969      455.6408     
  12370000   95.551719      144.36868      489.21918    
  12380000   74.406203      158.55082      537.27791    
  12390000   82.223437      131.14481      444.40774    
  12400000   93.272248      148.83377      504.34994    
  12410000   109.21277      141.96059      481.05894    
  12420000   82.289822      146.03268      494.85797    
  12430000   87.93467       159.67692      541.09392    
  12440000   93.173578      145.62585      493.47936    
  12450000   99.855072      151.19459      512.35002    
  12460000   87.287959      149.26277      505.80371    
  12470000   100.46677      148.91809      504.63569    
  12480000   98.025925      135.18048      458.08334    
  12490000   115.3356       160.3584       543.40322    
  12500000   90.718335      159.49703      540.48433    
  12510000   107.20909      144.68052      490.27593    
  12520000   94.083233      188.53529      638.88569    
  12530000   123.92591      169.97433      575.98854    
  12540000   112.32712      169.74798      575.22152    
  12550000   78.669696      149.31954      505.99609    
  12560000   101.38401      169.36711      573.93088    
  12570000   96.912869      180.95615      613.20241    
  12580000   99.064147      156.19953      529.31016    
  12590000   90.927462      136.60553      462.91238    
  12600000   86.767692      128.14204      434.23232    
  12610000   88.060227      158.68938      537.74745    
[...]
 404760000   6.4330731      78.362546      265.54556    
 404770000  -22.088959      86.523853      293.20161    
 404780000  -24.582014      91.388687      309.68698    
 404790000  -6.2577963      89.788725      304.26522    
 404800000  -11.205096      93.920871      318.26774    
 404810000  -16.843716      95.266952      322.82917    
 404820000  -8.6394054      83.743572      283.78013    
 404830000  -28.528186      95.553516      323.80025    
 404840000  -28.783886      95.366978      323.16813    
 404850000  -17.681742      91.834671      311.19827    
 404860000  -29.615119      85.176931      288.63733    
 404870000  -29.070363      84.662587      286.89438    
 404880000  -25.599593      88.279421      299.15067    
 404890000  -28.795021      94.813549      321.29273    
 404900000  -26.581873      100.78348      341.5229     
 404910000  -25.930666      96.394477      326.65       
 404920000  -23.25879       89.300414      302.61049    
 404930000  -22.960019      88.47928       299.82793    
 404940000  -16.243959      88.227754      298.97559    
 404950000  -26.552713      98.125375      332.51545    
 404960000  -27.761118      86.540292      293.25732    
 404970000  -38.077036      90.943425      308.17813    
 404980000  -35.345133      94.611445      320.60787    
 404990000  -23.979334      87.3536        296.01336    
 405000000  -25.057249      88.596135      300.22391    
 405010000  -17.235893      93.137124      315.61187    
 405020000  -14.590811      93.168986      315.71984    
 405030000  -19.005703      93.611592      317.21969    
 405040000   7.9426008      79.245167      268.53648    
 405050000  -8.0348188      101.03176      342.36427    
 405060000  -16.896716      97.789797      331.37829    
 405070000  -16.563465      88.010864      298.24062    
 405080000  -21.055348      92.679791      314.06211    
 405090000   4.1021387      89.332464      302.7191     
 405100000  -10.705401      94.84662       321.4048     
 405110000  -2.9128671      84.416977      286.06208    
 405120000  -7.5455201      99.839199      338.32305    
 405130000  -4.0977127      87.128992      295.25223    
 405140000   3.7704438      89.060199      301.79648    
 405150000  -15.417122      93.732513      317.62945    
 405160000   0.74944426     92.925406      314.89442    
 405170000  -9.2819811      90.934625      308.1483     
 405180000  -21.850512      82.427433      279.32016    
 405190000  -29.707104      90.224072      305.74047    
 405200000  -15.548343      94.207871      319.24029    
 405210000  -11.698543      101.46949      343.8476     
 405220000  -14.408638      84.249339      285.49401    
 405230000  -15.299912      89.786558      304.25787    
 405240000  -14.189166      91.641242      310.5428     
 405250000  -3.4856926      81.609776      276.54938    
 405260000  -9.9939978      81.855867      277.3833     
 405270000  -8.4296681      88.834074      301.03021    
 405280000  -9.4575979      85.411339      289.43166    
 405290000  -10.435473      82.71233       280.28558    
 405300000  -10.881728      91.759781      310.9445     
 405310000  -24.825585      88.374947      299.47438    
 405320000   4.6984497      92.854189      314.65309    
 405330000   0.96071998     82.949785      281.09024    
 405340000  -4.6216871      99.256961      336.35004    
 405350000  -12.793387      94.877646      321.50994    
 405360000   4.4022755      73.514637      249.11755    
 405370000  -1.095196       78.228526      265.09141    
 405380000  -13.76399       92.245497      312.59043    
 405390000  -21.158228      86.12494       291.84983    
 405400000  -22.426775      89.772492      304.21021    
 405410000  -12.037395      80.844274      273.95534    
 405420000  -10.080592      79.744324      270.22796    
 405430000  -10.24208       85.514983      289.78287    
 405440000   10.576048      88.364983      299.44061    
 405450000  -11.936605      82.448049      279.39002    
 405460000  -34.768341      93.124091      315.5677     
 405470000  -22.912414      89.867602      304.5325     
 405480000  -3.884228       77.313499      261.99067    
 405490000  -0.076457994    90.311806      306.03777    
 405500000  -8.4762723      88.317926      299.28115    
 405510000  -12.595057      92.942991      314.95402    
 405520000  -24.665706      93.775575      317.77538    
 405530000  -11.090663      89.413613      302.99408    
 405540000  -9.684808       90.271583      305.90147    
 405550000  -23.913259      85.388004      289.35258    
 405560000  -23.244276      82.368857      279.12166    
 405570000  -29.647849      97.497048      330.38625    
 405580000  -5.7014091      76.512077      259.27491    
 405590000  -17.279777      89.25192       302.44616    
 405600000  -30.877598      94.649939      320.73831    
 405610000  -12.966413      85.267433      288.94401    
 405620000  -14.450073      86.243081      292.25017    
 405630000  -7.9717721      78.955939      267.55638    
 405640000  -22.749264      92.961364      315.01627    
 405650000  -29.035267      80.547931      272.95113    
 405660000  -25.759095      82.232109      278.65827    
 405670000  -19.400704      100.83814      341.70816    
 405680000  -3.3906191      75.737223      256.64918    
 405690000  -5.7544423      80.81139       273.84391    
 405700000  -15.387321      96.743596      327.83305    
 405710000  -13.900842      73.986854      250.71774    
 405720000  -34.869713      87.571425      296.7515     
 405730000  -39.124973      83.210282      281.97298    
 405740000  -21.081186      79.093992      268.02419    
 405750000  -25.023568      87.260249      295.69702    
 405760000  -3.5029771      77.966956      264.20503    
 405770000  -2.851287       80.814374      273.85402    
 405780000  -5.1556493      88.721998      300.65042    
 405790000  -3.4572028      88.322064      299.29517    
 405800000  -4.297632       86.341423      292.58342    
 405810000  -6.6102064      82.871833      280.82609    
 405820000   10.799966      75.99276       257.51511    
 405830000  -21.512104      86.407973      292.80893    
 405840000  -13.352694      80.00339       271.10585    
 405850000  -25.763758      89.485579      303.23795    
 405860000  -28.425135      88.263219      299.09577    
 405870000  -23.013041      89.982545      304.92201    
 405880000  -20.683209      87.953752      298.04708    
 405890000  -14.208473      89.859322      304.50445    
 405900000  -24.136739      97.832571      331.52324    
 405910000  -20.129895      95.985233      325.2632     
 405920000  -19.58986       101.932        345.41489    
 405930000  -19.132917      83.927786      284.40437    
 405940000  -10.069829      83.821381      284.0438     
 405950000  -7.7244311      88.217152      298.93966    
 405960000  -25.354491      84.612841      286.72581    
 405970000  -14.443938      88.755858      300.76516    
 405980000  -2.2507829      91.374683      309.63952    
 405990000  -16.284077      76.593631      259.55127    
 406000000  -20.479577      84.827123      287.45194    
 406010000  -22.057066      86.290911      292.41225    
 406020000  -8.4699573      100.25741      339.74023    
 406030000   1.6740645      99.381013      336.77041    
 406040000   13.0943        78.985269      267.65577    
 406050000  -15.793407      104.0555       352.61076    
 406060000  -0.13214034     91.354199      309.57011    
 406070000  -21.23264       82.674315      280.15676    
 406080000  -15.420339      102.03485      345.7634     
 406090000  -18.569034      94.646931      320.72812    
 406100000   1.1447841      90.06933       305.2161     
 406110000   1.1301178      93.220558      315.8946     
 406120000   1.6023002      86.158072      291.9621     
 406130000   13.356406      94.709082      320.93873    
 406140000   13.315206      91.812629      311.12358    
 406150000   5.8104853      91.529284      310.16341    
 406160000  -8.5921217      88.381186      299.49552    
 406170000  -14.110148      80.600834      273.1304     
 406180000  -27.319257      85.365921      289.27775    
 406190000  -13.475754      85.132479      288.48669    
 406200000  -12.218169      84.129441      285.08772    
 406210000  -27.367983      86.357158      292.63674    
 406220000  -35.2847        83.248667      282.10306    
 406230000  -21.303723      92.222496      312.51249    
 406240000  -14.667499      84.233186      285.43928    
 406250000  -4.5761449      93.291117      316.1337     
 406260000  -5.056266       85.173025      288.62409    
 406270000   9.5101915      82.967897      281.15162    
 406280000  -14.58317       110.42321      374.18886    
 406290000  -2.0540399      98.592385      334.098      
 406300000  -17.587191      98.108145      332.45707    
 406310000  -10.203592      93.84333       318.00497    
 406320000  -26.48819       98.177547      332.69225    
 406330000  -17.094916      81.677366      276.77842    
 406340000  -14.743943      95.450466      323.45104    
 406350000  -2.1594066      89.338252      302.73871    
 406360000  -49.451602      98.65342       334.30483    
 406370000  -23.10663       87.663531      297.06362    
 406380000  -37.564794      100.70005      341.2402     
 406390000  -23.554848      89.967641      304.87151    
 406400000  -19.092943      82.718541      280.30663    
 406410000  -21.612856      85.682383      290.35014    
 406420000  -18.937975      78.360994      265.5403     
 406430000  -9.4868984      86.549463      293.28839    
 406440000  -21.575853      84.993491      288.01571    
 406450000   4.4339166      87.363158      296.04575    
 406460000   2.978319       93.03834       315.27712    
 406470000  -14.220076      89.175911      302.18859    
 406480000  -14.713152      77.522191      262.69786    
 406490000  -30.092488      94.554377      320.41449    
 406500000  -19.811056      100.08302      339.14928    
 406510000  -23.902825      90.857172      307.88584    
 406520000  -17.787506      86.417002      292.83953    
 406530000  -18.210553      83.514498      283.00387    
 406540000  -15.435449      81.313657      275.54593    
 406550000  -12.204218      80.019024      271.15883    
 406560000  -20.605358      94.117828      318.93516    
 406570000  -13.526639      94.0646        318.75479    
 406580000  -11.69903       95.537579      323.74624    
 406590000  -23.001612      93.432353      316.6123     
 406600000  -11.526133      94.91078       321.62222    
 406610000   1.8395153      88.822755      300.99185    
 406620000   2.1656342      94.84358       321.3945     
 406630000   0.38931358     99.238748      336.28832    
 406640000  -19.802689      91.139238      308.84167    
 406650000  -16.607661      80.175237      271.68819    
 406660000  -8.7492681      83.163105      281.81311    
 406670000   1.9292819      98.012462      332.13283    
 406680000   15.377826      71.361968      241.82284    
 406690000   0.49654542     89.903874      304.65542    
 406700000  -17.639083      94.162679      319.08715    
 406710000  -14.668342      97.488695      330.35795    
 406720000  -0.42853144     84.517565      286.40295    
 406730000  -10.619143      81.31381       275.54645    
 406740000  -28.839455      90.591216      306.9846     
 406750000  -31.174123      88.20135       298.88611    
 406760000  -48.210564      83.5544        283.13909    
 406770000  -23.657677      77.421151      262.35547    
 406780000  -27.44102       80.087135      271.38964    
 406790000  -23.020533      88.302249      299.22803    
 406800000  -43.7872        93.868229      318.08935    
 406810000  -21.128154      76.01189       257.57994    
 406820000  -30.584435      85.793662      290.72723    
 406830000  -31.227431      89.536465      303.41039    
 406840000  -28.525236      78.160665      264.86145    
 406850000  -38.077215      82.915192      280.97302    
 406860000  -31.311305      70.824901      240.0029     
 406870000  -39.605586      80.263692      271.98793    
 406880000  -32.303402      90.827918      307.78671    
 406890000  -20.164274      87.438505      296.30108    
 406900000  -22.640996      94.631643      320.67631    
 406910000  -21.40575       81.336287      275.62261    
 406920000  -25.068999      88.810814      300.95139    
 406930000  -19.477872      79.945396      270.90933    
 406940000  -2.9906774      79.746691      270.23598    
 406950000   7.5825267      94.073272      318.78417    
 406960000   11.671028      91.734379      310.85841    
 406970000  -1.7076352      94.169246      319.1094     
 406980000  -0.27151143     88.13273       298.65358    
 406990000   5.0444343      91.403741      309.73799    
 407000000  -7.8276529      94.970483      321.82453    
 407010000  -14.790219      89.281916      302.5478     
 407020000  -0.93862523     84.546384      286.5006     
 407030000   2.7910833      79.522738      269.47708    
 407040000  -12.020457      90.614663      307.06406    
 407050000  -0.91612508     84.610103      286.71653    
 407060000  -22.304523      96.738805      327.81681    
 407070000  -16.968721      98.748189      334.62597    
 407080000  -16.275367      90.188263      305.61912    
 407090000  -15.791621      92.219446      312.50215    
 407100000  -38.855281      89.110254      301.9661     
 407110000  -5.0775094      85.898838      291.08364    
 407120000  -2.7047245      100.09954      339.20527    
 407130000   2.4762543      90.757848      307.54926    
 407140000  -8.8430624      94.437679      320.01903    
 407150000  -29.763153      103.65427      351.25109    
 407160000  -16.042749      86.365441      292.6648     
 407170000  -14.904649      86.790378      294.10478    
 407180000  -20.480701      101.53208      344.05967    
 407190000   7.3935768      77.854471      263.82386    
 407200000  -2.7303478      96.140447      325.78917    
 407210000  -1.6132524      99.599383      337.51039    
 407220000   4.170589       76.988045      260.88782    
 407230000   4.2461303      78.890222      267.33368    
 407240000  -9.0707738      74.995807      254.13676    
 407250000  -20.627254      90.938625      308.16186    
 407260000  -15.814244      93.962805      318.40984    
 407270000  -6.0914629      86.782408      294.07777    
 407280000  -1.1205703      75.993141      257.5164     
 407290000  -16.070995      97.156572      329.23249    
 407300000   0.89731536     90.941144      308.1704     
 407310000  -8.2796942      84.491724      286.31538    
 407320000   2.1002951      89.902618      304.65116    
 407330000  -16.547104      94.003088      318.54634    
 407340000   3.117115       74.535153      252.57575    
 407350000  -6.5500893      88.53433       300.01448    
 407360000  -24.871645      97.408002      330.08451    
 407370000   0.28437935     85.679598      290.3407     
 407380000  -22.804845      92.80114       314.47333    
 407390000  -10.319492      91.330568      309.49003    
 407400000  -14.545269      98.104242      332.44384    
 407410000  -20.18785       92.420236      313.18256    
 407420000  -28.495938      89.554931      303.47296    
 407430000  -12.854398      81.252884      275.33999    
 407440000  -10.222581      89.649839      303.79458    
 407450000  -2.2538737      100.93461      342.03505    
 407460000   16.128958      83.531689      283.06213    
 407470000  -2.7526132      96.875129      328.27877    
 407480000  -1.2649448      94.937135      321.71153    
 407490000   7.9363166      97.935518      331.87209    
 407500000  -3.3786211      93.740556      317.65671    
 407510000  -12.605147      100.23233      339.65525    
 407520000   6.3095351      89.972181      304.88689    
 407530000   1.0243349      82.263548      278.7648     
 407540000  -2.5390217      98.968839      335.37368    
 407550000  -14.373149      90.643002      307.16009    
 407560000  -10.127942      95.402606      323.28886    
 407570000  -17.174862      87.88871       297.82668    
 407580000  -14.427485      80.491092      272.75852    
 407590000  -6.072092       92.447124      313.27368    
 407600000  -15.556692      117.14407      396.96371    
 407610000  -1.1220616      89.330356      302.71195    
 407620000  -14.066736      95.909624      325.00698    
 407630000  -15.437445      78.520382      266.08042    
 407640000  -26.076957      83.113767      281.64592    
 407650000  -28.084836      90.566243      306.89998    
 407660000  -8.3666908      78.046649      264.47509    
 407670000  -29.786485      92.431495      313.22072    
 407680000  -17.657704      78.789918      266.99379    
 407690000  -32.302785      80.042051      271.23686    
 407700000  -22.282787      78.070357      264.55542    
 407710000  -31.95415       85.740825      290.54818    
 407720000  -8.1119421      82.058291      278.06925    
 407730000  -18.176472      106.92435      362.33237    
 407740000  -23.702501      83.128499      281.69585    
 407750000  -18.253791      83.265106      282.15876    
 407760000  -26.759237      82.541323      279.7061     
 407770000  -20.256446      93.11083       315.52277    
 407780000  -16.420204      89.276471      302.52935    
 407790000  -22.049845      88.430266      299.66184    
 407800000  -20.248785      88.740474      300.71303    
 407810000  -24.14797       99.313341      336.54109    
 407820000  -18.049931      94.380855      319.82648    
 407830000  -5.7804659      94.575816      320.48714    
 407840000  -1.1725594      83.862435      284.18292    
 407850000  -17.674434      100.86439      341.79708    
 407860000  -3.3241445      81.63004       276.61805    
 407870000  -12.01752       103.51172      350.76806    
 407880000  -19.532425      103.99925      352.42013    
 407890000   12.413615      85.257476      288.91027    
 407900000  -9.2866376      105.48345      357.44962    
 407910000  -17.236357      105.97709      359.12238    
 407920000  -6.9818255      82.079236      278.14023    
 407930000  -15.808141      85.54563       289.88673    
 407940000  -10.880588      88.399435      299.55736    
 407950000  -27.31192       91.475839      309.98231    
 407960000  -28.260905      97.69351       331.052      
 407970000  -16.915504      75.498941      255.84172    
 407980000  -23.811958      79.575205      269.65487    
 407990000  -28.303178      87.651689      297.02349    
 408000000  -32.208723      79.802691      270.42575    
Loop time of 291.202 on 1 procs for 4000000 steps with 100 atoms

Performance: 11868.045 ns/day, 0.002 hours/ns, 13736.163 timesteps/s, 1.374 Matom-step/s
99.2% CPU use with 1 MPI tasks x 1 OpenMP threads

MPI task timing breakdown:
Section |  min time  |  avg time  |  max time  |%varavg| %total
---------------------------------------------------------------
Pair    | 256.79     | 256.79     | 256.79     |   0.0 | 88.18
Bond    | 20.139     | 20.139     | 20.139     |   0.0 |  6.92
Neigh   | 1.7445     | 1.7445     | 1.7445     |   0.0 |  0.60
Comm    | 2.1303     | 2.1303     | 2.1303     |   0.0 |  0.73
Output  | 0.12326    | 0.12326    | 0.12326    |   0.0 |  0.04
Modify  | 9.369      | 9.369      | 9.369      |   0.0 |  3.22
Other   |            | 0.9028     |            |       |  0.31

Nlocal:            100 ave         100 max         100 min
Histogram: 1 0 0 0 0 0 0 0 0 0
Nghost:              0 ave           0 max           0 min
Histogram: 1 0 0 0 0 0 0 0 0 0
Neighs:           1151 ave        1151 max        1151 min
Histogram: 1 0 0 0 0 0 0 0 0 0

Total # of neighbors = 1151
Ave neighs/atom = 11.51
Ave special neighs/atom = 5.88
Neighbor list builds = 8945
Dangerous builds = 0

write_data outputs/${tag}_final.data
write_data outputs/config_12_len100_02.dat_final.data
System init for write_data ...
Generated 0 of 6 mixed pair_coeff terms from geometric mixing rule
Total wall time: 4:55:30
