
# ===============================
# FORCE FIELD
# ===============================
bond_style harmonic
bond_coeff 1 7.5 5.9

angle_style harmonic
angle_coeff 1 5.0 150.0

pair_style hybrid/overlay lj/cut 10.0 base/rna 18.0
pair_modify shift yes
pair_coeff * * lj/cut 2.0 8.9089871814

# Base-pair interactions
pair_coeff 1 1 base/rna 0.00000 3.0 13.8 1.5 0.5 1.8326 0.9425 1.8326 1.1345
pair_coeff 1 2 base/rna 0.00000 3.0 13.8 1.5 0.5 1.8326 0.9425 1.8326 1.1345
pair_coeff 1 3 base/rna 0.00000 3.0 13.8 1.5 0.5 1.8326 0.9425 1.8326 1.1345
pair_coeff 1 4 base/rna 3.33333 3.0 13.8 1.5 0.5 1.8326 0.9425 1.8326 1.1345
pair_coeff 2 2 base/rna 0.00000 3.0 13.8 1.5 0.5 1.8326 0.9425 1.8326 1.1345
pair_coeff 2 3 base/rna 5.00000 3.0 13.8 1.5 0.5 1.8326 0.9425 1.8326 1.1345
pair_coeff 2 4 base/rna 0.00000 3.0 13.8 1.5 0.5 1.8326 0.9425 1.8326 1.1345
pair_coeff 3 3 base/rna 0.00000 3.0 13.8 1.5 0.5 1.8326 0.9425 1.8326 1.1345
pair_coeff 3 4 base/rna 3.33333 3.0 13.8 1.5 0.5 1.8326 0.9425 1.8326 1.1345
pair_coeff 4 4 base/rna 0.00000 3.0 13.8 1.5 0.5 1.8326 0.9425 1.8326 1.1345

special_bonds lj 0.0 0.0 1.0
Finding 1-2 1-3 1-4 neighbors ...
  special bond factors lj:    0        0        1       
  special bond factors coul:  0        0        0       
     2 = max # of 1-2 neighbors
     2 = max # of 1-3 neighbors
     4 = max # of 1-4 neighbors
     6 = max # of special neighbors
  special bonds CPU = 0.000 seconds
neighbor 15.0 bin
neigh_modify every 10 delay 0
comm_style tiled
timestep 10

# ===============================
# DUMPS
# ===============================
dump d1 all custom ${dump_stride} outputs/${tag}.lammpstrj id mol type q xu yu zu
dump d1 all custom 50000 outputs/${tag}.lammpstrj id mol type q xu yu zu
dump d1 all custom 50000 outputs/config_17_len100_07.dat.lammpstrj id mol type q xu yu zu
dump_modify d1 sort id

# ===============================
# THERMO
# ===============================
thermo_style custom step pe ke temp
thermo ${thermo_stride}
thermo 10000
thermo_modify flush yes

variable vpe equal pe
variable vke equal ke
variable vT  equal temp

fix fa all ave/time ${thermo_stride} 10 ${stride10} v_vpe v_vke v_vT file outputs/thermo_${tag}_averaged.dat
fix fa all ave/time 10000 10 ${stride10} v_vpe v_vke v_vT file outputs/thermo_${tag}_averaged.dat
fix fa all ave/time 10000 10 100000 v_vpe v_vke v_vT file outputs/thermo_${tag}_averaged.dat
fix fa all ave/time 10000 10 100000 v_vpe v_vke v_vT file outputs/thermo_config_17_len100_07.dat_averaged.dat

# ===============================
# EQUILIBRATION (40 ns)
# ===============================
fix fxnve all nve
variable seed0 equal 43001
fix fxl all langevin ${T_eq} ${T_eq} 100000.0 ${seed0}
fix fxl all langevin 298 ${T_eq} 100000.0 ${seed0}
fix fxl all langevin 298 298 100000.0 ${seed0}
fix fxl all langevin 298 298 100000.0 43001

run ${n_eq}
run 4000000

CITE-CITE-CITE-CITE-CITE-CITE-CITE-CITE-CITE-CITE-CITE-CITE-CITE

Your simulation uses code contributions which should be cited:

- Type Label Framework: https://doi.org/10.1021/acs.jpcb.3c08419

@Article{Gissinger24,
 author = {Jacob R. Gissinger, Ilia Nikiforov, Yaser Afshar, Brendon Waters, Moon-ki Choi, Daniel S. Karls, Alexander Stukowski, Wonpil Im, Hendrik Heinz, Axel Kohlmeyer, and Ellad B. Tadmor},
 title = {Type Label Framework for Bonded Force Fields in LAMMPS},
 journal = {J. Phys. Chem. B},
 year =    2024,
 volume =  128,
 number =  13,
 pages =   {3282–-3297}
}

CITE-CITE-CITE-CITE-CITE-CITE-CITE-CITE-CITE-CITE-CITE-CITE-CITE

Generated 0 of 6 mixed pair_coeff terms from geometric mixing rule
Neighbor list info ...
  update: every = 10 steps, delay = 0 steps, check = yes
  max neighbors/atom: 2000, page size: 100000
  master list distance cutoff = 33
  ghost atom cutoff = 33
  binsize = 16.5, bins = 61 61 61
  2 neighbor lists, perpetual/occasional/extra = 2 0 0
  (1) pair lj/cut, perpetual, trim from (2)
      attributes: half, newton on, cut 25
      pair build: trim
      stencil: none
      bin: none
  (2) pair base/rna, perpetual
      attributes: half, newton on
      pair build: half/bin/newton
      stencil: half/bin/3d
      bin: standard
Per MPI rank memory allocation (min/avg/max) = 8.37 | 8.37 | 8.37 Mbytes
   Step         PotEng         KinEng          Temp     
         0   134.33628      0              0            
     10000   46.353027      77.4878        262.58132    
     20000   44.284892      94.919105      321.65043    
     30000   63.928502      93.90698       318.22066    
     40000   54.972609      99.125326      335.90397    
     50000   38.113499      91.064371      308.58797    
     60000   41.767661      87.562008      296.71959    
     70000   33.324611      85.336447      289.17787    
     80000   34.743147      95.813114      324.67994    
     90000   34.564255      81.314162      275.54764    
    100000   18.536472      86.19981       292.10354    
    110000   26.080991      97.631349      330.84136    
    120000   40.863686      76.589916      259.53868    
    130000   42.768298      79.446888      269.22005    
    140000   10.230511      88.026741      298.29442    
    150000   23.975478      91.454491      309.90996    
    160000   22.51492       97.071257      328.94339    
    170000   13.127893      93.066624      315.37297    
    180000   17.0147        87.160915      295.36041    
    190000   22.141311      92.775787      314.38741    
    200000   19.211395      87.426047      296.25886    
    210000  -9.7450218      99.11064       335.8542     
    220000  -15.261341      98.877902      335.06553    
    230000  -23.152141      87.116871      295.21116    
    240000  -15.997131      80.630163      273.22979    
    250000  -11.418504      95.46644       323.50518    
    260000  -5.1215852      85.540057      289.86784    
    270000  -20.137718      91.613765      310.44969    
    280000  -15.47199       85.384568      289.34094    
    290000  -27.28912       93.506933      316.86503    
    300000  -27.408346      88.253627      299.06326    
    310000  -21.838485      92.867931      314.69966    
    320000  -9.9273707      93.369842      316.40048    
    330000  -18.974248      80.289621      272.0758     
    340000  -34.59881       87.624141      296.93014    
    350000  -37.723122      102.83581      348.47761    
    360000  -18.669184      79.591563      269.7103     
    370000  -32.584494      76.815672      260.3037     
    380000  -48.56583       79.845572      270.57106    
    390000  -28.441677      87.642993      296.99402    
    400000  -19.0005        93.525776      316.92888    
    410000  -14.883977      92.864739      314.68884    
    420000  -32.956393      95.362032      323.15137    
    430000  -22.874992      85.193048      288.69194    
    440000  -14.637586      76.406671      258.91773    
    450000  -25.77726       95.446522      323.43768    
    460000  -21.284863      90.329878      306.09901    
    470000  -14.575293      88.406041      299.57974    
    480000  -15.906554      75.394974      255.48941    
    490000  -30.850977      91.973612      311.6691     
    500000  -16.216108      94.379644      319.82237    
    510000  -18.138831      100.60496      340.91798    
    520000  -10.041643      94.825505      321.33325    
    530000  -5.9114646      94.970181      321.82351    
    540000  -3.4820286      95.354417      323.12556    
    550000  -18.836651      95.307257      322.96575    
    560000  -25.884066      88.956151      301.44389    
    570000  -24.892007      88.797318      300.90566    
    580000  -33.856415      74.499448      252.45476    
    590000  -37.66153       87.554836      296.69528    
    600000  -37.104769      88.571433      300.1402     
    610000  -29.231876      77.156126      261.45739    
    620000  -24.276955      94.84297       321.39243    
    630000  -29.344003      95.568557      323.85122    
    640000  -35.274231      94.09551       318.85953    
    650000  -46.613102      91.785014      311.03       
    660000  -10.709805      65.965942      223.53744    
    670000  -21.301289      86.407019      292.8057     
    680000  -23.138997      91.245499      309.20176    
    690000  -5.214388       87.30362       295.84399    
    700000  -11.071831      83.766462      283.8577     
    710000  -8.4187213      86.756065      293.9885     
    720000  -8.3586578      86.452609      292.96019    
    730000  -17.40907       88.569726      300.13442    
    740000  -20.977232      98.683942      334.40826    
    750000  -21.293202      79.342418      268.86603    
    760000  -27.320493      92.10953       312.12968    
    770000  -12.185504      81.109751      274.85496    
    780000  -22.126573      90.517277      306.73405    
    790000  -19.198606      89.206403      302.29191    
    800000  -21.677359      89.032109      301.70129    
    810000  -21.891343      87.562511      296.72129    
    820000  -12.28113       92.028779      311.85604    
    830000  -16.362346      97.509061      330.42696    
    840000  -10.900378      80.514936      272.83932    
    850000  -32.878059      83.040621      281.39805    
    860000  -37.144621      85.704012      290.42344    
    870000  -29.787135      83.747267      283.79265    
    880000  -33.763775      95.521066      323.69028    
    890000  -41.388082      88.098766      298.53849    
    900000  -47.782926      80.319523      272.17713    
    910000  -57.409757      82.399524      279.22558    
    920000  -42.12486       76.592311      259.5468     
    930000  -33.057371      74.83944       253.60688    
    940000  -32.076819      89.12822       302.02698    
    950000  -36.708716      86.508316      293.14896    
    960000  -44.626344      97.496831      330.38552    
    970000  -37.594222      98.689539      334.42723    
    980000  -37.121033      101.33725      343.39947    
    990000  -33.29682       77.376959      262.20572    
   1000000  -48.966173      88.234069      298.99699    
   1010000  -43.556897      74.755415      253.32215    
   1020000  -43.087458      87.937683      297.99263    
   1030000  -39.513337      84.470309      286.24281    
   1040000  -48.533551      91.772724      310.98836    
   1050000  -60.212138      86.748969      293.96446    
   1060000  -54.950896      91.156053      308.89866    
   1070000  -56.908848      91.479453      309.99455    
   1080000  -54.821975      88.020291      298.27256    
   1090000  -46.990527      82.142026      278.353      
   1100000  -49.777052      93.535629      316.96228    
   1110000  -55.050593      86.566032      293.34454    
   1120000  -54.624327      97.341217      329.85819    
   1130000  -32.447339      93.458409      316.7006     
   1140000  -54.695039      96.167828      325.88195    
   1150000  -48.071544      83.880519      284.2442     
   1160000  -42.444338      82.720661      280.31381    
   1170000  -49.881438      89.611857      303.66587    
   1180000  -55.919102      84.481102      286.27938    
   1190000  -44.616986      94.632124      320.67795    
   1200000  -35.285043      80.448116      272.61289    
   1210000  -25.595127      85.860244      290.95285    
   1220000  -41.687986      90.779239      307.62175    
   1230000  -50.839062      86.031726      291.53395    
   1240000  -44.918106      88.899173      301.25081    
   1250000  -24.004335      98.608005      334.15093    
   1260000  -26.423463      79.340182      268.85845    
   1270000  -43.025541      84.206444      285.34866    
   1280000  -23.854666      88.780814      300.84973    
   1290000  -36.187402      76.7788        260.17875    
   1300000  -37.842641      91.763118      310.9558     
   1310000  -29.353233      90.084449      305.26733    
   1320000  -35.902826      93.644354      317.33071    
   1330000  -56.154055      104.8292       355.23255    
   1340000  -39.872906      83.878498      284.23735    
   1350000  -49.10434       93.101347      315.49063    
   1360000  -46.718804      80.639008      273.25976    
   1370000  -36.569678      90.925623      308.1178     
   1380000  -39.234462      85.543758      289.88038    
   1390000  -46.461324      84.436739      286.12905    
   1400000  -58.306317      100.88434      341.8647     
   1410000  -36.233472      84.01505       284.70008    
   1420000  -37.475474      84.86776       287.58964    
   1430000  -48.512678      86.47604       293.03959    
   1440000  -26.422031      87.600822      296.85111    
   1450000  -34.476478      94.281141      319.48857    
   1460000  -17.910555      96.956678      328.55511    
   1470000  -16.969959      78.148322      264.81962    
   1480000  -41.870275      80.446505      272.60743    
   1490000  -37.157315      86.300746      292.44558    
   1500000  -21.595642      84.749287      287.18818    
   1510000  -17.1123        83.04055       281.39782    
   1520000  -18.689709      75.232338      254.93829    
   1530000  -25.439785      95.381051      323.21582    
   1540000  -10.09387       80.496189      272.77579    
   1550000  -8.9179586      96.812736      328.06734    
   1560000  -3.4420527      94.543185      320.37656    
   1570000  -25.318253      99.779645      338.12124    
   1580000  -14.468664      95.422198      323.35525    
   1590000  -16.59013       102.44397      347.14977    
   1600000  -22.709388      88.142907      298.68807    
   1610000  -33.947665      94.569195      320.4647     
   1620000  -24.147645      86.332601      292.55352    
   1630000  -31.915184      90.170979      305.56055    
   1640000  -33.335885      86.27571       292.36073    
   1650000  -25.123041      88.079634      298.47366    
   1660000  -6.0069997      85.452367      289.57069    
   1670000  -10.46979       92.140156      312.23346    
   1680000  -15.313109      84.579137      286.61159    
   1690000  -16.029473      82.012301      277.91341    
   1700000  -21.38995       84.581502      286.61961    
   1710000  -17.518064      96.277664      326.25415    
   1720000  -13.17489       104.99097      355.78076    
   1730000  -19.750556      95.732449      324.40659    
   1740000  -14.436227      85.124088      288.45826    
   1750000  -16.725275      85.877462      291.0112     
   1760000  -34.441519      99.161054      336.02504    
   1770000  -11.550063      98.265768      332.9912     
   1780000  -37.476913      90.621228      307.0863     
   1790000  -33.84583       82.029815      277.97276    
   1800000  -36.331194      94.326945      319.64379    
   1810000  -14.27445       89.710932      304.0016     
   1820000  -9.5169408      94.030176      318.63814    
   1830000  -9.2321177      90.176289      305.57855    
   1840000  -2.0844887      83.957448      284.50489    
   1850000  -25.43845       99.211001      336.19429    
   1860000  -11.763386      93.635438      317.30049    
   1870000  -6.5429721      67.221868      227.79337    
   1880000  -29.197398      91.2757        309.3041     
   1890000  -17.461442      82.293231      278.86539    
   1900000  -38.857403      84.869666      287.5961     
   1910000  -39.157325      77.119559      261.33347    
   1920000  -46.54648       78.74235       266.83259    
   1930000  -24.073034      77.484656      262.57067    
   1940000  -7.4718492      85.271279      288.95704    
   1950000   3.1456292      94.202806      319.22312    
   1960000  -12.69508       94.683449      320.85187    
   1970000  -0.85619804     92.704697      314.14651    
   1980000  -11.102726      95.284694      322.8893     
   1990000  -8.1998757      89.746374      304.1217     
   2000000  -8.7685972      91.448274      309.8889     
   2010000  -16.970077      90.826166      307.78077    
   2020000  -19.036582      86.775711      294.05508    
   2030000  -12.604035      91.921986      311.49416    
   2040000  -11.310593      93.728196      317.61482    
   2050000  -10.836982      100.45238      340.40092    
   2060000  -32.504503      102.82123      348.42822    
   2070000  -25.594839      83.052804      281.43934    
   2080000  -26.114691      97.573109      330.644      
   2090000  -11.958708      84.676707      286.94223    
   2100000  -21.157985      103.10749      349.39823    
   2110000  -13.335601      92.661568      314.00036    
   2120000  -21.842559      90.797321      307.68303    
   2130000   8.9165744      84.993356      288.01525    
   2140000   4.7495615      85.203627      288.72779    
   2150000  -12.28261       97.110544      329.07652    
   2160000  -6.6273807      74.009798      250.79549    
   2170000  -19.56693       86.878193      294.40236    
   2180000  -31.041599      94.349267      319.71943    
   2190000  -3.0984367      90.676829      307.27472    
   2200000  -12.937378      95.2852        322.89101    
   2210000  -0.090247827    86.713508      293.84429    
   2220000   15.877509      71.321245      241.68485    
   2230000   9.4958406      91.708505      310.77074    
   2240000   3.0054383      92.481454      313.39001    
   2250000  -1.1164288      91.546058      310.22026    
   2260000  -10.158797      100.51593      340.61628    
   2270000   9.9552382      89.552923      303.46616    
   2280000  -7.7954594      98.552482      333.96278    
   2290000  -9.3626433      91.217021      309.10526    
   2300000  -3.0936822      80.25298       271.95163    
   2310000   0.64367939     88.786218      300.86804    
   2320000  -22.230624      98.281258      333.04369    
   2330000  -11.102263      98.556913      333.9778     
   2340000  -24.508254      97.205433      329.39806    
   2350000  -15.455507      88.06194       298.4137     
   2360000  -4.7793427      72.660814      246.22421    
   2370000  -22.528655      101.69211      344.60197    
   2380000  -13.138987      92.394445      313.09517    
   2390000  -19.431559      90.459258      306.53744    
   2400000  -10.742752      92.858273      314.66693    
   2410000  -20.03244       91.451115      309.89852    
   2420000  -18.014708      83.518959      283.01899    
   2430000  -29.953725      89.843616      304.45123    
   2440000  -19.149821      88.569433      300.13343    
   2450000  -20.964183      85.617975      290.13188    
   2460000  -6.623873       87.247845      295.65499    
   2470000  -10.875774      89.995003      304.96423    
   2480000  -11.354413      91.589196      310.36644    
   2490000  -12.395385      98.649724      334.2923     
   2500000  -15.808345      91.894382      311.40061    
   2510000  -19.93505       84.048473      284.81334    
   2520000  -16.441565      77.276563      261.86551    
   2530000  -8.6539926      86.384209      292.7284     
   2540000  -5.467833       109.15517      369.8919     
   2550000  -14.879837      102.48588      347.29181    
   2560000  -3.4183526      86.098103      291.75888    
   2570000  -14.385692      91.674506      310.65552    
   2580000  -29.568567      102.99621      349.02114    
   2590000  -17.889912      91.478701      309.992      
   2600000  -32.242432      95.755693      324.48536    
   2610000  -18.096553      73.911989      250.46405    
   2620000  -19.360051      90.775734      307.60988    
   2630000  -32.578192      85.364289      289.27222    
   2640000  -16.250632      78.845703      267.18282    
   2650000  -30.043289      95.902458      324.9827     
   2660000  -10.467318      74.898465      253.8069     
   2670000  -18.253156      89.822208      304.37868    
   2680000  -20.317771      88.399282      299.55684    
   2690000  -25.921074      97.832193      331.52195    
   2700000  -29.645233      90.338181      306.12715    
   2710000  -4.2715671      81.010958      274.52018    
   2720000  -27.04185       91.567874      310.29418    
   2730000  -38.61459       76.663909      259.78942    
   2740000  -32.980136      74.537116      252.5824     
   2750000  -23.231389      95.170753      322.50319    
   2760000  -19.039788      90.951632      308.20594    
   2770000  -12.051069      94.096867      318.86413    
   2780000  -12.505058      92.520058      313.52083    
   2790000  -27.34034       103.02477      349.11792    
   2800000  -8.4049575      95.295063      322.92443    
   2810000  -9.5428171      101.09369      342.57413    
   2820000  -2.1106326      87.15916       295.35446    
   2830000  -27.696678      88.664239      300.45469    
   2840000  -18.117536      90.843438      307.8393     
   2850000  -3.9456422      91.287229      309.34317    
   2860000  -24.125823      91.244945      309.19988    
   2870000  -22.320028      84.081885      284.92656    
   2880000  -17.679227      87.821276      297.59816    
   2890000  -13.307115      95.319062      323.00576    
   2900000  -13.531374      97.332211      329.82767    
   2910000  -23.759925      90.178926      305.58748    
   2920000  -18.382362      94.916933      321.64307    
   2930000  -17.235098      95.935291      325.09396    
   2940000   4.6310737      76.383852      258.8404     
   2950000  -13.304213      87.584547      296.79597    
   2960000  -5.1774034      85.290309      289.02153    
   2970000  -28.563496      80.01073       271.13073    
   2980000  -21.202881      89.555642      303.47537    
   2990000  -20.961962      79.925878      270.84319    
   3000000  -11.914602      80.920764      274.21454    
   3010000  -15.790375      79.129407      268.1442     
   3020000  -20.51292       80.727386      273.55924    
   3030000  -16.353345      93.678183      317.44534    
   3040000  -18.562964      85.295691      289.03976    
   3050000  -15.495065      88.390438      299.52687    
   3060000  -20.373731      91.546159      310.2206     
   3070000  -19.54081       83.987368      284.60628    
   3080000  -20.892647      85.199032      288.71222    
   3090000  -26.571459      87.895992      297.85135    
   3100000  -31.344291      83.136941      281.72445    
   3110000  -37.185355      92.029951      311.86001    
   3120000  -36.925475      88.902036      301.26051    
   3130000  -11.641171      82.706092      280.26444    
   3140000  -18.23932       91.580695      310.33763    
   3150000  -12.866909      88.523349      299.97726    
   3160000  -7.4110403      83.809508      284.00357    
   3170000  -29.842104      89.305872      302.62898    
   3180000  -26.711303      85.909554      291.11995    
   3190000  -32.471919      99.629727      337.61322    
   3200000  -34.707371      87.350468      296.00275    
   3210000  -23.428195      76.655553      259.76111    
   3220000  -35.000993      84.069207      284.8836     
   3230000  -27.703475      95.183951      322.54791    
   3240000  -33.014859      77.242065      261.74861    
   3250000  -35.533389      89.227479      302.36334    
   3260000  -25.975274      86.898466      294.47105    
   3270000  -30.745168      80.900702      274.14656    
   3280000  -43.791917      77.220272      261.67476    
   3290000  -38.63631       94.290263      319.51949    
   3300000  -21.339058      75.80428       256.87641    
   3310000  -24.764817      90.427281      306.42908    
   3320000  -41.896287      93.620692      317.25052    
   3330000  -24.290216      79.069571      267.94144    
   3340000  -13.005769      89.63787       303.75402    
   3350000  -2.941631       87.908878      297.89502    
   3360000  -21.524973      97.972565      331.99763    
   3370000  -26.487546      94.467163      320.11894    
   3380000  -18.045321      93.209916      315.85854    
   3390000  -1.3129053      82.384235      279.17377    
   3400000  -9.2799081      79.158373      268.24236    
   3410000  -13.401277      82.740723      280.3818     
   3420000  -27.297881      83.40973       282.64885    
   3430000  -36.601813      77.327946      262.03963    
   3440000  -31.151644      85.585686      290.02247    
   3450000  -24.832979      80.460514      272.6549     
   3460000  -29.002667      82.527033      279.65767    
   3470000  -28.722345      79.396415      269.04901    
   3480000  -32.445164      86.600116      293.46004    
   3490000  -26.37669       84.343528      285.81319    
   3500000  -22.728995      79.899525      270.75389    
   3510000  -38.462722      100.28563      339.83586    
   3520000  -31.962211      86.522596      293.19735    
   3530000  -35.161404      76.484564      259.18168    
   3540000  -31.297259      92.526144      313.54145    
   3550000  -20.419191      97.848592      331.57752    
   3560000  -25.049707      88.975999      301.51115    
   3570000  -28.976882      69.351799      235.01103    
   3580000  -33.559821      93.047365      315.3077     
   3590000  -17.612335      91.670937      310.64343    
   3600000  -7.2094238      93.837729      317.986      
   3610000  -27.787356      92.925621      314.89515    
   3620000  -26.238188      86.107133      291.78948    
   3630000  -22.282186      90.883437      307.97484    
   3640000  -15.055025      84.341792      285.80731    
   3650000  -7.5585706      85.25209       288.89201    
   3660000  -12.529635      83.381602      282.55353    
   3670000  -16.599764      85.621598      290.14416    
   3680000  -28.037625      86.190424      292.07173    
   3690000  -17.447892      85.700457      290.41139    
   3700000  -8.6981515      92.345064      312.92783    
   3710000  -8.7636324      83.212245      281.97963    
   3720000  -1.5419023      84.736008      287.14318    
   3730000  -12.659941      89.955801      304.83139    
   3740000  -14.189178      82.784619      280.53055    
   3750000  -5.8696664      86.176649      292.02505    
   3760000  -11.955995      91.394285      309.70595    
   3770000  -5.8651179      74.493824      252.4357     
   3780000  -1.4679824      79.436977      269.18646    
   3790000  -17.320321      99.778581      338.11764    
   3800000  -0.53939625     88.744303      300.726      
   3810000  -8.2350809      92.102297      312.10517    
   3820000  -16.53221       95.135396      322.38337    
   3830000  -10.622275      89.100174      301.93194    
   3840000   5.6177682      84.708073      287.04852    
   3850000   4.711918       101.04237      342.40021    
   3860000   4.6155732      81.023225      274.56175    
   3870000  -2.1646825      89.975031      304.89655    
   3880000  -0.54209145     78.360028      265.53703    
   3890000  -25.034469      80.616422      273.18322    
   3900000  -33.348451      87.382107      296.10996    
   3910000  -17.482169      82.746033      280.39979    
   3920000  -15.902939      81.634127      276.6319     
   3930000  -6.5355972      93.177883      315.74999    
   3940000  -11.159786      100.04375      339.01621    
   3950000  -21.554652      95.989682      325.27827    
   3960000  -15.65243       97.703112      331.08454    
   3970000  -11.392427      84.056613      284.84093    
   3980000  -9.2375719      82.569178      279.80049    
   3990000  -18.921488      93.280742      316.09854    
   4000000  -29.897849      94.189214      319.17706    
Loop time of 370.044 on 1 procs for 4000000 steps with 100 atoms

Performance: 9339.438 ns/day, 0.003 hours/ns, 10809.535 timesteps/s, 1.081 Matom-step/s
99.6% CPU use with 1 MPI tasks x 1 OpenMP threads

MPI task timing breakdown:
Section |  min time  |  avg time  |  max time  |%varavg| %total
---------------------------------------------------------------
Pair    | 328.52     | 328.52     | 328.52     |   0.0 | 88.78
Bond    | 25.165     | 25.165     | 25.165     |   0.0 |  6.80
Neigh   | 1.8986     | 1.8986     | 1.8986     |   0.0 |  0.51
Comm    | 2.4278     | 2.4278     | 2.4278     |   0.0 |  0.66
Output  | 0.1139     | 0.1139     | 0.1139     |   0.0 |  0.03
Modify  | 10.906     | 10.906     | 10.906     |   0.0 |  2.95
Other   |            | 1.013      |            |       |  0.27

Nlocal:            100 ave         100 max         100 min
Histogram: 1 0 0 0 0 0 0 0 0 0
Nghost:              0 ave           0 max           0 min
Histogram: 1 0 0 0 0 0 0 0 0 0
Neighs:            830 ave         830 max         830 min
Histogram: 1 0 0 0 0 0 0 0 0 0

Total # of neighbors = 830
Ave neighs/atom = 8.3
Ave special neighs/atom = 5.88
Neighbor list builds = 8835
Dangerous builds = 0

# ===============================
# MAIN SA LOOP — 10 cycles
# ===============================
variable c loop ${ncycle}
variable c loop 10
label cyc

  # Heat 298 → 500
  variable seedH equal 44000+${c}
  variable seedH equal 44000+1
  unfix fxl
  fix fxl all langevin ${T_eq} ${T_high} 100000.0 ${seedH}
  fix fxl all langevin 298 ${T_high} 100000.0 ${seedH}
  fix fxl all langevin 298 500 100000.0 ${seedH}
  fix fxl all langevin 298 500 100000.0 44001
  run ${n_heat}
  run 8000000
Generated 0 of 6 mixed pair_coeff terms from geometric mixing rule
Per MPI rank memory allocation (min/avg/max) = 9.632 | 9.632 | 9.632 Mbytes
   Step         PotEng         KinEng          Temp     
   4000000  -29.897849      94.189214      319.17706    
   4010000  -24.612187      83.816892      284.02859    
   4020000  -14.874755      80.615666      273.18066    
   4030000  -19.243027      82.659003      280.10488    
   4040000  -17.080924      82.834009      280.69791    
   4050000  -20.273866      81.025995      274.57113    
   4060000  -17.470208      90.289122      305.9609     
   4070000  -15.035132      88.867447      301.1433     
   4080000  -33.263876      90.100715      305.32245    
   4090000  -24.901254      86.444345      292.93218    
   4100000  -18.230115      85.019253      288.103      
   4110000  -28.694173      90.758508      307.5515     
   4120000  -13.545812      77.900045      263.97829    
   4130000  -43.96551       94.429746      319.99215    
   4140000  -21.220221      88.509387      299.92995    
   4150000  -23.938296      93.854585      318.04311    
   4160000  -23.158227      94.953892      321.76831    
   4170000  -16.823307      77.5063        262.64401    
   4180000  -6.7100875      81.73106       276.96037    
   4190000   0.32917156     98.392899      333.422      
   4200000  -13.247937      92.798934      314.46585    
   4210000   3.7309836      85.829063      290.84719    
   4220000  -12.64785       91.167246      308.93658    
   4230000   1.429783       106.74003      361.70775    
   4240000  -14.850155      89.13793       302.05988    
   4250000  -12.252444      91.932672      311.53037    
   4260000  -2.1679128      95.325834      323.02871    
   4270000  -18.595166      91.396979      309.71507    
   4280000   2.2075559      95.683881      324.24201    
   4290000  -8.0602167      87.179703      295.42408    
   4300000  -26.34864       79.578111      269.66472    
   4310000  -16.583267      95.20142       322.60711    
   4320000  -11.19954       81.526753      276.26804    
   4330000  -35.018563      91.574239      310.31575    
   4340000  -42.313695      84.290273      285.63273    
   4350000  -28.987644      68.973447      233.72891    
   4360000  -29.715144      81.046533      274.64073    
   4370000  -35.67515       90.346167      306.15421    
   4380000  -24.083319      90.081569      305.25757    
   4390000  -33.565787      85.914822      291.1378     
   4400000  -40.793893      105.58973      357.80975    
   4410000  -30.033732      99.125704      335.90525    
   4420000  -31.695946      97.189031      329.34248    
   4430000  -24.91594       97.030005      328.80359    
   4440000  -26.934029      96.066769      325.5395     
   4450000  -17.635124      90.100246      305.32086    
   4460000   2.7059382      89.295492      302.59381    
   4470000  -15.012143      106.53862      361.02526    
   4480000   8.0113348      89.051356      301.76651    
   4490000   4.9077152      104.45957      353.98       
   4500000   7.2577033      96.993364      328.67943    
   4510000  -2.6984789      108.25756      366.85019    
   4520000  -7.0858711      92.296662      312.76381    
   4530000  -16.167373      107.74654      365.11851    
   4540000  -11.669586      107.86439      365.51787    
   4550000  -0.92609487     101.70183      344.63491    
   4560000  -13.612852      90.725217      307.43869    
   4570000  -28.400773      90.335909      306.11945    
   4580000  -28.637578      88.355138      299.40725    
   4590000  -20.802436      84.833605      287.47391    
   4600000  -18.549563      91.304013      309.40004    
   4610000  -25.69994       95.382959      323.22228    
   4620000  -30.717059      89.448041      303.11075    
   4630000  -36.115275      88.98492       301.54138    
   4640000  -12.985615      81.643512      276.6637     
   4650000  -10.627145      92.91971       314.87512    
   4660000  -17.215088      92.965668      315.03086    
   4670000  -0.62633346     96.964674      328.58221    
   4680000   1.000746       86.416153      292.83665    
   4690000  -7.4323279      87.082289      295.09397    
   4700000  -2.1848419      89.454935      303.13411    
   4710000   2.9893979      90.383802      306.28174    
   4720000   14.176818      92.120949      312.16838    
   4730000  -10.114216      99.375523      336.7518     
   4740000  -1.571996       96.529494      327.10752    
   4750000  -4.5864289      86.517807      293.18112    
   4760000  -20.539521      93.144664      315.63742    
   4770000  -4.9713038      100.09831      339.2011     
   4780000   14.727819      96.844225      328.17405    
   4790000   2.4608689      93.077228      315.4089     
   4800000   9.3068854      82.241595      278.69041    
   4810000  -25.17592       92.634003      313.90695    
   4820000  -17.370546      95.515691      323.67207    
   4830000   6.3218073      80.983538      274.42726    
   4840000   2.600474       107.71445      365.00975    
   4850000  -18.215337      92.003119      311.76909    
   4860000  -22.519868      95.660884      324.16408    
   4870000  -8.3799819      105.92082      358.93172    
   4880000   4.1765709      91.48692       310.01986    
   4890000   13.785366      106.23222      359.98696    
   4900000   8.4312613      102.72891      348.11535    
   4910000   11.673298      76.533547      259.34767    
   4920000   8.1889992      105.74852      358.34785    
   4930000   17.197247      92.306178      312.79606    
   4940000   14.907312      86.216595      292.16041    
   4950000  -9.6443073      91.93918       311.55242    
   4960000   6.0165403      100.99004      342.22289    
   4970000   0.58571359     104.9395       355.60633    
   4980000   7.634031       99.38963       336.79961    
   4990000  -2.3113095      99.229551      336.25715    
   5000000   20.558465      113.85868      385.83057    
   5010000   2.1919744      100.23744      339.67256    
   5020000   7.9397143      94.983668      321.86922    
   5030000   15.394449      101.20326      342.9454     
   5040000  -7.0875966      114.77686      388.94201    
   5050000   34.437668      91.037962      308.49848    
   5060000   43.509398      100.50184      340.56854    
   5070000   24.712275      86.139355      291.89867    
   5080000   6.4956885      97.303964      329.73195    
   5090000   12.457013      99.005121      335.49663    
   5100000   17.554701      101.70869      344.65815    
   5110000   1.6676514      99.186484      336.11121    
   5120000   18.812663      90.605479      307.03294    
   5130000   16.81775       95.078518      322.19063    
   5140000   20.327991      82.724897      280.32817    
   5150000   7.7636134      86.356026      292.6329     
   5160000   11.657259      97.804732      331.4289     
   5170000   5.0673787      74.174309      251.35296    
   5180000   3.3638074      104.70811      354.82223    
   5190000   7.5219654      93.158813      315.68537    
   5200000   18.381362      85.447607      289.55456    
   5210000   18.913876      92.240992      312.57516    
   5220000   9.1394186      102.17751      346.24684    
   5230000   22.199564      103.05305      349.21378    
   5240000   12.782589      118.80129      402.5795     
   5250000   30.557543      107.09419      362.90788    
   5260000   15.032215      107.60847      364.65061    
   5270000   33.432506      94.205165      319.23112    
   5280000   33.277833      95.912911      325.01812    
   5290000   32.886677      109.20691      370.06723    
   5300000   31.925319      105.46783      357.39669    
   5310000   33.749218      110.80872      375.49526    
   5320000   38.770296      96.186787      325.9462     
   5330000   22.020463      95.865319      324.85685    
   5340000   22.748502      84.733161      287.13353    
   5350000   26.414623      100.77749      341.50261    
   5360000   28.090513      97.141163      329.18027    
   5370000   15.280941      113.28702      383.89341    
   5380000   39.285073      91.002938      308.3798     
   5390000   31.015879      103.40859      350.41857    
   5400000   35.54189       101.63004      344.39165    
   5410000   23.410561      106.70556      361.59095    
   5420000   20.051236      99.760075      338.05493    
   5430000   34.645437      107.69103      364.93038    
   5440000   25.000558      100.43279      340.33455    
   5450000   21.09752       80.908699      274.17366    
   5460000   15.16742       93.700644      317.52146    
   5470000   37.090962      82.611094      279.94253    
   5480000   18.16007       96.696768      327.67436    
   5490000   17.181784      101.85612      345.15775    
   5500000   8.5946224      102.34014      346.79793    
   5510000   26.046895      84.369442      285.901      
   5520000   28.521446      108.73062      368.45324    
   5530000   29.320938      95.019866      321.99188    
   5540000   15.673766      116.72002      395.52674    
   5550000   20.57078       91.171688      308.95164    
   5560000   23.637437      99.98724       338.82472    
   5570000   22.789484      97.14821       329.20416    
   5580000   21.830976      108.77745      368.61191    
   5590000   33.431606      108.07732      366.2394     
   5600000   32.825845      89.993823      304.96023    
   5610000   17.857916      111.67553      378.43259    
   5620000   29.684048      104.84417      355.28328    
   5630000   31.430056      90.817074      307.74996    
   5640000   28.019463      109.13494      369.82335    
   5650000   16.824567      107.53923      364.41598    
   5660000   6.5562846      110.73234      375.23642    
   5670000   14.336203      93.091306      315.45661    
   5680000   17.509887      89.334517      302.72605    
   5690000   27.985082      95.968652      325.20701    
   5700000   18.829975      102.83563      348.47701    
   5710000   25.787161      110.67937      375.05693    
   5720000   28.443809      101.84041      345.10451    
   5730000   10.893337      95.560255      323.82308    
   5740000   11.269627      91.932225      311.52885    
   5750000   22.473536      107.62408      364.70353    
   5760000   28.483119      100.45669      340.41554    
   5770000   24.466738      98.570571      334.02408    
   5780000   11.123832      112.903        382.59209    
   5790000   24.41567       97.124344      329.12328    
   5800000   7.5751937      115.70766      392.09617    
   5810000   33.465907      103.20916      349.74277    
   5820000   36.261106      97.478006      330.32173    
   5830000   47.612398      105.4476       357.32811    
   5840000   42.645582      106.5744       361.14649    
   5850000   47.229026      112.69004      381.87044    
   5860000   51.085814      103.80585      351.76475    
   5870000   40.159246      92.936756      314.93288    
   5880000   40.343172      107.1672       363.1553     
   5890000   22.914858      101.56407      344.16808    
   5900000   14.105575      99.95195       338.70513    
   5910000   15.09276       98.525475      333.87126    
   5920000   16.069752      107.45345      364.12529    
   5930000   15.464013      98.359027      333.30722    
   5940000   3.486826       105.6825       358.12413    
   5950000   29.703947      98.270299      333.00655    
   5960000   20.777454      114.3876       387.62294    
   5970000   9.7760451      110.22477      373.51642    
   5980000   13.611184      130.82149      443.31209    
   5990000   27.271877      98.928688      335.23762    
   6000000   31.805122      107.49394      364.26251    
   6010000   30.861204      112.94187      382.72381    
   6020000   38.549331      92.385095      313.06348    
   6030000   35.418979      112.94056      382.71936    
   6040000   29.369705      102.4653       347.22208    
   6050000   22.51436       100.18875      339.50757    
   6060000   17.81937       111.47214      377.74336    
   6070000   6.4414587      96.022744      325.39031    
   6080000   0.18267306     105.667        358.0716     
   6090000   21.401554      104.24069      353.23829    
   6100000   33.557993      95.68894       324.25916    
   6110000   41.578958      99.174582      336.07088    
   6120000   25.853687      113.19181      383.57078    
   6130000   28.022309      97.957069      331.94512    
   6140000   20.034542      115.89173      392.71993    
   6150000   34.254867      115.14732      390.19739    
   6160000   15.909282      104.37329      353.68763    
   6170000   9.5391482      95.740975      324.43549    
   6180000   19.338175      96.337363      326.45645    
   6190000   16.22957       106.40224      360.56308    
   6200000   26.638955      105.31389      356.87502    
   6210000   17.067262      116.37105      394.34418    
   6220000   35.956163      113.60141      384.95879    
   6230000   37.440572      103.20163      349.71724    
   6240000   40.318203      88.125889      298.6304     
   6250000   51.061935      109.39181      370.69378    
   6260000   34.508287      100.82175      341.6526     
   6270000   30.225015      106.22155      359.9508     
   6280000   28.807405      96.023082      325.39146    
   6290000   30.035562      112.65217      381.7421     
   6300000   62.422924      114.22889      387.0851     
   6310000   57.183511      111.98286      379.47403    
   6320000   41.860935      105.66814      358.07546    
   6330000   41.163487      98.392486      333.42061    
   6340000   43.974338      88.577216      300.1598     
   6350000   47.687107      86.958751      294.67534    
   6360000   33.572512      107.24309      363.41248    
   6370000   26.040388      102.8843       348.64193    
   6380000   32.281314      109.63479      371.51718    
   6390000   38.097223      101.26223      343.14524    
   6400000   16.388185      118.28296      400.82304    
   6410000   35.464451      111.86349      379.06951    
   6420000   41.833707      114.10362      386.6606     
   6430000   41.293055      94.152202      319.05164    
   6440000   35.680989      109.05099      369.53887    
   6450000   32.473944      94.249449      319.38118    
   6460000   33.862921      89.676645      303.88541    
   6470000   14.260361      106.36192      360.42647    
   6480000   23.546244      122.56282      415.32613    
   6490000   37.19987       102.11608      346.03869    
   6500000   44.177241      102.93335      348.80813    
   6510000   19.831803      98.905939      335.16053    
   6520000   46.873834      85.901768      291.09357    
   6530000   17.662293      122.14497      413.91015    
   6540000   44.997344      108.89622      369.01438    
   6550000   36.857266      108.59008      367.97698    
   6560000   46.866102      112.82386      382.32391    
   6570000   45.529405      110.29053      373.73927    
   6580000   39.323499      99.746074      338.00748    
   6590000   60.990964      104.01847      352.48527    
   6600000   50.266744      104.48354      354.06122    
   6610000   45.7471        105.36074      357.03378    
   6620000   49.668079      111.87133      379.09609    
   6630000   80.771699      102.81545      348.40861    
   6640000   70.919835      106.20158      359.88313    
   6650000   62.45181       105.01386      355.85833    
   6660000   59.220974      129.81556      439.90333    
   6670000   66.270501      102.27839      346.58869    
   6680000   75.017335      99.017107      335.53725    
   6690000   83.32588       107.67067      364.86141    
   6700000   71.861807      98.685044      334.41199    
   6710000   69.557413      95.399143      323.27713    
   6720000   65.187762      123.94358      420.00509    
   6730000   77.955479      109.42116      370.79324    
   6740000   68.607425      110.01793      372.8155     
   6750000   65.119676      108.73037      368.45239    
   6760000   71.003216      103.52881      350.82595    
   6770000   67.194321      105.57814      357.7705     
   6780000   59.450273      111.67941      378.44573    
   6790000   69.707837      96.545032      327.16018    
   6800000   67.587018      101.43308      343.72422    
   6810000   66.537258      114.12441      386.73106    
   6820000   71.720083      98.381288      333.38266    
   6830000   66.312335      102.72529      348.10309    
   6840000   74.314937      103.67881      351.33428    
   6850000   55.490766      115.73424      392.18627    
   6860000   54.632943      123.3786       418.09053    
   6870000   74.272864      113.5124       384.65716    
   6880000   51.613917      120.02978      406.74245    
   6890000   45.734476      118.66034      402.10186    
   6900000   56.824385      102.9938       349.01298    
   6910000   67.218152      111.89979      379.19253    
   6920000   69.024613      118.77535      402.49159    
   6930000   68.284089      117.271        397.39385    
   6940000   73.000607      125.09896      423.92029    
   6950000   61.125982      108.1558       366.50534    
   6960000   51.700724      112.49543      381.21096    
   6970000   38.650979      113.03026      383.02335    
   6980000   38.612156      96.196422      325.97885    
   6990000   38.880012      114.81176      389.06028    
   7000000   52.066387      120.45816      408.19409    
   7010000   47.893324      122.10334      413.7691     
   7020000   63.279167      127.61028      432.43036    
   7030000   46.743266      110.15535      373.28118    
   7040000   48.440634      115.03375      389.81251    
   7050000   73.820824      109.93404      372.53122    
   7060000   68.919367      107.9962       365.96453    
   7070000   66.042244      102.15456      346.16906    
   7080000   73.518771      105.50144      357.51058    
   7090000   73.351202      121.04176      410.17174    
   7100000   72.265034      115.71435      392.11886    
   7110000   63.533565      114.53798      388.13252    
   7120000   77.213712      115.07289      389.94515    
   7130000   55.601291      113.66667      385.17994    
   7140000   37.988433      113.70148      385.29787    
   7150000   41.1385        101.11284      342.63901    
   7160000   40.075008      94.791965      321.21959    
   7170000   38.615353      119.21684      403.98768    
   7180000   40.357423      102.73765      348.14497    
   7190000   47.671014      101.69251      344.60332    
   7200000   38.07095       137.3345       465.3826     
   7210000   52.402243      102.27679      346.58325    
   7220000   35.580015      112.13998      380.00647    
   7230000   48.563092      112.95655      382.77355    
   7240000   49.613288      105.55049      357.67678    
   7250000   54.748965      101.99354      345.62343    
   7260000   60.865878      113.82562      385.71856    
   7270000   44.388494      119.98442      406.58877    
   7280000   43.131079      114.46578      387.88785    
   7290000   54.83558       104.48338      354.06068    
   7300000   68.305036      111.91311      379.23765    
   7310000   65.53992       126.21         427.68525    
   7320000   68.214755      117.95014      399.69524    
   7330000   55.209498      121.8825       413.02074    
   7340000   64.40448       107.2941       363.58532    
   7350000   59.64497       111.25388      377.00376    
   7360000   51.813795      129.24451      437.96824    
   7370000   78.718501      125.65692      425.81103    
   7380000   64.279358      111.54376      377.98605    
   7390000   52.517554      95.296405      322.92898    
   7400000   51.955738      109.90983      372.44919    
   7410000   57.558563      106.88686      362.20532    
   7420000   31.594362      122.94492      416.62093    
   7430000   31.802594      104.97737      355.73465    
   7440000   33.386726      109.15968      369.90718    
   7450000   45.90803       113.21351      383.64431    
   7460000   60.122394      135.02546      457.55803    
   7470000   67.129513      113.58959      384.91873    
   7480000   64.405077      123.71413      419.22754    
   7490000   38.6233        122.80224      416.13745    
   7500000   53.868291      116.52646      394.87084    
   7510000   52.560458      130.54581      442.37792    
   7520000   48.594652      138.68911      469.97295    
   7530000   53.190814      118.4425       401.36366    
   7540000   51.6979        117.47186      398.07451    
   7550000   54.229685      122.34941      414.60295    
   7560000   23.217865      117.47711      398.09229    
   7570000   36.116522      110.82285      375.54312    
   7580000   49.044459      114.80217      389.02778    
   7590000   52.735164      118.51347      401.60416    
   7600000   53.02428       125.80717      426.3202     
   7610000   58.260617      122.43976      414.90912    
   7620000   67.946643      112.18746      380.16735    
   7630000   34.575161      127.54037      432.19345    
   7640000   64.793287      116.11906      393.49027    
   7650000   51.115035      128.25972      434.6311     
   7660000   70.982219      114.31922      387.39119    
   7670000   63.151246      116.11637      393.48117    
   7680000   60.99895       119.79948      405.96203    
   7690000   47.347573      112.73133      382.01036    
   7700000   49.925058      122.93641      416.5921     
   7710000   58.633109      120.16275      407.19305    
   7720000   82.33609       108.95357      369.20873    
   7730000   69.321566      122.37873      414.70229    
   7740000   73.313046      116.54765      394.94263    
   7750000   67.728755      106.46287      360.76854    
   7760000   72.867212      99.440807      336.97303    
   7770000   77.702094      107.29882      363.60133    
   7780000   86.973392      120.55316      408.51603    
   7790000   69.405929      110.02378      372.83534    
   7800000   77.900032      117.62823      398.60438    
   7810000   72.328225      135.53659      459.29007    
   7820000   74.605128      143.39709      485.9268     
   7830000   63.828089      130.95088      443.75057    
   7840000   69.729171      132.16121      447.85201    
   7850000   66.217107      106.69544      361.55664    
   7860000   73.185881      94.157619      319.07       
   7870000   83.53761       126.43301      428.44096    
   7880000   72.919422      120.68499      408.96278    
   7890000   80.458308      126.4484       428.49312    
   7900000   85.58929       115.8623       392.6202     
   7910000   81.717539      121.32575      411.13409    
   7920000   76.537537      112.23986      380.3449     
   7930000   66.119422      118.28027      400.81393    
   7940000   70.860807      115.14865      390.20189    
   7950000   72.402636      116.97592      396.39392    
   7960000   77.636046      112.83995      382.37842    
   7970000   78.072884      123.31646      417.87998    
   7980000   87.615046      114.08463      386.59625    
   7990000   62.559936      125.77123      426.1984     
   8000000   74.549301      108.14149      366.45686    
   8010000   68.245569      97.848681      331.57783    
   8020000   71.505118      113.82143      385.70435    
   8030000   71.735642      115.06584      389.92125    
   8040000   75.48323       111.97113      379.43427    
   8050000   84.514058      123.55021      418.67208    
   8060000   77.244851      123.98272      420.13771    
   8070000   91.725974      116.96996      396.37371    
   8080000   79.009517      118.6146       401.94685    
   8090000   80.153927      105.96159      359.06986    
   8100000   53.369207      115.79251      392.38373    
   8110000   57.185565      113.14741      383.42031    
   8120000   52.268839      119.75603      405.81482    
   8130000   64.231197      125.48786      425.23815    
   8140000   68.774417      109.14121      369.8446     
   8150000   72.243334      116.49111      394.75106    
   8160000   72.976296      105.96101      359.0679     
   8170000   83.305524      127.87662      433.33289    
   8180000   79.025207      116.37849      394.36942    
   8190000   67.695031      114.8419       389.16242    
   8200000   64.175635      107.41342      363.98965    
   8210000   69.215709      117.24688      397.31211    
   8220000   73.472876      125.76803      426.18757    
   8230000   74.29281       126.97016      430.26118    
   8240000   70.901677      115.52832      391.48847    
   8250000   84.752284      126.3845       428.27658    
   8260000   73.234276      123.55697      418.695      
   8270000   81.280408      118.54005      401.69425    
   8280000   59.699174      121.18036      410.64142    
   8290000   83.379958      121.35286      411.22597    
   8300000   72.052502      120.26521      407.54026    
   8310000   75.607469      121.75218      412.57911    
   8320000   80.270136      118.66623      402.12184    
   8330000   77.809983      131.26634      444.81957    
   8340000   69.468051      130.42285      441.96125    
   8350000   72.492276      114.13291      386.75988    
   8360000   67.449068      105.31486      356.87833    
   8370000   82.797536      120.92351      409.77102    
   8380000   75.00821       125.4723       425.18543    
   8390000   86.270096      131.32827      445.02943    
   8400000   80.6173        127.73045      432.83757    
   8410000   81.32188       131.26537      444.81626    
   8420000   65.156541      147.54909      499.99658    
   8430000   75.252006      117.06503      396.69589    
   8440000   76.890204      134.94312      457.27899    
   8450000   64.426961      135.93478      460.63942    
   8460000   75.038727      121.55983      411.92732    
   8470000   80.419566      106.57865      361.16091    
   8480000   74.569964      128.30633      434.78904    
   8490000   89.046036      125.91136      426.67325    
   8500000   81.735643      115.58255      391.67223    
   8510000   87.268682      120.76547      409.23548    
   8520000   97.322042      138.52931      469.43143    
   8530000   79.081068      129.956        440.37923    
   8540000   80.006982      119.25193      404.10657    
   8550000   75.873972      112.35849      380.74691    
   8560000   85.534726      125.28053      424.53559    
   8570000   78.115376      133.80322      453.41624    
   8580000   74.82407       127.12287      430.77867    
   8590000   76.269258      141.54252      479.64226    
   8600000   76.504503      134.98006      457.40418    
   8610000   65.89844       132.86865      450.24929    
   8620000   92.550372      134.02767      454.17683    
   8630000   64.836729      115.82045      392.47838    
   8640000   71.738758      131.05074      444.08895    
   8650000   80.598214      123.19421      417.46569    
   8660000   81.537206      125.34566      424.75627    
   8670000   87.912232      111.69724      378.50614    
   8680000   89.925788      121.61946      412.12937    
   8690000   84.706347      149.2133       505.63605    
   8700000   87.393935      122.23288      414.20807    
   8710000   68.282195      129.34977      438.32491    
   8720000   80.432264      129.33974      438.29092    
   8730000   83.489977      114.08677      386.6035     
   8740000   66.058728      132.21757      448.04299    
   8750000   77.379935      112.38273      380.82908    
   8760000   59.61513       123.17436      417.39844    
   8770000   71.740149      100.24496      339.69806    
   8780000   77.446942      118.81586      402.62888    
   8790000   70.69986       128.07643      434.00998    
   8800000   69.331106      129.97586      440.44653    
   8810000   85.894859      129.58717      439.12941    
   8820000   81.648688      134.47738      455.70075    
   8830000   83.539621      127.96297      433.62551    
   8840000   87.778642      127.15766      430.89657    
   8850000   78.570947      119.71984      405.69216    
   8860000   74.083844      117.62476      398.59263    
   8870000   77.850401      120.16727      407.20836    
   8880000   97.964575      103.98799      352.38198    
   8890000   106.64392      111.4635       377.71408    
   8900000   86.849561      144.14389      488.45746    
   8910000   84.807001      144.76535      490.5634     
   8920000   93.154809      120.63917      408.8075     
   8930000   79.465933      121.03337      410.14332    
   8940000   73.423665      143.3503       485.76824    
   8950000   83.829125      131.81744      446.68708    
   8960000   72.246317      130.66494      442.78162    
   8970000   85.732866      137.41095      465.64167    
   8980000   78.134387      136.82507      463.65632    
   8990000   90.721377      132.0387       447.43686    
   9000000   93.111292      137.11958      464.6543     
   9010000   87.929633      121.83799      412.86992    
   9020000   83.207507      132.09003      447.6108     
   9030000   87.3308        123.7535       419.36097    
   9040000   78.345713      125.08812      423.88357    
   9050000   64.668968      135.26652      458.37488    
   9060000   68.046064      126.52406      428.74949    
   9070000   80.863587      125.30439      424.61643    
   9080000   66.763584      146.40221      496.11019    
   9090000   98.544845      134.8928       457.10847    
   9100000   87.743163      124.32526      421.29846    
   9110000   77.444843      134.69873      456.45084    
   9120000   59.861795      119.61845      405.3486     
   9130000   78.950006      128.78839      436.42258    
   9140000   75.192233      108.44353      367.48039    
   9150000   81.545631      117.83211      399.29527    
   9160000   76.594401      134.98622      457.42505    
   9170000   84.002891      130.10882      440.8971     
   9180000   88.613341      129.38356      438.43943    
   9190000   89.001411      109.52308      371.13864    
   9200000   92.712396      106.559        361.09431    
   9210000   67.541872      138.75495      470.19607    
   9220000   71.781156      148.22153      502.27528    
   9230000   72.724491      141.49331      479.47548    
   9240000   87.789144      128.84416      436.61159    
   9250000   78.410919      128.52524      435.53086    
   9260000   87.674431      124.56028      422.09488    
   9270000   85.939231      131.94895      447.13272    
   9280000   75.851674      137.36667      465.49162    
   9290000   82.072654      156.9578       531.87968    
   9300000   96.884955      134.25383      454.94321    
   9310000   91.534216      142.23509      481.98915    
   9320000   89.884138      141.09025      478.10965    
   9330000   95.549492      135.15063      457.98219    
   9340000   87.800883      135.66967      459.74102    
   9350000   88.366889      115.00197      389.70482    
   9360000   88.114193      128.00431      433.7656     
   9370000   66.996625      122.13264      413.8684     
   9380000   73.750632      126.34352      428.13769    
   9390000   84.074622      134.38709      455.39478    
   9400000   76.514808      134.14283      454.56708    
   9410000   87.157738      122.43471      414.89199    
   9420000   82.547074      130.37687      441.80543    
   9430000   85.378988      133.42834      452.14588    
   9440000   82.117795      136.21733      461.59689    
   9450000   68.498993      121.20759      410.73368    
   9460000   77.460733      116.4212       394.51414    
   9470000   90.674068      120.98562      409.98149    
   9480000   76.363838      129.89578      440.17518    
   9490000   83.450767      121.61695      412.12086    
   9500000   90.437892      129.9909       440.49751    
   9510000   74.655746      132.4585       448.8594     
   9520000   83.227504      144.93596      491.14151    
   9530000   84.088009      123.107        417.17016    
   9540000   78.439623      137.8792       467.22843    
   9550000   82.658525      129.52228      438.90952    
   9560000   89.21637       120.26316      407.5333     
   9570000   80.32479       106.88424      362.19644    
   9580000   62.616158      117.03807      396.60452    
   9590000   73.312826      122.68617      415.74412    
   9600000   79.44428       134.71482      456.50537    
   9610000   63.318696      139.90575      474.09577    
   9620000   73.566899      124.59086      422.19851    
   9630000   77.707616      114.52514      388.089      
   9640000   79.663957      127.37625      431.63731    
   9650000   84.334632      129.85867      440.04942    
   9660000   84.566269      141.1237       478.223      
   9670000   87.922408      146.11277      495.12935    
   9680000   88.38739       141.7625       480.38769    
   9690000   95.852878      117.01687      396.53267    
   9700000   84.634013      144.02534      488.05573    
   9710000   83.817705      141.56758      479.72717    
   9720000   83.636917      153.73202      520.94855    
   9730000   91.327421      146.38547      496.05346    
   9740000   67.824324      143.00766      484.60714    
   9750000   89.618646      131.24134      444.73484    
   9760000   96.583788      122.57352      415.36237    
   9770000   85.627433      135.50049      459.16775    
   9780000   80.056618      140.00231      474.42296    
   9790000   90.296715      125.41373      424.98695    
   9800000   82.406611      126.64799      429.16945    
   9810000   81.504895      127.56376      432.27272    
   9820000   81.655252      143.75737      487.14765    
   9830000   82.337708      111.80796      378.88135    
   9840000   80.400163      124.08462      420.483      
   9850000   83.960727      116.5625       394.99296    
   9860000   90.607577      133.56701      452.61579    
   9870000   93.711784      165.44671      560.64589    
   9880000   86.655013      137.03523      464.3685     
   9890000   80.935654      147.60592      500.18917    
   9900000   85.23007       133.0581       450.89128    
   9910000   82.693047      141.09957      478.14122    
   9920000   105.37642      146.18421      495.37146    
   9930000   86.632529      147.99678      501.51367    
   9940000   119.85907      125.22673      424.35325    
   9950000   86.573248      125.28593      424.55387    
   9960000   78.672859      151.64478      513.87558    
   9970000   96.485064      126.71487      429.3961     
   9980000   82.222406      135.73318      459.95624    
   9990000   85.890551      143.37569      485.85427    
  10000000   85.126055      141.83429      480.63097    
  10010000   75.613577      121.27564      410.96429    
  10020000   89.165006      126.78         429.61681    
  10030000   80.573974      119.36124      404.47701    
  10040000   71.757224      122.72217      415.86613    
  10050000   75.333446      126.46995      428.56614    
  10060000   70.595041      121.7474       412.56294    
  10070000   70.138139      110.6357       374.90894    
  10080000   82.653062      135.77443      460.09605    
  10090000   75.307462      135.99916      460.85758    
  10100000   89.706665      157.7551       534.58147    
  10110000   70.801409      137.4514       465.77875    
  10120000   78.542988      135.53807      459.2951     
  10130000   92.064391      142.65815      483.42274    
  10140000   87.25001       131.59136      445.92097    
  10150000   78.86029       123.98054      420.13033    
  10160000   76.329438      127.97277      433.65872    
  10170000   74.741036      139.97637      474.33507    
  10180000   82.114034      122.42469      414.85804    
  10190000   93.577122      121.91752      413.13942    
  10200000   95.98732       126.59373      428.98559    
  10210000   98.776801      143.98471      487.91804    
  10220000   85.771272      147.71695      500.5654     
  10230000   90.607031      147.02296      498.2137     
  10240000   107.42528      144.10158      488.31409    
  10250000   89.668905      150.83647      511.13647    
  10260000   94.005366      145.72751      493.82384    
  10270000   89.83444       121.98472      413.36714    
  10280000   82.965889      135.62161      459.57818    
  10290000   92.857888      140.38455      475.71826    
  10300000   87.313857      137.28135      465.2025     
  10310000   68.951715      159.62605      540.92153    
  10320000   79.875524      138.91396      470.7349     
  10330000   77.694579      125.80361      426.30813    
  10340000   88.709621      138.59305      469.64745    
  10350000   86.835258      143.23081      485.36332    
  10360000   83.332203      134.55362      455.95909    
  10370000   93.254088      136.83664      463.69552    
  10380000   75.378978      134.42874      455.53591    
  10390000   85.907277      105.68651      358.13773    
  10400000   76.551609      154.80949      524.59977    
  10410000   75.145161      144.29265      488.96155    
  10420000   82.027936      125.22136      424.33507    
  10430000   74.061302      148.27452      502.45484    
  10440000   92.214139      137.99536      467.62205    
  10450000   89.860209      137.81471      467.00989    
  10460000   81.584328      133.25379      451.55439    
  10470000   95.888722      127.6251       432.48058    
  10480000   89.840792      120.62848      408.77125    
  10490000   86.416548      125.61889      425.68217    
  10500000   82.951539      123.26736      417.71359    
  10510000   76.651357      130.47917      442.1521     
  10520000   77.968356      116.88746      396.09416    
  10530000   88.761449      124.77133      422.81006    
  10540000   73.936227      119.77204      405.86906    
  10550000   86.891334      140.71929      476.85257    
  10560000   84.214409      157.66883      534.28913    
  10570000   74.847123      150.60949      510.3673     
  10580000   66.659142      119.85406      406.14701    
  10590000   79.09452       127.04529      430.51577    
  10600000   68.204852      155.17679      525.84442    
  10610000   100.5079       132.34193      448.46439    
  10620000   99.340898      123.36513      418.04491    
  10630000   90.880565      134.71321      456.4999     
  10640000   89.922533      130.76235      443.11171    
  10650000   100.76922      132.44893      448.82698    
  10660000   80.269121      134.06952      454.31865    
  10670000   78.706803      164.31994      556.82761    
  10680000   74.237704      148.97436      504.82636    
  10690000   79.198883      124.372        421.45687    
  10700000   79.717433      131.86618      446.85222    
  10710000   66.842291      158.78156      538.05981    
  10720000   60.75888       143.81367      487.33844    
  10730000   76.123873      151.15557      512.21778    
  10740000   74.525059      128.13826      434.21949    
  10750000   72.797437      134.79496      456.77693    
  10760000   54.216039      149.48823      506.5677     
  10770000   68.373039      123.38581      418.11498    
  10780000   70.532319      144.86967      490.91688    
  10790000   73.414379      135.33132      458.59446    
  10800000   78.122943      118.85437      402.75937    
  10810000   83.976856      124.67218      422.47407    
  10820000   88.368003      118.24246      400.68582    
  10830000   87.428953      138.10871      468.00615    
  10840000   73.044781      142.64973      483.39421    
  10850000   78.406661      141.94785      481.01578    
  10860000   77.586418      137.45554      465.79279    
  10870000   67.50667       143.19034      485.22617    
  10880000   64.869856      147.00257      498.14461    
  10890000   74.735201      135.75321      460.02413    
  10900000   75.476108      131.41581      445.32606    
  10910000   88.091472      129.33529      438.27585    
  10920000   73.27418       132.82403      450.09807    
  10930000   63.464161      125.7165       426.01294    
  10940000   69.442007      157.26433      532.91841    
  10950000   76.710409      138.44798      469.15585    
  10960000   90.102985      156.61565      530.72024    
  10970000   68.399961      134.86685      457.02054    
  10980000   84.855316      132.25743      448.17807    
  10990000   91.990459      139.56763      472.94999    
  11000000   89.444432      152.33402      516.21118    
  11010000   87.006241      145.5021       493.05999    
  11020000   79.992893      125.25525      424.4499     
  11030000   83.826816      136.1411       461.33855    
  11040000   76.996395      119.08964      403.55661    
  11050000   91.29443       139.42106      472.45331    
  11060000   85.431677      138.7762       470.26808    
  11070000   91.237684      136.79669      463.56014    
  11080000   89.611817      122.94188      416.61064    
  11090000   81.530819      131.56872      445.84422    
  11100000   82.058525      148.53502      503.33759    
  11110000   89.117968      136.09271      461.1746     
  11120000   83.811387      142.36474      482.42849    
  11130000   77.769763      133.4296       452.15017    
  11140000   101.69781      131.02974      444.01781    
  11150000   92.063604      135.43584      458.94866    
  11160000   97.390682      147.58076      500.10391    
  11170000   97.546594      138.28373      468.59924    
  11180000   93.943451      156.69504      530.9893     
  11190000   87.678039      131.1688       444.48905    
  11200000   79.114143      141.33082      478.92487    
  11210000   79.225103      141.89392      480.83302    
  11220000   96.032784      127.57392      432.30712    
  11230000   98.161331      138.24143      468.45591    
  11240000   89.671421      128.14739      434.25043    
  11250000   86.563796      141.95552      481.04175    
  11260000   100.77463      132.60794      449.36581    
  11270000   103.98694      163.80763      555.09156    
  11280000   90.208663      146.49673      496.43049    
  11290000   83.677531      154.17626      522.45394    
  11300000   78.641491      146.05369      494.92915    
  11310000   83.616127      140.61481      476.49855    
  11320000   82.137745      144.24603      488.80356    
  11330000   93.588727      147.0276       498.22943    
  11340000   89.236496      139.59296      473.03582    
  11350000   95.853455      151.73925      514.19569    
  11360000   80.888548      137.76488      466.84103    
  11370000   78.145362      143.58738      486.57163    
  11380000   93.296365      150.18528      508.92979    
  11390000   80.904409      144.96494      491.23972    
  11400000   74.062542      157.46492      533.59815    
  11410000   92.46468       139.51326      472.76574    
  11420000   88.525456      135.75658      460.03555    
  11430000   90.388702      148.93854      504.70498    
  11440000   87.108082      140.38001      475.70289    
  11450000   94.71628       143.69842      486.94789    
  11460000   101.59699      148.13086      501.96801    
  11470000   57.365251      135.02932      457.57108    
  11480000   91.562192      143.43816      486.06596    
  11490000   78.09627       133.6139       452.7747     
  11500000   85.901764      136.88446      463.85758    
  11510000   89.462871      145.38408      492.66007    
  11520000   79.509873      135.64555      459.65932    
  11530000   92.425065      130.90473      443.59419    
  11540000   93.429032      148.42119      502.95186    
  11550000   109.24513      163.35144      553.54569    
  11560000   96.064342      161.86095      548.49491    
  11570000   81.237854      158.56855      537.33801    
  11580000   88.589404      145.73077      493.83488    
  11590000   98.560603      124.54867      422.05553    
  11600000   84.58433       148.34535      502.69487    
  11610000   88.473186      136.76702      463.4596     
  11620000   85.142898      136.46778      462.44558    
  11630000   90.921817      140.41189      475.81089    
  11640000   97.847598      130.24299      441.35177    
  11650000   77.464106      145.71247      493.77287    
  11660000   77.654394      137.86088      467.16635    
  11670000   88.952237      151.0094       511.72246    
  11680000   82.043216      140.83259      477.23651    
  11690000   95.189429      149.6759       507.20367    
  11700000   103.02049      154.898        524.8997     
  11710000   84.379941      163.93249      555.51466    
  11720000   101.07766      136.38226      462.15578    
  11730000   91.295861      156.97923      531.95231    
  11740000   112.41597      142.9756       484.49849    
  11750000   100.70379      148.03351      501.63813    
  11760000   118.57555      152.64505      517.26518    
  11770000   85.583776      155.06182      525.45482    
  11780000   78.242718      160.68797      544.52004    
  11790000   80.723551      137.25372      465.10888    
  11800000   94.780878      148.31104      502.5786     
  11810000   94.642659      143.74119      487.09283    
  11820000   94.144208      169.32644      573.79306    
  11830000   99.144922      157.50159      533.72241    
  11840000   97.799187      164.47905      557.3668     
  11850000   81.926906      160.24773      543.0282     
  11860000   92.258232      163.51815      554.11062    
  11870000   93.442995      145.13993      491.83273    
  11880000   89.181176      150.46801      509.88786    
  11890000   94.89747       167.12337      566.32754    
  11900000   111.10336      158.86074      538.32816    
  11910000   84.770564      161.26264      546.46742    
  11920000   100.42108      162.28854      549.94386    
  11930000   91.768891      166.98134      565.84627    
  11940000   88.974225      167.14473      566.39991    
  11950000   79.158906      165.03119      559.23784    
  11960000   97.928687      141.62902      479.93538    
  11970000   99.152131      135.68354      459.78803    
  11980000   101.06177      135.68443      459.79105    
  11990000   92.397818      144.13841      488.43889    
  12000000   98.482024      150.87005      511.25025    
Loop time of 406.598 on 1 procs for 8000000 steps with 100 atoms

Performance: 16999.590 ns/day, 0.001 hours/ns, 19675.451 timesteps/s, 1.968 Matom-step/s
99.5% CPU use with 1 MPI tasks x 1 OpenMP threads

MPI task timing breakdown:
Section |  min time  |  avg time  |  max time  |%varavg| %total
---------------------------------------------------------------
Pair    | 319.99     | 319.99     | 319.99     |   0.0 | 78.70
Bond    | 51.625     | 51.625     | 51.625     |   0.0 | 12.70
Neigh   | 5.1693     | 5.1693     | 5.1693     |   0.0 |  1.27
Comm    | 5.4479     | 5.4479     | 5.4479     |   0.0 |  1.34
Output  | 0.24197    | 0.24197    | 0.24197    |   0.0 |  0.06
Modify  | 22.19      | 22.19      | 22.19      |   0.0 |  5.46
Other   |            | 1.931      |            |       |  0.47

Nlocal:            100 ave         100 max         100 min
Histogram: 1 0 0 0 0 0 0 0 0 0
Nghost:              0 ave           0 max           0 min
Histogram: 1 0 0 0 0 0 0 0 0 0
Neighs:            295 ave         295 max         295 min
Histogram: 1 0 0 0 0 0 0 0 0 0

Total # of neighbors = 295
Ave neighs/atom = 2.95
Ave special neighs/atom = 5.88
Neighbor list builds = 23501
Dangerous builds = 0

  # Hold at 500
  variable seedHH equal 45000+${c}
  variable seedHH equal 45000+1
  unfix fxl
  fix fxl all langevin ${T_high} ${T_high} 100000.0 ${seedHH}
  fix fxl all langevin 500 ${T_high} 100000.0 ${seedHH}
  fix fxl all langevin 500 500 100000.0 ${seedHH}
  fix fxl all langevin 500 500 100000.0 45001
  run ${n_holdH}
  run 8000000
Generated 0 of 6 mixed pair_coeff terms from geometric mixing rule
Per MPI rank memory allocation (min/avg/max) = 9.633 | 9.633 | 9.633 Mbytes
   Step         PotEng         KinEng          Temp     
  12000000   98.482024      150.87005      511.25025    
  12010000   93.240939      154.0292       521.9556     
  12020000   91.642282      157.20898      532.73087    
  12030000   96.439292      152.17664      515.67788    
  12040000   93.931492      182.07586      616.99676    
  12050000   80.163253      154.56639      523.77598    
  12060000   102.28525      160.24449      543.01724    
  12070000   87.138672      135.25173      458.32476    
  12080000   82.835995      143.59353      486.59247    
  12090000   103.77909      160.83408      545.01516    
  12100000   92.325233      186.96757      633.57319    
  12110000   98.141536      156.26059      529.51708    
  12120000   96.039941      141.96975      481.09       
  12130000   92.275321      156.32227      529.72609    
  12140000   102.69081      163.7306       554.83052    
  12150000   100.46931      134.29445      455.08087    
  12160000   99.209663      145.4044       492.72893    
  12170000   89.988649      164.29169      556.73191    
  12180000   94.756998      139.86043      473.94218    
  12190000   95.147094      153.08295      518.74906    
  12200000   93.950102      147.301        499.1559     
  12210000   107.91074      156.53026      530.4309     
  12220000   82.676895      166.06686      562.74739    
  12230000   108.02137      137.55999      466.14672    
  12240000   100.93896      156.06388      528.85048    
  12250000   92.785228      144.48848      489.62515    
  12260000   97.819367      152.6013       517.1169     
  12270000   103.42325      145.59045      493.35937    
  12280000   104.87908      142.82081      483.97397    
  12290000   92.901812      134.00127      454.08738    
  12300000   101.49272      118.56432      401.77649    
  12310000   102.62512      132.77245      449.92328    
  12320000   102.13441      156.00716      528.65827    
  12330000   80.199499      165.07152      559.37448    
  12340000   94.271472      166.34805      563.70022    
  12350000   124.8015       133.94201      453.88655    
  12360000   79.293667      148.02923      501.62362    
  12370000   97.135886      144.70387      490.35504    
  12380000   101.3561       149.321        506.00104    
  12390000   95.184869      155.54098      527.07853    
  12400000   102.83067      137.71261      466.66389    
  12410000   90.81248       129.85183      440.02623    
  12420000   99.773541      146.11487      495.13648    
  12430000   88.850794      146.89828      497.79121    
  12440000   102.61042      154.19457      522.51598    
  12450000   96.335867      141.12595      478.23061    
  12460000   100.65329      150.98037      511.62411    
  12470000   117.16688      155.49269      526.91489    
  12480000   100.4716       154.66286      524.10286    
  12490000   91.463437      162.00074      548.96859    
  12500000   91.065192      162.00237      548.97413    
  12510000   86.035599      149.95399      508.14602    
  12520000   118.22417      155.02849      525.34186    
  12530000   110.50201      137.26082      465.13292    
  12540000   97.415051      151.94071      514.87838    
  12550000   84.839669      159.86688      541.73763    
  12560000   87.663329      135.14347      457.95791    
  12570000   110.0842       142.78396      483.84909    
  12580000   92.946074      127.07779      430.62592    
  12590000   91.022408      155.60739      527.30358    
  12600000   98.117549      165.24158      559.95077    
  12610000   127.13105      154.97597      525.16391    
[...]
 404760000  -24.805542      94.357077      319.7459     
 404770000  -18.412561      89.434252      303.06402    
 404780000  -12.940945      84.912002      287.73957    
 404790000  -7.7115839      94.329906      319.65383    
 404800000  -8.3622006      99.012969      335.52323    
 404810000   14.568884      91.887041      311.37574    
 404820000   8.6577341      96.069769      325.54966    
 404830000   10.904391      87.298839      295.82779    
 404840000  -9.6009588      102.24119      346.46263    
 404850000  -19.05125       92.187199      312.39288    
 404860000  -13.376369      94.728946      321.00604    
 404870000  -13.669443      89.509014      303.31737    
 404880000  -12.401904      74.685281      253.08449    
 404890000  -18.172015      85.978677      291.35419    
 404900000  -28.851944      92.238457      312.56657    
 404910000  -16.943191      94.509605      320.26277    
 404920000  -1.8518073      82.974294      281.17329    
 404930000  -7.8702759      91.756946      310.93489    
 404940000  -13.130451      92.44369       313.26204    
 404950000  -17.450506      97.095332      329.02497    
 404960000  -21.321156      96.653809      327.52879    
 404970000  -19.076283      99.358966      336.6957     
 404980000  -18.332808      88.322971      299.29825    
 404990000  -15.522101      88.62294       300.31475    
 405000000  -4.3793253      91.2701        309.28512    
 405010000  -23.351931      97.254057      329.56284    
 405020000  -11.991992      88.768165      300.80687    
 405030000  -15.82758       98.158601      332.62804    
 405040000  -4.6310591      108.25159      366.82995    
 405050000  -3.7207346      98.424556      333.52928    
 405060000   0.85639823     109.08046      369.63872    
 405070000  -3.668519       100.11159      339.24609    
 405080000   12.051857      76.397028      258.88505    
 405090000  -9.7903568      86.870058      294.37479    
 405100000  -15.184124      80.267518      272.0009     
 405110000  -18.506115      88.922323      301.32926    
 405120000  -2.9205692      80.1302        271.53557    
 405130000  -14.448857      93.487287      316.79846    
 405140000  -21.588775      79.457763      269.2569     
 405150000  -26.092489      97.199531      329.37806    
 405160000  -18.760063      80.171241      271.67465    
 405170000  -34.501656      80.87708       274.06651    
 405180000  -52.904062      93.049712      315.31566    
 405190000  -37.450093      73.611608      249.44615    
 405200000  -32.745722      85.543944      289.88102    
 405210000  -27.262459      91.021935      308.44417    
 405220000  -32.224355      89.463003      303.16145    
 405230000  -28.018334      90.570375      306.91398    
 405240000  -23.547413      85.956932      291.2805     
 405250000  -18.924024      88.725503      300.6623     
 405260000  -24.270447      87.364798      296.0513     
 405270000  -4.8962907      83.891578      284.28167    
 405280000   12.891687      76.40093       258.89827    
 405290000  -4.7025176      88.997253      301.58317    
 405300000  -32.051541      91.080905      308.644      
 405310000  -22.617692      78.747254      266.84921    
 405320000  -8.9583318      92.222621      312.51291    
 405330000  -11.930539      95.125667      322.3504     
 405340000  -11.207472      82.759003      280.44374    
 405350000  -18.305098      91.475258      309.98034    
 405360000  -8.4431432      84.466718      286.23064    
 405370000  -21.111114      93.865956      318.08165    
 405380000  -6.6388268      84.375772      285.92245    
 405390000  -9.400465       85.415441      289.44556    
 405400000  -7.0965382      87.564444      296.72784    
 405410000  -21.610152      94.826393      321.33626    
 405420000  -30.025693      95.209339      322.63394    
 405430000  -28.710059      83.793141      283.9481     
 405440000  -20.381408      78.199687      264.99368    
 405450000  -23.625417      85.930072      291.18948    
 405460000  -23.715499      77.504869      262.63916    
 405470000  -33.703742      94.6332        320.68159    
 405480000  -29.955759      88.208333      298.90978    
 405490000  -55.670957      93.643271      317.32704    
 405500000  -50.382865      73.729678      249.84625    
 405510000  -35.97708       78.342091      265.47624    
 405520000  -34.891191      90.619275      307.07969    
 405530000  -26.908182      83.178952      281.86682    
 405540000  -8.8648814      78.147237      264.81594    
 405550000  -8.5396315      81.820641      277.26393    
 405560000  -19.238814      87.420007      296.23839    
 405570000  -24.380208      107.26199      363.47652    
 405580000  -18.67744       97.46746       330.28599    
 405590000  -30.787495      91.023109      308.44815    
 405600000  -36.857719      79.557         269.59318    
 405610000  -17.363902      80.09412       271.41331    
 405620000  -35.460646      82.597967      279.89804    
 405630000  -27.136083      82.893782      280.90047    
 405640000  -32.941621      91.326807      309.47728    
 405650000  -16.32999       87.403943      296.18396    
 405660000  -28.04142       98.674027      334.37466    
 405670000  -30.825866      94.427946      319.98605    
 405680000  -21.697233      85.133436      288.48994    
 405690000  -17.647896      82.966278      281.14613    
 405700000  -20.634091      82.901666      280.92718    
 405710000  -23.701134      95.96856       325.2067     
 405720000  -3.8227684      89.801823      304.3096     
 405730000  -7.8424668      88.675313      300.49222    
 405740000  -24.395805      84.777237      287.28289    
 405750000  -24.696252      92.227599      312.52978    
 405760000  -17.471853      84.302085      285.67275    
 405770000  -30.581694      93.881923      318.13575    
 405780000  -30.959669      92.467246      313.34187    
 405790000  -27.627236      97.274029      329.63052    
 405800000  -12.768562      87.947773      298.02682    
 405810000  -5.0474789      88.272202      299.12621    
 405820000   7.8522435      93.724832      317.60342    
 405830000   14.752316      79.762842      270.29071    
 405840000   4.7179587      94.770558      321.14705    
 405850000   3.246416       97.993912      332.06997    
 405860000   6.533943       93.61855       317.24327    
 405870000  -2.1374445      101.08542      342.5461     
 405880000  -18.628973      106.30345      360.22834    
 405890000  -22.931093      110.62867      374.88511    
 405900000  -26.298494      79.290741      268.69091    
 405910000  -37.780526      81.343025      275.64545    
 405920000  -17.819941      75.387035      255.4625     
 405930000  -27.42904       85.229282      288.81473    
 405940000  -22.839964      84.62635       286.77158    
 405950000  -14.833109      99.179478      336.08747    
 405960000  -9.2224408      95.962612      325.18654    
 405970000  -11.854307      86.71029       293.83339    
 405980000  -9.4389697      96.582892      327.28847    
 405990000   12.54224       78.971866      267.61035    
 406000000  -21.026211      96.948611      328.52778    
 406010000  -21.180895      91.756559      310.93358    
 406020000  -9.7749598      93.907948      318.22394    
 406030000   2.1649264      93.505348      316.85966    
 406040000  -15.512764      94.639674      320.70353    
 406050000  -25.537268      89.909653      304.67501    
 406060000  -8.2699124      74.186473      251.39419    
 406070000  -25.80657       89.849257      304.47034    
 406080000  -26.977488      85.527558      289.82549    
 406090000  -28.843665      90.008269      305.00918    
 406100000  -16.661981      96.474354      326.92067    
 406110000  -23.351767      89.408047      302.97522    
 406120000  -39.971105      79.856071      270.60664    
 406130000  -41.261358      87.702631      297.19611    
 406140000  -12.48521       86.794728      294.11952    
 406150000  -18.056667      96.471148      326.90981    
 406160000  -17.430645      73.134628      247.82982    
 406170000  -24.882252      80.97772       274.40755    
 406180000  -26.375261      80.290062      272.07729    
 406190000  -38.605813      89.893416      304.61998    
 406200000  -28.812981      82.316131      278.94299    
 406210000  -47.765439      91.75755       310.93693    
 406220000  -44.99058       104.22502      353.18519    
 406230000  -32.753897      77.562937      262.83594    
 406240000  -32.159315      90.825182      307.77744    
 406250000  -11.9635        94.383589      319.83574    
 406260000  -3.2107076      87.105053      295.17111    
 406270000  -28.28364       90.942176      308.17389    
 406280000  -28.925807      88.502493      299.90659    
 406290000  -20.558511      88.856261      301.1054     
 406300000  -13.12668       80.546465      272.94616    
 406310000  -25.019642      88.912889      301.29729    
 406320000  -23.857992      95.369616      323.17707    
 406330000  -6.7211382      99.474249      337.08635    
 406340000  -9.736444       88.294723      299.20252    
 406350000  -18.470716      106.93358      362.36365    
 406360000  -10.553976      89.468899      303.18143    
 406370000  -11.662437      99.427826      336.92904    
 406380000  -17.33056       91.823329      311.15984    
 406390000  -5.6703287      89.866446      304.52859    
 406400000  -21.572145      85.599806      290.07031    
 406410000  -34.311974      97.861996      331.62295    
 406420000  -11.159794      89.592114      303.59896    
 406430000  -19.680919      100.1787       339.47353    
 406440000  -40.135062      93.323718      316.24418    
 406450000  -28.416383      83.804169      283.98547    
 406460000  -22.941044      83.812069      284.01224    
 406470000  -31.762524      82.408517      279.25606    
 406480000  -30.477974      97.262966      329.59303    
 406490000  -20.549351      88.601566      300.24232    
 406500000  -24.934125      103.96955      352.31951    
 406510000  -13.149216      83.466474      282.84113    
 406520000  -18.400154      88.795765      300.90039    
 406530000  -14.138758      86.213834      292.15106    
 406540000  -21.618186      85.981903      291.36512    
 406550000  -26.166794      82.659475      280.10648    
 406560000  -26.35487       94.375923      319.80976    
 406570000  -33.226113      89.879594      304.57314    
 406580000  -8.9861197      82.535964      279.68794    
 406590000  -18.426465      79.123143      268.12298    
 406600000  -16.764259      80.488214      272.74876    
 406610000  -18.811516      92.601706      313.79751    
 406620000  -10.854118      84.390507      285.97239    
 406630000  -13.942481      101.23388      343.0492     
 406640000  -19.148753      96.309892      326.36336    
 406650000  -9.3713763      87.345056      295.98441    
 406660000  -22.044579      82.436358      279.3504     
 406670000  -39.154955      89.965737      304.86505    
 406680000  -45.186383      94.475968      320.14878    
 406690000  -22.324121      87.790781      297.49482    
 406700000  -31.341823      87.396005      296.15706    
 406710000  -33.920311      81.435154      275.95764    
 406720000  -10.457009      81.662355      276.72755    
 406730000  -5.4537845      99.254527      336.34179    
 406740000  -33.810364      97.429364      330.1569     
 406750000  -41.612169      92.018146      311.82001    
 406760000  -27.57283       77.530506      262.72604    
 406770000  -19.122407      77.650332      263.13209    
 406780000  -18.631587      74.970944      254.05251    
 406790000  -16.417922      92.349902      312.94422    
 406800000  -13.682318      92.549955      313.62214    
 406810000  -10.224652      93.445247      316.656      
 406820000  -2.8048447      85.06758       288.26677    
 406830000  -7.4064898      85.173495      288.62568    
 406840000   0.52550232     89.108877      301.96143    
 406850000  -19.393574      90.141861      305.46188    
 406860000  -7.243314       98.397277      333.43684    
 406870000  -18.000252      98.778379      334.72827    
 406880000  -1.8922736      101.22994      343.03583    
 406890000  -10.157443      95.09736       322.25448    
 406900000  -19.811808      102.82166      348.42967    
 406910000  -17.145408      93.267455      316.05352    
 406920000  -31.669184      96.963645      328.57872    
 406930000  -17.187983      83.513233      282.99959    
 406940000  -25.20007       83.122458      281.67537    
 406950000  -23.389223      95.161619      322.47223    
 406960000   1.4898679      92.895161      314.79193    
 406970000  -1.1829144      96.519565      327.07388    
 406980000  -11.748415      100.07222      339.11269    
 406990000  -4.1272204      93.412096      316.54366    
 407000000  -21.747532      87.01749       294.87439    
 407010000  -32.876703      84.17714       285.24935    
 407020000  -15.896396      80.525992      272.87678    
 407030000  -20.790776      83.970251      284.54827    
 407040000  -47.346492      92.917586      314.86793    
 407050000  -39.829725      105.00651      355.83342    
 407060000  -28.55209       95.198839      322.59836    
 407070000  -15.621703      84.34191       285.80771    
 407080000  -25.806461      82.54292       279.71151    
 407090000  -15.856383      93.334518      316.28077    
 407100000  -15.266811      93.380239      316.43571    
 407110000  -20.456427      94.929181      321.68458    
 407120000  -22.926388      92.21643       312.49193    
 407130000  -27.667291      93.057974      315.34365    
 407140000  -13.72759       83.621528      283.36656    
 407150000  -40.504474      93.49478       316.82385    
 407160000  -39.098         81.713609      276.90124    
 407170000  -33.627053      92.089752      312.06266    
 407180000  -28.391651      96.666185      327.57072    
 407190000  -39.388484      81.033073      274.59512    
 407200000  -43.015585      81.222627      275.23746    
 407210000  -37.461596      86.745056      293.9512     
 407220000  -21.832701      88.617283      300.29558    
 407230000  -29.692695      91.728466      310.83838    
 407240000  -32.512826      97.626499      330.82492    
 407250000  -29.510183      92.78572       314.42107    
 407260000  -26.107555      80.752765      273.64524    
 407270000  -34.308873      93.959681      318.39925    
 407280000  -8.2254589      79.063032      267.91928    
 407290000  -23.934761      90.453303      306.51726    
 407300000  -19.747918      83.396133      282.60277    
 407310000  -12.321729      99.534224      337.28959    
 407320000  -35.87341       93.765804      317.74226    
 407330000  -29.936132      86.64794       293.6221     
 407340000  -25.069341      82.143036      278.35643    
 407350000  -12.565381      96.828551      328.12093    
 407360000  -14.322914      89.892644      304.61737    
 407370000  -5.0723378      93.498657      316.83699    
 407380000  -16.467582      93.813019      317.90226    
 407390000  -17.006712      83.580636      283.22799    
 407400000  -8.4288475      64.332594      218.00254    
 407410000  -27.279011      91.96486       311.63944    
 407420000  -23.184828      95.00878       321.95431    
 407430000  -15.451917      90.063749      305.19719    
 407440000  -17.050428      97.58407       330.68114    
 407450000  -28.030223      94.25037       319.3843     
 407460000  -10.902224      84.800418      287.36144    
 407470000  -13.135132      93.624848      317.26461    
 407480000  -13.469481      92.835215      314.5888     
 407490000  -14.429408      89.355686      302.79779    
 407500000  -23.883141      88.284802      299.1689     
 407510000  -25.947702      87.530476      296.61274    
 407520000  -24.614071      85.188993      288.6782     
 407530000  -33.586104      85.590837      290.03992    
 407540000  -22.992811      79.802437      270.42489    
 407550000  -47.122438      86.837005      294.26278    
 407560000  -36.072496      89.718642      304.02773    
 407570000  -22.992906      76.193704      258.19605    
 407580000  -29.967327      100.73553      341.36044    
 407590000  -31.825502      85.199304      288.71314    
 407600000  -23.366875      88.068216      298.43497    
 407610000  -19.477521      93.691043      317.48892    
 407620000  -16.326635      84.916013      287.75316    
 407630000  -14.505833      89.832294      304.41286    
 407640000  -1.7671713      83.626046      283.38187    
 407650000  -22.156495      102.84127      348.49611    
 407660000  -34.722652      106.29982      360.21602    
 407670000  -17.470479      81.05599       274.67278    
 407680000  -17.957805      86.862796      294.35018    
 407690000  -24.129381      91.504391      310.07906    
 407700000  -24.601068      81.238992      275.29291    
 407710000  -14.551458      88.974476      301.50599    
 407720000  -11.153891      82.675657      280.16131    
 407730000  -16.209716      77.226869      261.69711    
 407740000  -33.293075      84.76715       287.24871    
 407750000  -23.15274       93.344143      316.31339    
 407760000  -11.541029      86.472583      293.02788    
 407770000  -31.353073      100.33878      340.01599    
 407780000  -22.436005      85.564701      289.95135    
 407790000  -35.579055      89.564134      303.50415    
 407800000  -38.091313      81.508573      276.20644    
 407810000  -27.726847      88.740848      300.7143     
 407820000  -26.068593      84.696678      287.0099     
 407830000  -14.902456      75.747982      256.68564    
 407840000  -21.123337      80.91156       274.18335    
 407850000  -15.835345      99.839788      338.32505    
 407860000  -31.585064      86.587944      293.4188     
 407870000  -24.138817      86.392185      292.75543    
 407880000  -28.323049      85.272631      288.96162    
 407890000  -44.261501      85.806497      290.77072    
 407900000  -31.611992      83.050681      281.43215    
 407910000  -20.794316      93.474406      316.75481    
 407920000  -42.414595      88.720613      300.64573    
 407930000  -35.641924      92.845535      314.62377    
 407940000  -36.973511      95.892838      324.9501     
 407950000  -29.280237      92.807282      314.49414    
 407960000  -31.382667      97.025917      328.78974    
 407970000  -31.265089      86.901657      294.48187    
 407980000  -31.096463      100.56852      340.79449    
 407990000  -16.971642      98.143382      332.57647    
 408000000  -10.686734      83.081314      281.53595    
Loop time of 433.72 on 1 procs for 4000000 steps with 100 atoms

Performance: 7968.283 ns/day, 0.003 hours/ns, 9222.550 timesteps/s, 922.255 katom-step/s
99.4% CPU use with 1 MPI tasks x 1 OpenMP threads

MPI task timing breakdown:
Section |  min time  |  avg time  |  max time  |%varavg| %total
---------------------------------------------------------------
Pair    | 385.79     | 385.79     | 385.79     |   0.0 | 88.95
Bond    | 28.145     | 28.145     | 28.145     |   0.0 |  6.49
Neigh   | 2.4027     | 2.4027     | 2.4027     |   0.0 |  0.55
Comm    | 3.5546     | 3.5546     | 3.5546     |   0.0 |  0.82
Output  | 0.11522    | 0.11522    | 0.11522    |   0.0 |  0.03
Modify  | 11.959     | 11.959     | 11.959     |   0.0 |  2.76
Other   |            | 1.749      |            |       |  0.40

Nlocal:            100 ave         100 max         100 min
Histogram: 1 0 0 0 0 0 0 0 0 0
Nghost:              0 ave           0 max           0 min
Histogram: 1 0 0 0 0 0 0 0 0 0
Neighs:           1065 ave        1065 max        1065 min
Histogram: 1 0 0 0 0 0 0 0 0 0

Total # of neighbors = 1065
Ave neighs/atom = 10.65
Ave special neighs/atom = 5.88
Neighbor list builds = 8846
Dangerous builds = 0

write_data outputs/${tag}_final.data
write_data outputs/config_17_len100_07.dat_final.data
System init for write_data ...
Generated 0 of 6 mixed pair_coeff terms from geometric mixing rule
Total wall time: 7:17:16
