
# ===============================
# FORCE FIELD
# ===============================
bond_style harmonic
bond_coeff 1 7.5 5.9

angle_style harmonic
angle_coeff 1 5.0 150.0

pair_style hybrid/overlay lj/cut 10.0 base/rna 18.0
pair_modify shift yes
pair_coeff * * lj/cut 2.0 8.9089871814

# Base-pair interactions
pair_coeff 1 1 base/rna 0.00000 3.0 13.8 1.5 0.5 1.8326 0.9425 1.8326 1.1345
pair_coeff 1 2 base/rna 0.00000 3.0 13.8 1.5 0.5 1.8326 0.9425 1.8326 1.1345
pair_coeff 1 3 base/rna 0.00000 3.0 13.8 1.5 0.5 1.8326 0.9425 1.8326 1.1345
pair_coeff 1 4 base/rna 3.33333 3.0 13.8 1.5 0.5 1.8326 0.9425 1.8326 1.1345
pair_coeff 2 2 base/rna 0.00000 3.0 13.8 1.5 0.5 1.8326 0.9425 1.8326 1.1345
pair_coeff 2 3 base/rna 5.00000 3.0 13.8 1.5 0.5 1.8326 0.9425 1.8326 1.1345
pair_coeff 2 4 base/rna 0.00000 3.0 13.8 1.5 0.5 1.8326 0.9425 1.8326 1.1345
pair_coeff 3 3 base/rna 0.00000 3.0 13.8 1.5 0.5 1.8326 0.9425 1.8326 1.1345
pair_coeff 3 4 base/rna 3.33333 3.0 13.8 1.5 0.5 1.8326 0.9425 1.8326 1.1345
pair_coeff 4 4 base/rna 0.00000 3.0 13.8 1.5 0.5 1.8326 0.9425 1.8326 1.1345

special_bonds lj 0.0 0.0 1.0
Finding 1-2 1-3 1-4 neighbors ...
  special bond factors lj:    0        0        1       
  special bond factors coul:  0        0        0       
     2 = max # of 1-2 neighbors
     2 = max # of 1-3 neighbors
     4 = max # of 1-4 neighbors
     6 = max # of special neighbors
  special bonds CPU = 0.000 seconds
neighbor 15.0 bin
neigh_modify every 10 delay 0
comm_style tiled
timestep 10

# ===============================
# DUMPS
# ===============================
dump d1 all custom ${dump_stride} outputs/${tag}.lammpstrj id mol type q xu yu zu
dump d1 all custom 50000 outputs/${tag}.lammpstrj id mol type q xu yu zu
dump d1 all custom 50000 outputs/config_19_len100_09.dat.lammpstrj id mol type q xu yu zu
dump_modify d1 sort id

# ===============================
# THERMO
# ===============================
thermo_style custom step pe ke temp
thermo ${thermo_stride}
thermo 10000
thermo_modify flush yes

variable vpe equal pe
variable vke equal ke
variable vT  equal temp

fix fa all ave/time ${thermo_stride} 10 ${stride10} v_vpe v_vke v_vT file outputs/thermo_${tag}_averaged.dat
fix fa all ave/time 10000 10 ${stride10} v_vpe v_vke v_vT file outputs/thermo_${tag}_averaged.dat
fix fa all ave/time 10000 10 100000 v_vpe v_vke v_vT file outputs/thermo_${tag}_averaged.dat
fix fa all ave/time 10000 10 100000 v_vpe v_vke v_vT file outputs/thermo_config_19_len100_09.dat_averaged.dat

# ===============================
# EQUILIBRATION (40 ns)
# ===============================
fix fxnve all nve
variable seed0 equal 43001
fix fxl all langevin ${T_eq} ${T_eq} 100000.0 ${seed0}
fix fxl all langevin 298 ${T_eq} 100000.0 ${seed0}
fix fxl all langevin 298 298 100000.0 ${seed0}
fix fxl all langevin 298 298 100000.0 43001

run ${n_eq}
run 4000000

CITE-CITE-CITE-CITE-CITE-CITE-CITE-CITE-CITE-CITE-CITE-CITE-CITE

Your simulation uses code contributions which should be cited:

- Type Label Framework: https://doi.org/10.1021/acs.jpcb.3c08419

@Article{Gissinger24,
 author = {Jacob R. Gissinger, Ilia Nikiforov, Yaser Afshar, Brendon Waters, Moon-ki Choi, Daniel S. Karls, Alexander Stukowski, Wonpil Im, Hendrik Heinz, Axel Kohlmeyer, and Ellad B. Tadmor},
 title = {Type Label Framework for Bonded Force Fields in LAMMPS},
 journal = {J. Phys. Chem. B},
 year =    2024,
 volume =  128,
 number =  13,
 pages =   {3282–-3297}
}

CITE-CITE-CITE-CITE-CITE-CITE-CITE-CITE-CITE-CITE-CITE-CITE-CITE

Generated 0 of 6 mixed pair_coeff terms from geometric mixing rule
Neighbor list info ...
  update: every = 10 steps, delay = 0 steps, check = yes
  max neighbors/atom: 2000, page size: 100000
  master list distance cutoff = 33
  ghost atom cutoff = 33
  binsize = 16.5, bins = 61 61 61
  2 neighbor lists, perpetual/occasional/extra = 2 0 0
  (1) pair lj/cut, perpetual, trim from (2)
      attributes: half, newton on, cut 25
      pair build: trim
      stencil: none
      bin: none
  (2) pair base/rna, perpetual
      attributes: half, newton on
      pair build: half/bin/newton
      stencil: half/bin/3d
      bin: standard
Per MPI rank memory allocation (min/avg/max) = 8.37 | 8.37 | 8.37 Mbytes
   Step         PotEng         KinEng          Temp     
         0   134.33628      0              0            
     10000   54.697583      86.432103      292.8907     
     20000   55.249321      90.190283      305.62597    
     30000   55.360132      80.965817      274.36721    
     40000   35.842801      83.779844      283.90304    
     50000   51.172069      80.393578      272.42808    
     60000   41.188938      86.77746       294.061      
     70000   32.613679      93.234468      315.94174    
     80000   32.068057      82.417183      279.28542    
     90000   16.449644      86.249394      292.27156    
    100000   13.61341       91.321476      309.45922    
    110000   13.290694      88.903962      301.26704    
    120000  -2.0579514      88.703322      300.58713    
    130000  -17.110761      95.020259      321.99321    
    140000  -12.801939      84.941374      287.8391     
    150000  -16.868067      74.356441      251.97015    
    160000  -29.851847      97.703579      331.08612    
    170000  -19.665105      88.552273      300.07528    
    180000  -17.787991      99.98544       338.81862    
    190000  -20.959183      82.054491      278.05638    
    200000  -21.531145      92.369026      313.00903    
    210000  -40.234951      99.608792      337.54228    
    220000  -43.422219      88.114654      298.59233    
    230000  -30.34491       80.823468      273.88484    
    240000  -25.709991      79.941552      270.8963     
    250000  -26.911438      78.797758      267.02035    
    260000  -32.695672      84.190412      285.29433    
    270000  -17.866238      78.313747      265.38019    
    280000  -13.60485       83.716255      283.68756    
    290000  -24.192028      84.530313      286.44615    
    300000  -28.112283      87.892256      297.83869    
    310000  -25.884916      87.561031      296.71628    
    320000  -34.982037      88.633177      300.34944    
    330000  -30.174853      80.065657      271.31686    
    340000  -38.514879      101.69992      344.62844    
    350000  -28.820405      82.754491      280.42845    
    360000  -33.089693      87.705256      297.20501    
    370000  -13.366881      87.649744      297.0169     
    380000  -42.599874      100.55151      340.73684    
    390000  -35.13603       96.24856       326.15553    
    400000  -28.543185      96.724426      327.76809    
    410000  -31.45034       93.154582      315.67103    
    420000  -16.806975      90.61333       307.05954    
    430000  -2.5054583      77.428965      262.38195    
    440000  -29.668465      88.176979      298.80353    
    450000  -11.831861      86.439634      292.91622    
    460000  -22.563958      86.403421      292.79351    
    470000  -40.782945      82.131924      278.31877    
    480000  -34.864588      96.65755       327.54147    
    490000  -17.312843      74.656343      252.98643    
    500000  -24.636209      94.319263      319.61776    
    510000  -42.375864      94.227072      319.30535    
    520000  -25.030432      80.665408      273.34922    
    530000  -17.398815      84.593385      286.65988    
    540000  -23.511178      76.0922        257.85208    
    550000  -17.012162      94.306046      319.57297    
    560000  -23.908661      95.418372      323.34229    
    570000  -15.126363      96.544616      327.15877    
    580000  -19.342975      89.22778       302.36435    
    590000  -9.3058827      81.408689      275.86796    
    600000   9.3386064      90.897358      308.02202    
    610000  -4.8957646      93.337745      316.29171    
    620000  -14.092163      92.386118      313.06695    
    630000  -26.414903      85.235901      288.83716    
    640000  -36.916893      90.444299      306.48675    
    650000  -19.482761      89.272538      302.51603    
    660000  -29.402101      98.615155      334.17516    
    670000  -41.8272        93.218396      315.88727    
    680000  -33.626763      88.820477      300.98413    
    690000  -27.927317      97.845618      331.56745    
    700000  -20.955529      94.4011        319.89508    
    710000  -16.131809      81.371329      275.74136    
    720000  -33.855399      88.787123      300.87111    
    730000  -31.786829      90.90358       308.0431     
    740000  -23.029706      104.13309      352.87367    
    750000  -37.943079      97.410657      330.0935     
    760000  -18.455991      85.246943      288.87457    
    770000  -35.353837      87.698578      297.18238    
    780000  -29.940809      92.759147      314.33103    
    790000  -35.129422      89.755431      304.15239    
    800000  -27.119516      94.25166       319.38867    
    810000  -27.028632      87.124282      295.23627    
    820000  -17.858818      91.417108      309.78328    
    830000  -15.163856      90.256478      305.85028    
    840000  -17.893374      101.97561      345.56266    
    850000  -32.308935      85.880568      291.02172    
    860000  -38.597309      83.963263      284.52459    
    870000  -29.774457      83.899996      284.3102     
    880000  -37.193534      87.850196      297.69616    
    890000  -18.616112      93.626825      317.27131    
    900000  -34.300145      85.723463      290.48935    
    910000  -42.751538      89.231512      302.377      
    920000  -16.621654      92.357071      312.96852    
    930000  -8.335022       100.09262      339.18182    
    940000  -24.943108      91.665847      310.62618    
    950000  -32.82293       92.154072      312.28062    
    960000  -39.668175      97.308738      329.74813    
    970000  -60.28046       92.987335      315.10428    
    980000  -24.661461      82.953702      281.10352    
    990000  -37.218172      83.278029      282.20255    
   1000000  -27.00513       101.0471       342.41623    
   1010000  -34.582488      110.51788      374.50967    
   1020000  -14.984509      84.668966      286.91599    
   1030000  -19.002397      81.848019      277.35671    
   1040000  -8.5310312      83.652866      283.47276    
   1050000  -12.324548      90.010247      305.01589    
   1060000  -23.452384      98.656545      334.31542    
   1070000  -16.465771      102.67484      347.93213    
   1080000  -28.753824      95.146765      322.4219     
   1090000  -35.347585      94.322506      319.62875    
   1100000  -18.397629      91.508397      310.09263    
   1110000  -12.282971      81.379499      275.76904    
   1120000  -37.238795      101.73216      344.73769    
   1130000  -27.21488       95.238875      322.73403    
   1140000  -39.961493      85.145288      288.5301     
   1150000  -32.489282      84.281141      285.60178    
   1160000  -32.891807      98.065429      332.31232    
   1170000  -29.752942      91.274868      309.30128    
   1180000  -34.348387      93.668369      317.41209    
   1190000  -23.324537      92.898007      314.80158    
   1200000  -16.023764      86.887276      294.43314    
   1210000  -22.63228       104.65341      354.63688    
   1220000  -29.246475      97.180482      329.31351    
   1230000  -19.695439      77.586547      262.91595    
   1240000  -30.10236       87.808845      297.55604    
   1250000  -36.153598      90.330447      306.10094    
   1260000  -51.538794      87.602765      296.8577     
   1270000  -31.009793      80.78508       273.75475    
   1280000  -35.246902      85.996324      291.41399    
   1290000  -32.69124       85.878385      291.01433    
   1300000  -34.850069      93.379996      316.43488    
   1310000  -34.795193      84.597885      286.67512    
   1320000  -35.637676      84.453836      286.18699    
   1330000  -31.338237      91.202809      309.05709    
   1340000  -26.973555      82.356377      279.07937    
   1350000  -36.73504       103.29874      350.04634    
   1360000  -32.026622      88.902058      301.26059    
   1370000  -38.127438      86.738016      293.92734    
   1380000  -33.366096      83.626364      283.38295    
   1390000  -41.488635      96.453038      326.84844    
   1400000  -33.310965      84.819817      287.42718    
   1410000  -23.310994      79.348852      268.88783    
   1420000  -37.5491        92.968476      315.04038    
   1430000  -24.340313      77.157146      261.46084    
   1440000  -32.889365      85.474942      289.64719    
   1450000  -48.63888       91.901965      311.42631    
   1460000  -36.122593      85.38855       289.35444    
   1470000  -49.369312      91.764436      310.96027    
   1480000  -32.336312      85.855716      290.93751    
   1490000  -29.267527      73.770585      249.98487    
   1500000  -36.303917      94.120211      318.94324    
   1510000  -31.235798      85.821194      290.82053    
   1520000  -42.705726      91.317391      309.44538    
   1530000  -30.44888       105.50346      357.51743    
   1540000  -37.29801       95.735232      324.41603    
   1550000  -11.78975       87.11729       295.21258    
   1560000  -23.616106      90.279703      305.92899    
   1570000  -20.624697      89.343149      302.7553     
   1580000  -22.772815      97.702564      331.08268    
   1590000  -26.922236      106.9781       362.51452    
   1600000  -31.953171      84.206219      285.34789    
   1610000  -24.895571      84.335212      285.78501    
   1620000  -38.698512      88.877853      301.17857    
   1630000  -38.627978      86.728118      293.8938     
   1640000  -17.966201      93.206733      315.84775    
   1650000  -30.243969      92.772728      314.37705    
   1660000  -21.167665      89.489081      303.24982    
   1670000  -9.4431427      77.685383      263.25087    
   1680000  -26.30543       89.263128      302.48414    
   1690000  -39.715551      91.273482      309.29658    
   1700000  -24.151649      82.969823      281.15814    
   1710000  -37.173339      93.969719      318.43327    
   1720000  -41.995552      91.965772      311.64253    
   1730000  -41.565542      73.659715      249.60917    
   1740000  -39.780849      90.995366      308.35414    
   1750000  -17.787145      82.796705      280.5715     
   1760000  -19.004699      94.740675      321.04579    
   1770000  -31.869303      98.823579      334.88144    
   1780000  -32.982121      91.821258      311.15282    
   1790000  -18.191665      79.458531      269.2595     
   1800000  -39.24915       84.672412      286.92767    
   1810000  -32.081582      98.660752      334.32967    
   1820000  -11.083894      89.025893      301.68022    
   1830000  -14.418761      87.672826      297.09511    
   1840000  -27.816538      99.620078      337.58052    
   1850000  -32.05923       83.245437      282.09211    
   1860000  -35.992419      78.182467      264.93533    
   1870000  -21.016431      86.94921       294.64301    
   1880000  -45.473783      99.862321      338.40141    
   1890000  -30.63634       91.629684      310.50364    
   1900000  -29.803426      82.050689      278.04349    
   1910000  -19.833629      87.722498      297.26344    
   1920000  -38.373552      100.04057      339.00542    
   1930000  -29.870436      85.870948      290.98913    
   1940000  -35.470254      86.206432      292.12597    
   1950000  -33.075328      78.144783      264.80763    
   1960000  -34.659035      84.322513      285.74198    
   1970000  -38.444371      83.718952      283.6967     
   1980000  -35.240924      103.49078      350.69708    
   1990000  -23.790189      95.121109      322.33496    
   2000000  -44.168083      104.75985      354.99757    
   2010000  -30.844847      86.452521      292.95989    
   2020000  -40.996744      87.8958        297.8507     
   2030000  -35.106668      82.807083      280.60667    
   2040000  -34.953145      94.766323      321.1327     
   2050000  -26.549153      91.113993      308.75613    
   2060000  -48.022362      94.487682      320.18848    
   2070000  -35.342443      89.801873      304.30977    
   2080000  -32.413407      94.703252      320.91897    
   2090000  -36.088764      96.28202       326.26891    
   2100000  -44.363711      78.212703      265.03779    
   2110000  -38.240741      86.499053      293.11757    
   2120000  -51.145802      92.193524      312.41431    
   2130000  -38.220049      86.663577      293.67509    
   2140000  -38.459507      81.380384      275.77205    
   2150000  -38.094383      79.528725      269.49736    
   2160000  -67.473299      84.490837      286.31237    
   2170000  -49.237618      80.103324      271.4445     
   2180000  -44.046101      80.508494      272.81749    
   2190000  -55.716918      85.15823       288.57395    
   2200000  -30.974149      92.933362      314.92139    
   2210000  -28.503337      84.026618      284.73928    
   2220000  -41.715996      86.250413      292.27501    
   2230000  -36.532592      95.6776        324.22073    
   2240000  -27.914659      83.214823      281.98837    
   2250000  -24.680179      81.634381      276.63276    
   2260000  -31.769276      97.515749      330.44963    
   2270000  -29.06287       85.802735      290.75797    
   2280000  -24.936362      103.17967      349.64283    
   2290000  -30.908195      95.774055      324.54758    
   2300000  -47.262525      83.688643      283.59399    
   2310000  -37.322097      79.60974       269.7719     
   2320000  -52.933857      90.556559      306.86716    
   2330000  -36.70511       83.165698      281.8219     
   2340000  -28.837528      97.825564      331.49949    
   2350000  -27.440204      95.632793      324.06889    
   2360000  -23.592604      79.087337      268.00164    
   2370000  -26.708258      91.985043      311.70783    
   2380000  -27.845524      91.058155      308.56691    
   2390000  -28.001726      79.83414       270.53232    
   2400000  -32.480198      93.544271      316.99156    
   2410000  -34.733007      84.274028      285.57768    
   2420000  -36.961835      84.427135      286.09651    
   2430000  -39.337289      94.845497      321.401      
   2440000  -32.454929      91.571445      310.30628    
   2450000  -41.6279        93.639         317.31257    
   2460000  -38.98045       90.160147      305.52385    
   2470000  -54.529306      89.527384      303.37962    
   2480000  -49.048755      77.641385      263.10177    
   2490000  -37.823908      77.536819      262.74743    
   2500000  -37.812299      79.892359      270.72961    
   2510000  -46.481792      91.271969      309.29146    
   2520000  -34.119839      89.776817      304.22487    
   2530000  -24.834316      96.970908      328.60334    
   2540000  -34.140933      90.316373      306.05325    
   2550000  -43.917831      95.935835      325.0958     
   2560000  -39.342181      91.822026      311.15542    
   2570000  -40.437875      94.163895      319.09127    
   2580000  -49.451147      91.475954      309.9827     
   2590000  -39.409243      92.124014      312.17876    
   2600000  -40.26832       96.429563      326.76889    
   2610000  -21.728897      78.436223      265.79523    
   2620000  -29.40639       89.665587      303.84794    
   2630000  -24.156358      89.683643      303.90913    
   2640000  -31.063807      87.233941      295.60787    
   2650000  -38.51108       90.847739      307.85388    
   2660000  -28.060979      104.34399      353.58834    
   2670000  -2.3519018      82.622932      279.98264    
   2680000  -25.052315      94.197074      319.2037     
   2690000  -13.969912      78.726387      266.7785     
   2700000  -18.201985      84.597794      286.67482    
   2710000  -30.826187      91.617599      310.46268    
   2720000  -19.206009      80.075999      271.3519     
   2730000  -17.549357      85.015217      288.08933    
   2740000  -20.527926      75.143847      254.63842    
   2750000  -35.184628      93.403875      316.5158     
   2760000  -52.513791      87.164721      295.37331    
   2770000  -53.702892      93.098017      315.47935    
   2780000  -28.77925       85.497486      289.72358    
   2790000  -37.813465      88.556532      300.08971    
   2800000  -34.648221      86.226965      292.19556    
   2810000  -18.707577      74.587208      252.75215    
   2820000  -23.656114      80.899631      274.14292    
   2830000  -47.330861      85.975225      291.34249    
   2840000  -44.0278        97.2342        329.49555    
   2850000  -34.99443       89.806571      304.32569    
   2860000  -19.997302      74.635054      252.91428    
   2870000  -45.250071      85.880789      291.02248    
   2880000  -51.307614      88.619471      300.30299    
   2890000  -34.911761      91.127122      308.80062    
   2900000  -40.866482      86.443004      292.92764    
   2910000  -40.075212      86.686504      293.75278    
   2920000  -46.877458      86.536953      293.246      
   2930000  -30.513752      76.757761      260.10746    
   2940000  -42.633026      99.410697      336.871      
   2950000  -30.960619      81.203688      275.17328    
   2960000  -24.680911      86.403428      292.79353    
   2970000  -46.845788      94.173596      319.12414    
   2980000  -18.8018        92.31772       312.83517    
   2990000  -26.165241      84.920586      287.76866    
   3000000  -37.831213      83.343083      282.423      
   3010000  -57.249909      92.955596      314.99673    
   3020000  -48.515969      84.991562      288.00917    
   3030000  -48.280459      78.427096      265.7643     
   3040000  -56.21651       85.654773      290.25658    
   3050000  -46.153061      87.338921      295.96362    
   3060000  -50.473544      83.656715      283.4858     
   3070000  -47.131611      90.183764      305.60388    
   3080000  -39.839591      92.780272      314.40261    
   3090000  -48.202946      99.253052      336.33679    
   3100000  -31.399523      93.542214      316.98459    
   3110000  -30.626958      89.746835      304.12326    
   3120000  -39.497099      88.862425      301.12628    
   3130000  -37.059675      90.266727      305.88501    
   3140000  -37.960868      99.466118      337.0588     
   3150000  -50.569323      89.061551      301.80106    
   3160000  -56.04953       86.041201      291.56606    
   3170000  -41.951972      79.161367      268.25251    
   3180000  -51.379706      87.122383      295.22984    
   3190000  -53.780001      88.409824      299.59256    
   3200000  -43.780684      87.109167      295.18505    
   3210000  -30.548642      86.328107      292.53829    
   3220000  -20.652601      86.554671      293.30605    
   3230000  -33.37624       83.609918      283.32722    
   3240000  -37.494737      83.408937      282.64616    
   3250000  -44.1095        97.020917      328.7728     
   3260000  -39.502419      92.601         313.79512    
   3270000  -44.758391      79.787752      270.37512    
   3280000  -58.33829       87.507079      296.53345    
   3290000  -46.276646      83.980804      284.58403    
   3300000  -39.087417      83.767914      283.86262    
   3310000  -31.223617      86.031181      291.5321     
   3320000  -36.117337      80.082383      271.37353    
   3330000  -39.138321      93.312375      316.20574    
   3340000  -39.730326      93.324381      316.24642    
   3350000  -54.01765       81.785475      277.14477    
   3360000  -30.239307      85.987377      291.38367    
   3370000  -34.090558      94.09556       318.8597     
   3380000  -39.940226      90.579011      306.94324    
   3390000  -32.968504      96.259965      326.19418    
   3400000  -19.378541      79.792078      270.38978    
   3410000  -40.532256      85.657222      290.26488    
   3420000  -51.298078      80.87457       274.058      
   3430000  -42.550299      76.12117       257.95025    
   3440000  -45.240283      83.375945      282.53436    
   3450000  -43.98157       94.447627      320.05274    
   3460000  -54.051103      96.154331      325.83622    
   3470000  -49.433862      91.582396      310.34339    
   3480000  -45.236653      89.182191      302.20987    
   3490000  -34.819633      89.171431      302.17341    
   3500000  -30.037778      93.647751      317.34222    
   3510000  -23.207837      81.379935      275.77052    
   3520000  -27.162054      78.309938      265.36729    
   3530000  -17.923326      86.132462      291.87532    
   3540000  -14.03876       92.622734      313.86877    
   3550000  -2.489399       94.213467      319.25925    
   3560000  -10.792064      80.299856      272.11048    
   3570000  -15.432838      81.884158      277.47917    
   3580000  -1.2693782      93.418049      316.56384    
   3590000   6.5018649      95.348543      323.10566    
   3600000  -6.3738543      102.62792      347.77313    
   3610000   3.196319       97.66087       330.9414     
   3620000  -3.1378258      117.57911      398.43793    
   3630000  -3.9584105      104.68344      354.73865    
   3640000  -18.932769      90.670312      307.25263    
   3650000  -10.05653       88.324938      299.30491    
   3660000  -19.133304      99.73369       337.96552    
   3670000  -23.624243      87.762173      297.39788    
   3680000  -26.926237      95.383036      323.22254    
   3690000  -46.050014      94.938869      321.7174     
   3700000  -45.348791      95.398893      323.27628    
   3710000  -39.731024      80.680247      273.39951    
   3720000  -32.713343      94.286697      319.5074     
   3730000  -25.868224      90.349317      306.16488    
   3740000  -47.194723      89.872194      304.54807    
   3750000  -35.96141       82.609407      279.93681    
   3760000  -50.108304      92.263948      312.65295    
   3770000  -30.848368      77.859497      263.84089    
   3780000  -41.090072      88.433423      299.67253    
   3790000  -23.707483      91.010779      308.40637    
   3800000  -25.233091      83.125646      281.68618    
   3810000  -49.323299      94.200344      319.21478    
   3820000  -52.798202      85.445687      289.54805    
   3830000  -47.791279      85.030059      288.13962    
   3840000  -55.042556      91.389047      309.6882     
   3850000  -38.275383      87.33509       295.95063    
   3860000  -31.444176      84.776805      287.28143    
   3870000  -34.600231      88.45426       299.74314    
   3880000  -44.602766      98.463524      333.66133    
   3890000  -44.875165      75.468587      255.73886    
   3900000  -37.136422      70.313195      238.26889    
   3910000  -30.522994      83.959224      284.51091    
   3920000  -45.445847      85.306223      289.07545    
   3930000  -50.105792      78.569731      266.24764    
   3940000  -41.467224      96.518934      327.07174    
   3950000  -24.607499      72.922591      247.1113     
   3960000  -37.331199      84.116545      285.04402    
   3970000  -24.780929      82.502541      279.57467    
   3980000  -46.823275      85.146904      288.53557    
   3990000  -38.719681      83.069909      281.4973     
   4000000  -38.296755      90.238043      305.78781    
Loop time of 290.295 on 1 procs for 4000000 steps with 100 atoms

Performance: 11905.128 ns/day, 0.002 hours/ns, 13779.084 timesteps/s, 1.378 Matom-step/s
99.2% CPU use with 1 MPI tasks x 1 OpenMP threads

MPI task timing breakdown:
Section |  min time  |  avg time  |  max time  |%varavg| %total
---------------------------------------------------------------
Pair    | 257.26     | 257.26     | 257.26     |   0.0 | 88.62
Bond    | 20.709     | 20.709     | 20.709     |   0.0 |  7.13
Neigh   | 1.564      | 1.564      | 1.564      |   0.0 |  0.54
Comm    | 1.5856     | 1.5856     | 1.5856     |   0.0 |  0.55
Output  | 0.11498    | 0.11498    | 0.11498    |   0.0 |  0.04
Modify  | 8.3872     | 8.3872     | 8.3872     |   0.0 |  2.89
Other   |            | 0.6759     |            |       |  0.23

Nlocal:            100 ave         100 max         100 min
Histogram: 1 0 0 0 0 0 0 0 0 0
Nghost:              0 ave           0 max           0 min
Histogram: 1 0 0 0 0 0 0 0 0 0
Neighs:            945 ave         945 max         945 min
Histogram: 1 0 0 0 0 0 0 0 0 0

Total # of neighbors = 945
Ave neighs/atom = 9.45
Ave special neighs/atom = 5.88
Neighbor list builds = 8697
Dangerous builds = 0

# ===============================
# MAIN SA LOOP — 10 cycles
# ===============================
variable c loop ${ncycle}
variable c loop 10
label cyc

  # Heat 298 → 500
  variable seedH equal 44000+${c}
  variable seedH equal 44000+1
  unfix fxl
  fix fxl all langevin ${T_eq} ${T_high} 100000.0 ${seedH}
  fix fxl all langevin 298 ${T_high} 100000.0 ${seedH}
  fix fxl all langevin 298 500 100000.0 ${seedH}
  fix fxl all langevin 298 500 100000.0 44001
  run ${n_heat}
  run 8000000
Generated 0 of 6 mixed pair_coeff terms from geometric mixing rule
Per MPI rank memory allocation (min/avg/max) = 9.632 | 9.632 | 9.632 Mbytes
   Step         PotEng         KinEng          Temp     
   4000000  -38.296755      90.238043      305.78781    
   4010000  -21.717294      82.41983       279.29439    
   4020000  -27.991044      89.011768      301.63236    
   4030000  -30.831786      89.263532      302.48551    
   4040000  -52.062442      92.993159      315.12402    
   4050000  -37.843104      94.13351       318.9883     
   4060000  -14.92362       81.705707      276.87446    
   4070000  -36.17004       91.915328      311.47159    
   4080000  -24.998604      93.700483      317.52091    
   4090000  -20.239591      87.728139      297.28255    
   4100000  -35.743334      102.82393      348.43735    
   4110000  -28.499104      89.996713      304.97002    
   4120000  -40.69824       99.778906      338.11874    
   4130000  -37.611409      101.23793      343.06292    
   4140000  -22.554412      87.770548      297.42626    
   4150000  -25.592499      93.934096      318.31255    
   4160000  -40.086217      90.680873      307.28842    
   4170000  -38.817979      91.670463      310.64182    
   4180000  -46.983181      83.347002      282.43628    
   4190000  -36.292505      87.606341      296.86982    
   4200000  -26.712088      91.785549      311.03181    
   4210000  -34.06539       86.007447      291.45168    
   4220000  -19.348591      69.936561      236.9926     
   4230000  -28.569534      98.738913      334.59454    
   4240000  -12.692088      102.531        347.4447     
   4250000  -13.711534      98.709911      334.49626    
   4260000  -11.530416      90.696677      307.34198    
   4270000  -29.722966      88.449328      299.72643    
   4280000  -25.064156      86.795228      294.12122    
   4290000  -30.39687       91.657822      310.59899    
   4300000  -33.015396      94.805027      321.26386    
   4310000  -25.243872      77.617369      263.02039    
   4320000  -40.122743      92.040136      311.89453    
   4330000  -37.392874      89.262666      302.48257    
   4340000  -19.388502      88.729002      300.67416    
   4350000  -47.958934      99.355029      336.68236    
   4360000  -34.160192      89.979021      304.91007    
   4370000  -31.73631       91.258885      309.24712    
   4380000  -15.776081      85.945315      291.24113    
   4390000  -29.426879      93.272148      316.06942    
   4400000  -30.794634      88.10767       298.56866    
   4410000  -36.733272      96.60346       327.35817    
   4420000  -30.920909      90.616128      307.06902    
   4430000  -26.300355      80.435064      272.56866    
   4440000  -19.439208      77.014846      260.97864    
   4450000  -34.451273      94.453627      320.07308    
   4460000  -31.663623      83.767284      283.86048    
   4470000  -43.503296      95.170994      322.504      
   4480000  -30.726206      87.965857      298.0881     
   4490000  -19.471361      91.735023      310.8606     
   4500000  -40.150898      92.337329      312.90162    
   4510000  -34.070796      93.165962      315.70959    
   4520000  -23.750113      91.586754      310.35816    
   4530000  -18.293392      95.048248      322.08806    
   4540000  -25.371332      92.44079       313.25222    
   4550000  -16.872158      88.470609      299.79854    
   4560000  -18.266875      95.420898      323.35085    
   4570000  -20.63057       96.593693      327.32507    
   4580000  -19.12199       85.370771      289.29419    
   4590000  -36.164467      95.7381        324.42574    
   4600000  -25.165801      93.899982      318.19695    
   4610000  -26.072677      92.775691      314.38709    
   4620000  -25.415106      83.056698      281.45253    
   4630000  -18.617363      79.53608       269.52229    
   4640000  -10.115884      87.021877      294.88926    
   4650000  -19.013872      78.65156       266.52493    
   4660000  -7.6378784      78.403345      265.68381    
   4670000  -14.141981      93.127491      315.57922    
   4680000   0.28395933     78.256692      265.18685    
   4690000  -11.515612      82.063069      278.08545    
   4700000  -4.8973365      83.016489      281.31628    
   4710000  -10.337834      87.822351      297.6018     
   4720000   16.114788      87.407028      296.19441    
   4730000   15.089618      82.48264       279.50724    
   4740000   10.555777      111.94524      379.34654    
   4750000   15.898242      80.100786      271.4359     
   4760000  -1.6579987      94.754845      321.09381    
   4770000   1.3150922      95.025239      322.01009    
   4780000   16.439669      93.552436      317.01923    
   4790000   24.223545      101.95035      345.47708    
   4800000   15.189774      99.610727      337.54883    
   4810000   17.071337      101.13138      342.70185    
   4820000   27.989251      94.088657      318.83631    
   4830000   7.4303546      99.502126      337.18082    
   4840000   7.589315       99.986818      338.82329    
   4850000   22.592183      84.812391      287.40202    
   4860000   31.595838      96.068931      325.54682    
   4870000   18.429736      116.04248      393.23077    
   4880000   22.812885      104.18574      353.0521     
   4890000   6.0392987      97.31406       329.76617    
   4900000   2.2623706      98.469984      333.68322    
   4910000  -8.6501739      91.521806      310.13807    
   4920000  -9.409942       95.906512      324.99644    
   4930000  -8.2495805      88.459801      299.76192    
   4940000  -5.3982217      96.439158      326.8014     
   4950000  -8.6013176      97.437932      330.18593    
   4960000  -8.7960279      94.622578      320.6456     
   4970000  -15.118824      101.13606      342.71769    
   4980000   5.1299292      81.549023      276.34351    
   4990000  -22.905407      100.85162      341.75382    
   5000000  -7.026103       100.54837      340.72622    
   5010000   9.0328191      93.292986      316.14003    
   5020000  -3.0644328      87.069393      295.05027    
   5030000  -12.942238      97.31604       329.77288    
   5040000   1.9275286      85.283703      288.99914    
   5050000  -3.2570167      91.263763      309.26365    
   5060000  -19.224545      100.90287      341.92748    
   5070000  -29.683521      98.86929       335.03634    
   5080000  -15.847481      95.359566      323.14301    
   5090000  -7.9193817      89.966059      304.86615    
   5100000  -2.6159663      88.006317      298.22521    
   5110000  -4.8743124      86.618648      293.52284    
   5120000  -37.135224      91.944075      311.56901    
   5130000  -36.420174      84.524727      286.42722    
   5140000  -21.023754      100.31141      339.92323    
   5150000  -0.34878922     102.39109      346.97059    
   5160000  -3.2081813      95.540735      323.75694    
   5170000  -4.5254811      86.673144      293.70751    
   5180000  -19.612395      106.53337      361.00746    
   5190000  -23.758754      89.925933      304.73017    
   5200000  -20.74172       94.673918      320.81957    
   5210000  -34.53772       104.56104      354.32385    
   5220000  -19.402043      98.28098       333.04275    
   5230000  -13.430156      93.546245      316.99825    
   5240000  -18.879868      108.06133      366.18521    
   5250000  -2.4027499      93.546864      317.00035    
   5260000  -1.841222       92.692785      314.10615    
   5270000  -5.3314135      101.85104      345.14054    
   5280000  -5.8762101      93.819664      317.92478    
   5290000  -17.317034      101.87774      345.23103    
   5300000   4.161308       104.00842      352.4512     
   5310000  -0.73865512     105.45111      357.34004    
   5320000   1.5097519      107.33234      363.71492    
   5330000  -1.3842114      92.65966       313.9939     
   5340000   8.7088986      82.751089      280.41693    
   5350000   3.6855586      104.42165      353.85153    
   5360000   26.527305      87.174988      295.4081     
   5370000   27.865783      106.14693      359.69795    
   5380000   6.8570996      103.86623      351.96936    
   5390000   1.725623       106.24427      360.02778    
   5400000   5.3032045      104.07548      352.67844    
   5410000   18.997581      85.841924      290.89077    
   5420000   2.0894375      106.97566      362.50625    
   5430000   20.903806      91.556344      310.25511    
   5440000   5.4561733      90.368248      306.22903    
   5450000  -31.859571      108.19811      366.64871    
   5460000  -32.514242      95.032856      322.0359     
   5470000  -33.256635      107.94368      365.78653    
   5480000  -24.229005      107.10657      362.94985    
   5490000   0.24142237     98.327114      333.19908    
   5500000  -5.0177922      107.46546      364.16601    
   5510000   3.8679834      103.20693      349.73523    
   5520000  -4.0554489      92.009751      311.79156    
   5530000  -14.56527       91.061664      308.5788     
   5540000   4.3193475      98.986922      335.43496    
   5550000   21.468304      100.92653      342.00765    
   5560000   29.898428      88.021264      298.27586    
   5570000   6.3173164      88.709581      300.60834    
   5580000  -7.6081064      111.96157      379.40187    
   5590000   7.7942356      105.28601      356.78056    
   5600000   11.204854      107.47243      364.18963    
   5610000   12.237838      109.98047      372.68856    
   5620000   30.941733      95.510977      323.6561     
   5630000   16.464456      114.74599      388.83738    
   5640000   4.8925582      106.46164      360.7644     
   5650000   20.393533      100.10542      339.2252     
   5660000   21.463238      102.35974      346.86438    
   5670000   1.2793223      101.5789       344.21836    
   5680000   0.55863688     94.529791      320.33117    
   5690000  -8.6270303      91.433529      309.83893    
   5700000  -4.4479438      106.721        361.64328    
   5710000  -19.238457      106.77641      361.83103    
   5720000  -15.622129      98.970334      335.37875    
   5730000   3.1849877      90.803318      307.70335    
   5740000  -3.7957023      107.23205      363.37504    
   5750000  -5.3597772      100.14075      339.34493    
   5760000  -5.3904635      111.30845      377.18867    
   5770000   3.2810092      94.353749      319.73462    
   5780000  -2.8854098      109.85033      372.24756    
   5790000   2.1025611      102.01469      345.69511    
   5800000   13.667891      106.79867      361.90648    
   5810000   5.7451897      101.54796      344.11349    
   5820000   13.411856      103.04102      349.17299    
   5830000   27.93992       89.904205      304.65654    
   5840000  -7.2715143      102.38432      346.94766    
   5850000   9.0078075      88.050167      298.3738     
   5860000   5.8414747      101.95703      345.4997     
   5870000   24.198277      106.37883      360.48376    
   5880000   15.450937      105.27128      356.73064    
   5890000   3.386838       106.08549      359.48974    
   5900000   26.712211      101.42874      343.70951    
   5910000   26.27835       97.598277      330.72929    
   5920000   13.168037      107.59371      364.60062    
   5930000   15.172579      124.78347      422.8512     
   5940000   25.238544      96.500387      327.00889    
   5950000  -8.8653077      96.667808      327.57623    
   5960000   4.3826369      92.906781      314.83131    
   5970000   13.503544      99.68822       337.81143    
   5980000   17.587771      93.977202      318.45862    
   5990000   1.1533553      113.63687      385.07893    
   6000000   23.256871      98.514997      333.83576    
   6010000   19.775247      94.891928      321.55834    
   6020000   31.528052      85.975551      291.34359    
   6030000   40.836355      120.38815      407.95686    
   6040000   39.346032      104.06539      352.64428    
   6050000   18.99008       111.39418      377.47917    
   6060000   30.691541      105.97862      359.12757    
   6070000   5.2391754      105.86494      358.74235    
   6080000   6.051226       109.69475      371.72036    
   6090000   1.4492102      114.58785      388.30151    
   6100000   7.85919        106.5156       360.94722    
   6110000  -13.893047      111.65157      378.35141    
   6120000   0.66726487     102.50687      347.36294    
   6130000   9.1131853      103.30179      350.05666    
   6140000   3.050012       104.14233      352.90497    
   6150000  -5.0617569      99.147654      335.97963    
   6160000   14.416248      98.394664      333.42799    
   6170000   10.915537      100.09613      339.19371    
   6180000   18.312672      102.20891      346.35326    
   6190000   19.792598      111.66833      378.4082     
   6200000   15.551046      118.06973      400.10047    
   6210000   30.205774      92.056737      311.95078    
   6220000   35.01805       106.33654      360.34046    
   6230000   27.701798      114.05668      386.50153    
   6240000   31.872539      94.34598       319.70829    
   6250000   9.4086764      95.663632      324.1734     
   6260000   11.115543      88.770896      300.81612    
   6270000   10.700736      105.15225      356.32729    
   6280000   9.8781001      121.06396      410.24696    
   6290000   36.018289      91.740711      310.87987    
   6300000   36.713861      110.93926      375.9376     
   6310000   34.834111      121.41946      411.45164    
   6320000   38.226161      99.631348      337.61871    
   6330000   35.209041      101.17693      342.85618    
   6340000   17.946817      117.05898      396.67536    
   6350000   35.958102      109.68484      371.68679    
   6360000   24.209101      102.16601      346.20787    
   6370000   22.300363      102.47403      347.25164    
   6380000   18.959791      97.434321      330.17369    
   6390000   32.596478      88.70631       300.59726    
   6400000   30.060357      100.61652      340.95715    
   6410000   25.179845      105.52142      357.57826    
   6420000   25.972109      100.76011      341.44372    
   6430000   17.826491      110.79891      375.46201    
   6440000   23.999216      96.331002      326.4349     
   6450000   29.703595      96.974154      328.61433    
   6460000   41.838943      108.33578      367.11523    
   6470000   33.584197      105.31827      356.88988    
   6480000   28.552194      110.44871      374.2753     
   6490000   25.495884      125.90714      426.65894    
   6500000   27.314927      114.79444      389.00158    
   6510000   28.750098      95.088956      322.226      
   6520000   24.347944      107.73852      365.09131    
   6530000   24.593148      111.83285      378.96569    
   6540000   20.686038      89.682822      303.90635    
   6550000   13.964305      101.80894      344.99787    
   6560000   14.997052      105.77707      358.4446     
   6570000   31.521631      97.554507      330.58096    
   6580000   42.17191       105.50496      357.52249    
   6590000   41.172151      97.738838      331.2056     
   6600000   36.347553      107.94748      365.7994     
   6610000   27.623804      105.05243      355.98904    
   6620000   16.536446      114.80699      389.04409    
   6630000   60.603604      97.011795      328.74189    
   6640000   26.024579      120.77367      409.26327    
   6650000   26.285772      108.41329      367.37791    
   6660000   43.431548      111.55586      378.02705    
   6670000   65.129697      103.46578      350.61239    
   6680000   41.458734      110.66374      375.00395    
   6690000   29.529132      122.60359      415.46428    
   6700000   22.135168      112.31586      380.60245    
   6710000   23.128853      110.0767       373.01467    
   6720000   34.462478      117.9799       399.79609    
   6730000   13.961879      116.54478      394.9329     
   6740000   28.960517      110.85246      375.64346    
   6750000   40.786548      95.140585      322.40095    
   6760000   45.901988      101.68291      344.57081    
   6770000   44.396753      107.80094      365.30286    
   6780000   37.849676      102.64312      347.82463    
   6790000   40.940701      98.284466      333.05456    
   6800000   43.336558      111.68048      378.44937    
   6810000   40.036833      111.62129      378.24878    
   6820000   33.930145      110.66052      374.99305    
   6830000   32.229147      100.48653      340.51666    
   6840000   34.686092      115.29638      390.70249    
   6850000   37.96043       98.480975      333.72047    
   6860000   25.038507      114.55142      388.17806    
   6870000   51.92932       109.72125      371.81016    
   6880000   37.945982      113.78198      385.57068    
   6890000   32.006732      103.32151      350.1235     
   6900000   48.218195      106.08101      359.47455    
   6910000   39.983789      106.29058      360.18472    
   6920000   37.40536       107.89678      365.62761    
   6930000   58.182742      132.92943      450.45526    
   6940000   43.140552      115.01325      389.74303    
   6950000   40.966857      100.79099      341.54838    
   6960000   54.297237      111.8684       379.08615    
   6970000   43.652717      112.7004       381.90554    
   6980000   45.798978      107.74227      365.10403    
   6990000   27.362189      107.39054      363.91212    
   7000000   30.487832      120.38989      407.96276    
   7010000   47.423299      116.31738      394.16234    
   7020000   49.727177      107.11378      362.97426    
   7030000   30.911102      112.14342      380.01813    
   7040000   30.434633      104.59958      354.45446    
   7050000   30.742203      115.0371       389.82388    
   7060000   23.806597      85.654533      290.25576    
   7070000   33.567902      108.76522      368.57046    
   7080000   28.603179      111.39554      377.48377    
   7090000   26.629758      87.385185      296.12039    
   7100000   24.253503      105.89615      358.84813    
   7110000   18.423747      116.75623      395.64944    
   7120000   32.635393      115.83563      392.52982    
   7130000   35.382252      118.24371      400.69006    
   7140000   57.332607      124.38682      421.50708    
   7150000   52.396705      95.285036      322.89045    
   7160000   60.377915      85.012325      288.07953    
   7170000   53.115004      114.1707       386.88792    
   7180000   69.991686      108.82586      368.77598    
   7190000   52.737341      110.01774      372.81487    
   7200000   54.366057      107.10795      362.95453    
   7210000   44.39489       132.65297      449.51842    
   7220000   53.980547      117.90803      399.55254    
   7230000   61.15781       112.15217      380.04777    
   7240000   61.540079      120.2031       407.32978    
   7250000   58.899433      120.06772      406.87103    
   7260000   57.967416      127.91696      433.46959    
   7270000   80.824801      119.49562      404.93238    
   7280000   48.273145      118.85184      402.75082    
   7290000   57.559101      110.69233      375.10085    
   7300000   56.37405       120.88205      409.63052    
   7310000   48.003089      117.85088      399.35889    
   7320000   66.221373      112.71987      381.97152    
   7330000   64.317693      112.77384      382.15442    
   7340000   44.80807       107.02347      362.66823    
   7350000   50.309222      104.23286      353.21177    
   7360000   48.157906      114.24247      387.13111    
   7370000   39.57961       118.22728      400.63435    
   7380000   61.252421      99.992861      338.84376    
   7390000   43.375956      114.71704      388.7393     
   7400000   51.837239      99.646229      337.66914    
   7410000   58.505683      106.84929      362.07802    
   7420000   61.642971      112.67592      381.82258    
   7430000   57.885538      107.05817      362.78583    
   7440000   46.587715      122.22944      414.19639    
   7450000   56.489233      110.32502      373.85614    
   7460000   57.99188       103.26946      349.94711    
   7470000   69.029173      95.367881      323.17119    
   7480000   53.344883      110.36026      373.97555    
   7490000   59.039361      125.33172      424.70905    
   7500000   64.621077      113.83715      385.75761    
   7510000   49.522357      128.33658      434.89156    
   7520000   64.946335      133.11554      451.08592    
   7530000   80.952328      127.84454      433.22417    
   7540000   50.679673      104.4079       353.80491    
   7550000   51.521114      109.61031      371.43423    
   7560000   54.069691      117.18139      397.09018    
   7570000   51.270957      126.58652      428.96116    
   7580000   58.460903      117.87252      399.43219    
   7590000   68.798911      117.17478      397.06777    
   7600000   68.767155      108.7461       368.5057     
   7610000   37.687244      110.18315      373.37539    
   7620000   48.750832      111.88982      379.15875    
   7630000   63.159322      117.44068      397.96883    
   7640000   78.946819      116.03407      393.20227    
   7650000   68.778895      104.64343      354.60306    
   7660000   63.794879      113.36125      384.14496    
   7670000   72.373622      103.81325      351.78984    
   7680000   51.807237      125.24885      424.42822    
   7690000   66.041333      115.10164      390.04258    
   7700000   75.774042      104.11842      352.82396    
   7710000   71.709564      114.13671      386.77273    
   7720000   72.515875      108.65229      368.18781    
   7730000   62.596235      117.38773      397.78939    
   7740000   77.504976      133.37632      451.9696     
   7750000   67.783611      112.04324      379.67864    
   7760000   44.942877      114.60712      388.3668     
   7770000   54.662263      109.3935       370.69952    
   7780000   69.804265      118.91437      402.9627     
   7790000   59.959574      116.03288      393.19825    
   7800000   72.18925       104.35991      353.64228    
   7810000   74.702353      121.16255      410.58104    
   7820000   80.140682      110.88655      375.759      
   7830000   75.015469      128.25703      434.62198    
   7840000   60.849734      118.86304      402.78875    
   7850000   73.290753      127.52216      432.13173    
   7860000   86.109434      108.61465      368.06023    
   7870000   87.0012        126.78515      429.63425    
   7880000   68.958082      108.57082      367.91172    
   7890000   80.202043      120.65401      408.85779    
   7900000   71.092941      122.65617      415.64245    
   7910000   73.191396      113.05124      383.09443    
   7920000   78.670367      117.65614      398.69895    
   7930000   66.236574      121.70399      412.41581    
   7940000   74.859107      115.99139      393.05766    
   7950000   71.242496      111.16153      376.6908     
   7960000   61.87275       108.1213       366.38843    
   7970000   66.438326      115.22292      390.45356    
   7980000   70.53964       112.42506      380.97249    
   7990000   81.05781       116.45869      394.64118    
   8000000   65.167371      121.21508      410.75906    
   8010000   81.086988      126.73312      429.45792    
   8020000   71.887518      113.02445      383.00365    
   8030000   75.397687      131.10452      444.27121    
   8040000   81.72624       134.26592      454.98417    
   8050000   72.155314      123.89674      419.84635    
   8060000   72.512159      121.64221      412.20649    
   8070000   75.613251      120.87105      409.59325    
   8080000   80.094343      125.36718      424.82919    
   8090000   70.504766      109.04843      369.53019    
   8100000   73.967842      119.13273      403.70266    
   8110000   86.64915       125.92527      426.72038    
   8120000   62.831264      110.40158      374.11558    
   8130000   68.511653      109.35385      370.56515    
   8140000   55.709026      112.83626      382.36594    
   8150000   72.766211      111.76132      378.72329    
   8160000   67.743186      107.24463      363.4177     
   8170000   67.687212      118.30181      400.88693    
   8180000   63.452927      122.76435      416.00903    
   8190000   57.195052      112.65626      381.75596    
   8200000   63.168698      119.84168      406.10507    
   8210000   75.578354      111.61935      378.24223    
   8220000   69.721777      106.30302      360.22687    
   8230000   79.799456      106.31047      360.2521     
   8240000   78.406248      119.96292      406.51589    
   8250000   56.686725      145.12601      491.78555    
   8260000   78.479139      135.63226      459.61428    
   8270000   84.618099      122.17077      413.99759    
   8280000   77.233602      109.53945      371.19411    
   8290000   55.370466      102.19326      346.30023    
   8300000   58.257426      118.08856      400.1643     
   8310000   80.656157      116.36463      394.32245    
   8320000   65.448261      123.57548      418.75771    
   8330000   64.642413      120.9311       409.79676    
   8340000   66.017475      131.45732      445.46673    
   8350000   51.807425      115.19736      390.36692    
   8360000   49.508814      130.04165      440.66949    
   8370000   66.656206      126.16841      427.5443     
   8380000   52.415216      126.25967      427.85357    
   8390000   79.808869      107.3493       363.77237    
   8400000   80.16294       107.77178      365.20404    
   8410000   63.117721      127.79091      433.04245    
   8420000   73.089111      122.49547      415.0979     
   8430000   74.3888        139.3569       472.23587    
   8440000   93.394731      117.50621      398.19091    
   8450000   91.484747      123.62339      418.92005    
   8460000   83.603212      122.65578      415.64112    
   8470000   86.160028      101.64502      344.44239    
   8480000   70.600544      113.01685      382.97788    
   8490000   75.053785      114.19533      386.97139    
   8500000   85.939788      112.93048      382.6852     
   8510000   69.182381      115.33267      390.82545    
   8520000   59.626684      129.32614      438.24486    
   8530000   60.035214      135.38434      458.77414    
   8540000   80.401998      132.68638      449.63162    
   8550000   75.045719      126.22311      427.72966    
   8560000   76.177965      115.05816      389.89524    
   8570000   82.579006      97.887038      331.70781    
   8580000   70.779731      115.17397      390.28769    
   8590000   79.899161      103.90631      352.1052     
   8600000   91.946523      113.20334      383.60986    
   8610000   82.926518      129.15077      437.65058    
   8620000   80.120544      103.93445      352.20053    
   8630000   70.561571      120.53179      408.44362    
   8640000   61.31042       112.03312      379.64435    
   8650000   59.694025      128.6007       435.78655    
   8660000   71.364011      98.336062      333.2294     
   8670000   63.196047      125.1013       423.92822    
   8680000   60.820214      112.39195      380.8603     
   8690000   57.758137      120.12405      407.06191    
   8700000   76.248471      119.21754      403.99003    
   8710000   81.620504      128.53648      435.56894    
   8720000   71.841754      125.66321      425.83234    
   8730000   93.188886      124.34605      421.3689     
   8740000   82.502406      125.50281      425.28881    
   8750000   76.322134      144.56206      489.87449    
   8760000   78.246374      127.66285      432.60848    
   8770000   75.180889      128.07256      433.99687    
   8780000   71.824656      139.27966      471.97413    
   8790000   67.221831      125.06159      423.79365    
   8800000   61.737397      125.3456       424.75606    
   8810000   72.309199      113.13894      383.39161    
   8820000   76.132212      111.30977      377.19314    
   8830000   74.389607      134.09063      454.39019    
   8840000   72.719792      117.37606      397.74984    
   8850000   73.653188      116.73193      395.5671     
   8860000   77.558032      120.30102      407.66162    
   8870000   69.251246      123.56121      418.70936    
   8880000   63.235555      132.2464       448.14068    
   8890000   62.157238      127.5773       432.31859    
   8900000   50.966296      129.69934      439.50949    
   8910000   51.252943      123.69447      419.16094    
   8920000   63.561494      124.98568      423.5364     
   8930000   71.199927      120.68566      408.96505    
   8940000   57.198064      125.50775      425.30556    
   8950000   63.489463      137.91022      467.33355    
   8960000   71.565597      137.73752      466.74832    
   8970000   88.931149      129.07422      437.39117    
   8980000   90.173452      124.50345      421.90231    
   8990000   86.815854      119.00166      403.25851    
   9000000   77.124219      115.10562      390.05607    
   9010000   71.502318      126.94736      430.18393    
   9020000   86.39413       123.15414      417.3299     
   9030000   84.488153      125.489        425.24201    
   9040000   70.735706      134.53816      455.90671    
   9050000   83.113558      136.02732      460.95301    
   9060000   84.643185      156.67063      530.90656    
   9070000   99.459748      151.88117      514.67661    
   9080000   69.199673      131.55523      445.79851    
   9090000   81.460269      128.18723      434.38544    
   9100000   80.905308      128.2134       434.47411    
   9110000   82.23684       150.4657       509.88005    
   9120000   84.820459      124.95066      423.41776    
   9130000   86.788761      144.79097      490.65021    
   9140000   88.834203      126.42213      428.40408    
   9150000   76.527543      125.15458      424.10878    
   9160000   90.639558      109.45828      370.91902    
   9170000   80.168152      127.34713      431.53862    
   9180000   74.243857      133.76302      453.28002    
   9190000   69.172249      122.65204      415.62848    
   9200000   77.105522      130.15238      441.04471    
   9210000   73.216755      136.85365      463.75317    
   9220000   89.331943      126.61284      429.05035    
   9230000   77.678443      138.40725      469.01781    
   9240000   83.253424      112.19776      380.20225    
   9250000   64.819692      125.53125      425.38517    
   9260000   82.921581      117.59884      398.5048     
   9270000   89.606013      123.60564      418.85989    
   9280000   81.903152      132.91261      450.39826    
   9290000   97.42977       143.97029      487.86918    
   9300000   93.395668      127.56013      432.26042    
   9310000   80.585475      130.15766      441.06259    
   9320000   77.786203      135.35713      458.68195    
   9330000   69.471351      130.98575      443.86873    
   9340000   65.91451       123.27753      417.74804    
   9350000   77.274989      129.19791      437.8103     
   9360000   84.785929      127.45654      431.90938    
   9370000   94.675082      130.57106      442.46349    
   9380000   71.317181      130.30066      441.54717    
   9390000   83.646788      111.9669       379.41995    
   9400000   81.653608      156.22946      529.41159    
   9410000   69.291206      133.92442      453.82695    
   9420000   65.088142      143.5812       486.55068    
   9430000   83.204476      134.46213      455.64908    
   9440000   86.616885      146.84785      497.62031    
   9450000   95.486041      127.76145      432.94262    
   9460000   83.059615      123.73414      419.29535    
   9470000   76.042494      152.53441      516.89025    
   9480000   85.638039      135.88997      460.48756    
   9490000   95.07503       129.34092      438.29492    
   9500000   83.779927      130.46411      442.10106    
   9510000   81.314801      124.7656       422.79064    
   9520000   91.913196      146.91181      497.83705    
   9530000   80.505286      128.20223      434.43629    
   9540000   75.163469      126.65537      429.19448    
   9550000   79.915461      137.64749      466.44324    
   9560000   75.717764      143.04751      484.74216    
   9570000   82.109019      154.33557      522.99378    
   9580000   94.846814      132.87743      450.27903    
   9590000   78.414887      147.90792      501.21253    
   9600000   98.40909       131.55043      445.78225    
   9610000   104.68463      126.8532       429.86485    
   9620000   81.273347      132.98834      450.65488    
   9630000   79.550576      111.03602      376.26549    
   9640000   91.344615      112.19814      380.20356    
   9650000   81.34122       128.90998      436.83461    
   9660000   67.779029      126.46804      428.55968    
   9670000   61.494299      125.98172      426.91168    
   9680000   76.892728      127.12602      430.78933    
   9690000   78.104125      138.91657      470.74375    
   9700000   76.927144      134.13647      454.54551    
   9710000   87.078208      123.31932      417.88967    
   9720000   85.446032      122.5023       415.12105    
   9730000   89.870762      118.39611      401.20647    
   9740000   83.797346      117.78978      399.15183    
   9750000   86.27036       134.29716      455.09004    
   9760000   81.822475      133.12392      451.1143     
   9770000   78.16743       122.16681      413.98417    
   9780000   79.720963      138.59649      469.6591     
   9790000   99.528696      135.22744      458.24247    
   9800000   96.234887      136.75524      463.41967    
   9810000   81.394241      149.38399      506.21448    
   9820000   82.268329      146.15733      495.28037    
   9830000   90.614429      137.70119      466.62522    
   9840000   106.43237      157.71309      534.43913    
   9850000   89.59694       140.45986      475.97346    
   9860000   75.019248      106.21796      359.93862    
   9870000   81.596515      133.6345       452.84451    
   9880000   78.279465      147.54499      499.98271    
   9890000   82.309252      139.69644      473.38649    
   9900000   91.381718      144.04859      488.13451    
   9910000   82.611107      134.80957      456.82642    
   9920000   78.482714      132.05585      447.49496    
   9930000   98.034473      131.5335       445.72487    
   9940000   103.18778      142.75919      483.76516    
   9950000   99.147502      147.53208      499.93894    
   9960000   87.742541      147.71508      500.55906    
   9970000   94.551543      146.12494      495.17061    
   9980000   76.743511      128.665        436.00445    
   9990000   87.923825      125.76836      426.18867    
  10000000   87.632404      123.63467      418.95827    
  10010000   77.692372      137.80358      466.97219    
  10020000   85.366317      128.64131      435.92419    
  10030000   96.793619      131.45088      445.44491    
  10040000   99.122471      156.53151      530.43511    
  10050000   97.644808      141.14053      478.28004    
  10060000   87.040036      138.69512      469.99331    
  10070000   70.667825      138.07782      467.9015     
  10080000   78.238326      123.46402      418.37999    
  10090000   81.853653      126.84818      429.84784    
  10100000   103.5313       131.94302      447.11263    
  10110000   95.217388      148.8244       504.31819    
  10120000   93.417282      139.30987      472.07651    
  10130000   106.32717      137.68771      466.57952    
  10140000   70.998512      154.16457      522.41432    
  10150000   92.589409      157.2813       532.97594    
  10160000   84.882241      144.07945      488.2391     
  10170000   86.742655      145.77646      493.98972    
  10180000   79.441825      145.3712       492.61641    
  10190000   93.468878      138.27796      468.57971    
  10200000   89.833247      128.24773      434.59047    
  10210000   89.731497      130.43556      442.00433    
  10220000   81.236265      129.38803      438.45458    
  10230000   93.652546      133.0122       450.73572    
  10240000   85.082771      121.72788      412.49678    
  10250000   73.637959      125.48572      425.23089    
  10260000   88.534548      119.195        403.91366    
  10270000   77.141463      135.26313      458.36341    
  10280000   74.591335      137.86379      467.17622    
  10290000   68.180324      139.39173      472.35391    
  10300000   63.920365      131.60888      445.98031    
  10310000   76.680263      123.79163      419.49018    
  10320000   106.8724       130.25305      441.38586    
  10330000   87.078893      120.83241      409.46232    
  10340000   77.65971       136.74661      463.39045    
  10350000   97.62105       133.98242      454.0235     
  10360000   90.348075      120.93251      409.80153    
  10370000   91.340163      147.53776      499.95818    
  10380000   82.118414      150.61129      510.37339    
  10390000   83.034049      143.18358      485.20327    
  10400000   80.900632      142.0963       481.51884    
  10410000   82.986529      133.97677      454.00434    
  10420000   81.212436      148.10725      501.888      
  10430000   99.487542      140.67774      476.71178    
  10440000   86.663694      117.56861      398.40235    
  10450000   83.8916        124.46417      421.76919    
  10460000   81.327172      130.37304      441.79244    
  10470000   82.940787      124.84061      423.04483    
  10480000   73.799353      124.53458      422.00777    
  10490000   91.575906      143.54848      486.4398     
  10500000   89.171327      140.78322      477.06924    
  10510000   99.639511      166.523        564.29308    
  10520000   80.171132      142.18785      481.82907    
  10530000   84.199415      126.64296      429.1524     
  10540000   89.713011      126.19953      427.64977    
  10550000   78.82449       137.04967      464.4174     
  10560000   73.923765      162.6138       551.04606    
  10570000   86.521927      125.6615       425.82656    
  10580000   85.830895      123.39366      418.14158    
  10590000   80.69288       148.44754      503.04116    
  10600000   92.191701      141.30703      478.84424    
  10610000   96.070053      129.10632      437.49995    
  10620000   117.17334      146.34629      495.92069    
  10630000   98.133641      143.48991      486.24131    
  10640000   89.608         132.18896      447.94604    
  10650000   82.434587      134.61705      456.17404    
  10660000   81.066061      138.89617      470.67463    
  10670000   81.783398      117.28419      397.43853    
  10680000   92.82179       121.38181      411.32407    
  10690000   91.548192      131.1281       444.35112    
  10700000   92.571208      133.4088       452.07968    
  10710000   99.004486      143.37734      485.85986    
  10720000   94.573222      132.30865      448.35162    
  10730000   93.072698      129.31858      438.21922    
  10740000   103.69078      130.75067      443.07211    
  10750000   82.615535      115.3307       390.81878    
  10760000   86.696354      128.86916      436.69631    
  10770000   78.638725      120.51736      408.39472    
  10780000   83.003981      136.9261       463.99869    
  10790000   88.157282      139.76089      473.60487    
  10800000   87.056049      140.55802      476.3061     
  10810000   96.039063      130.24108      441.34527    
  10820000   87.837388      133.20201      451.37894    
  10830000   91.315661      141.68042      480.10953    
  10840000   88.30978       135.87874      460.44951    
  10850000   78.715388      137.8499       467.12913    
  10860000   99.340643      138.23356      468.42925    
  10870000   87.543193      142.79419      483.88375    
  10880000   89.145263      143.50283      486.2851     
  10890000   81.18252       137.08808      464.54759    
  10900000   94.478258      129.55127      439.00775    
  10910000   90.330678      139.26041      471.9089     
  10920000   98.934969      121.63055      412.16696    
  10930000   78.405893      148.53298      503.33068    
  10940000   81.551125      124.08463      420.48305    
  10950000   83.306012      119.58826      405.24629    
  10960000   81.080082      145.35077      492.54719    
  10970000   84.818398      119.53924      405.08019    
  10980000   90.400817      133.26603      451.59586    
  10990000   66.077178      144.74397      490.49095    
  11000000   69.297919      132.03795      447.43431    
  11010000   76.157612      151.75547      514.25068    
  11020000   79.344423      152.21699      515.8146     
  11030000   89.692574      156.6874       530.9634     
  11040000   100.3285       172.6204       584.95522    
  11050000   102.64671      150.77829      510.93932    
  11060000   103.30025      139.27607      471.96199    
  11070000   94.225286      141.44566      479.31401    
  11080000   93.00813       159.32796      539.91142    
  11090000   97.119308      139.489        472.68352    
  11100000   102.25698      147.74991      500.6771     
  11110000   98.933824      156.17418      529.22424    
  11120000   91.39202       158.93842      538.59136    
  11130000   107.7108       140.75725      476.98122    
  11140000   87.98277       159.48213      540.43382    
  11150000   108.26823      163.38207      553.64947    
  11160000   104.17275      150.94234      511.49522    
  11170000   76.130831      147.81169      500.88645    
  11180000   100.45598      135.10774      457.83684    
  11190000   100.61341      135.21387      458.19646    
  11200000   89.427319      155.5286       527.03658    
  11210000   85.804382      138.40352      469.00518    
  11220000   103.61006      152.43561      516.55545    
  11230000   93.50697       160.36782      543.43515    
  11240000   98.210457      133.69138      453.03725    
  11250000   94.033728      127.03522      430.48166    
  11260000   80.120871      145.78645      494.02355    
  11270000   113.23099      135.3226       458.56493    
  11280000   74.728084      147.69916      500.50513    
  11290000   87.958083      143.41567      485.98975    
  11300000   89.571518      122.20076      414.09921    
  11310000   97.795872      133.33905      451.84331    
  11320000   96.630829      131.05516      444.10395    
  11330000   95.002587      152.38165      516.37258    
  11340000   103.86921      150.95091      511.52427    
  11350000   91.120665      162.01748      549.02533    
  11360000   93.31045       128.59021      435.75103    
  11370000   92.704628      144.13451      488.42567    
  11380000   80.607979      120.95309      409.87125    
  11390000   73.824731      154.228        522.62926    
  11400000   95.776961      141.97732      481.11564    
  11410000   89.751056      159.46426      540.37329    
  11420000   78.907707      147.81044      500.88223    
  11430000   86.64881       159.27132      539.71945    
  11440000   92.082896      147.8204       500.91596    
  11450000   99.54361       157.71465      534.44442    
  11460000   110.64839      130.8181       443.30064    
  11470000   106.05502      132.95217      450.53231    
  11480000   106.02242      132.45048      448.83222    
  11490000   90.879924      135.48169      459.10403    
  11500000   86.053197      138.81253      470.39117    
  11510000   95.848954      133.17176      451.27641    
  11520000   86.26757       139.34991      472.21219    
  11530000   104.66858      134.42714      455.53051    
  11540000   88.307009      136.58686      462.84909    
  11550000   97.773705      162.07454      549.21869    
  11560000   93.472715      147.79818      500.84066    
  11570000   117.03524      145.37789      492.6391     
  11580000   72.934839      146.29802      495.75711    
  11590000   98.61445       161.78         548.22057    
  11600000   90.865301      173.31546      587.31055    
  11610000   104.96719      161.54583      547.42706    
  11620000   96.471971      136.5726       462.8008     
  11630000   89.142665      138.12253      468.053      
  11640000   89.770377      144.00825      487.99783    
  11650000   108.37511      153.64665      520.65927    
  11660000   99.49674       138.79574      470.33428    
  11670000   95.733448      136.60686      462.91687    
  11680000   87.000932      160.43757      543.6715     
  11690000   82.949486      148.95911      504.77469    
  11700000   98.814945      166.51628      564.27031    
  11710000   106.37189      155.42072      526.67102    
  11720000   89.90403       138.86074      470.55457    
  11730000   97.735688      134.25914      454.9612     
  11740000   74.814321      135.57097      459.40659    
  11750000   81.844571      131.34463      445.08485    
  11760000   109.50515      145.63241      493.50158    
  11770000   108.10072      139.43063      472.48573    
  11780000   112.57901      142.99882      484.57718    
  11790000   88.644824      163.30265      553.38037    
  11800000   115.6655       152.95487      518.31505    
  11810000   87.257605      169.80001      575.39782    
  11820000   96.617854      152.68712      517.40771    
  11830000   94.584989      144.27761      488.9106     
  11840000   108.69554      142.2657       482.09285    
  11850000   84.45204       137.69213      466.59451    
  11860000   98.398626      134.54408      455.92679    
  11870000   91.34769       159.74814      541.33527    
  11880000   91.323586      146.70608      497.13988    
  11890000   71.249168      135.58903      459.46776    
  11900000   82.259478      147.77363      500.75748    
  11910000   81.466295      119.54625      405.10394    
  11920000   91.7399        138.29339      468.63199    
  11930000   107.6387       161.62498      547.69527    
  11940000   107.49154      139.7529       473.57781    
  11950000   95.07533       133.45209      452.22638    
  11960000   97.204957      143.92482      487.71508    
  11970000   86.991162      161.72715      548.04147    
  11980000   81.797654      141.38527      479.10936    
  11990000   97.215791      137.9023       467.3067     
  12000000   94.228746      133.3503       451.88144    
Loop time of 328.43 on 1 procs for 8000000 steps with 100 atoms

Performance: 21045.604 ns/day, 0.001 hours/ns, 24358.337 timesteps/s, 2.436 Matom-step/s
99.2% CPU use with 1 MPI tasks x 1 OpenMP threads

MPI task timing breakdown:
Section |  min time  |  avg time  |  max time  |%varavg| %total
---------------------------------------------------------------
Pair    | 261.59     | 261.59     | 261.59     |   0.0 | 79.65
Bond    | 41.197     | 41.197     | 41.197     |   0.0 | 12.54
Neigh   | 3.837      | 3.837      | 3.837      |   0.0 |  1.17
Comm    | 3.539      | 3.539      | 3.539      |   0.0 |  1.08
Output  | 0.21587    | 0.21587    | 0.21587    |   0.0 |  0.07
Modify  | 16.728     | 16.728     | 16.728     |   0.0 |  5.09
Other   |            | 1.321      |            |       |  0.40

Nlocal:            100 ave         100 max         100 min
Histogram: 1 0 0 0 0 0 0 0 0 0
Nghost:              0 ave           0 max           0 min
Histogram: 1 0 0 0 0 0 0 0 0 0
Neighs:            303 ave         303 max         303 min
Histogram: 1 0 0 0 0 0 0 0 0 0

Total # of neighbors = 303
Ave neighs/atom = 3.03
Ave special neighs/atom = 5.88
Neighbor list builds = 23367
Dangerous builds = 0

  # Hold at 500
  variable seedHH equal 45000+${c}
  variable seedHH equal 45000+1
  unfix fxl
  fix fxl all langevin ${T_high} ${T_high} 100000.0 ${seedHH}
  fix fxl all langevin 500 ${T_high} 100000.0 ${seedHH}
  fix fxl all langevin 500 500 100000.0 ${seedHH}
  fix fxl all langevin 500 500 100000.0 45001
  run ${n_holdH}
  run 8000000
Generated 0 of 6 mixed pair_coeff terms from geometric mixing rule
Per MPI rank memory allocation (min/avg/max) = 9.633 | 9.633 | 9.633 Mbytes
   Step         PotEng         KinEng          Temp     
  12000000   94.228746      133.3503       451.88144    
  12010000   93.942212      139.79349      473.71533    
  12020000   105.16272      161.09338      545.89386    
  12030000   107.71338      167.86184      568.83       
  12040000   110.15779      148.38198      502.81899    
  12050000   94.617229      150.50048      509.99789    
  12060000   103.74174      154.28125      522.80971    
  12070000   89.917936      179.48729      608.22491    
  12080000   89.387113      165.80479      561.8593     
  12090000   108.96329      152.5539       516.95629    
  12100000   93.96446       146.77602      497.37688    
  12110000   92.792978      130.95172      443.75343    
  12120000   86.951322      135.82694      460.27399    
  12130000   113.61099      149.35881      506.12914    
  12140000   112.84428      155.89492      528.27792    
  12150000   117.3839       152.03511      515.19827    
  12160000   85.715312      132.26533      448.20481    
  12170000   93.411996      145.03631      491.48157    
  12180000   91.59612       134.92077      457.20324    
  12190000   93.171581      132.10205      447.65153    
  12200000   87.290998      161.80225      548.29599    
  12210000   103.48133      154.31658      522.92943    
  12220000   109.24002      146.62661      496.87061    
  12230000   113.42174      157.72857      534.49158    
  12240000   99.168298      152.84417      517.93993    
  12250000   94.998885      150.54686      510.15508    
  12260000   93.290147      139.29994      472.04284    
  12270000   95.132954      134.8183       456.85602    
  12280000   101.73634      139.70043      473.39998    
  12290000   86.172223      153.74257      520.9843     
  12300000   98.313131      152.69258      517.42623    
  12310000   98.709304      194.63076      659.54129    
  12320000   87.578492      160.591        544.19143    
  12330000   103.50799      154.08759      522.15348    
  12340000   84.555166      146.02204      494.82192    
  12350000   120.86789      165.44686      560.64638    
  12360000   97.098838      167.08468      566.19644    
  12370000   101.87388      136.2523       461.71538    
  12380000   86.934675      150.23018      509.08194    
  12390000   82.874203      122.64783      415.61421    
  12400000   89.579102      129.28986      438.12191    
  12410000   92.369909      137.94085      467.43735    
  12420000   105.88695      137.94831      467.46261    
  12430000   95.192566      160.57616      544.14116    
  12440000   92.373339      152.86573      518.01297    
  12450000   93.930848      151.7012       514.06677    
  12460000   108.41061      148.79837      504.22998    
  12470000   89.430195      153.5526       520.34055    
  12480000   90.171549      153.5332       520.27482    
  12490000   101.63415      149.74177      507.42686    
  12500000   104.38601      143.90256      487.63967    
  12510000   91.428586      132.40984      448.69451    
  12520000   99.500151      135.62919      459.60388    
  12530000   100.19913      187.73771      636.18293    
  12540000   98.711865      151.27834      512.63381    
  12550000   73.040362      154.35231      523.05053    
  12560000   89.558506      128.06178      433.96033    
  12570000   91.467032      158.2215       536.16198    
  12580000   102.65763      149.6153       506.9983     
  12590000   90.722456      154.7107       524.265      
  12600000   94.290681      145.06272      491.57107    
  12610000   87.271247      150.24972      509.14815    
[...]
 404760000  -32.789955      83.716681      283.68901    
 404770000  -41.351918      101.71002      344.66266    
 404780000  -8.4432923      95.494215      323.59929    
 404790000  -33.762594      91.416765      309.78212    
 404800000  -28.975506      95.106958      322.287      
 404810000  -37.451752      92.388318      313.07441    
 404820000  -40.091437      97.52954       330.49636    
 404830000  -46.50844       83.19797       281.93126    
 404840000  -46.984368      78.860099      267.23161    
 404850000  -54.296319      85.860201      290.95271    
 404860000  -36.717469      90.014513      305.03034    
 404870000  -34.372231      79.529459      269.49985    
 404880000  -34.766877      76.633439      259.68617    
 404890000  -54.351377      91.221379      309.12002    
 404900000  -21.670872      88.414039      299.60685    
 404910000  -47.130074      98.351811      333.28277    
 404920000  -46.57217       91.73703       310.8674     
 404930000  -56.420315      91.625885      310.49077    
 404940000  -50.364881      81.20809       275.1882     
 404950000  -39.433812      77.485907      262.57491    
 404960000  -43.339572      79.981483      271.03162    
 404970000  -49.084009      89.956708      304.83446    
 404980000  -55.468819      98.540858      333.92339    
 404990000  -54.240871      86.313563      292.48901    
 405000000  -64.41203       89.450641      303.11956    
 405010000  -49.831915      83.570957      283.19519    
 405020000  -49.619933      78.987908      267.66471    
 405030000  -53.514078      89.264935      302.49026    
 405040000  -50.903299      76.253837      258.39982    
 405050000  -37.577346      88.867057      301.14198    
 405060000  -35.78589       93.988875      318.49818    
 405070000  -49.046113      91.221029      309.11884    
 405080000  -39.604654      87.17582       295.41092    
 405090000  -44.462254      86.9878        294.77378    
 405100000  -57.616252      94.365526      319.77453    
 405110000  -55.825986      99.748267      338.01491    
 405120000  -47.386071      81.82498       277.27864    
 405130000  -62.818709      94.195313      319.19773    
 405140000  -49.016615      87.92808       297.96009    
 405150000  -59.179885      92.667277      314.01971    
 405160000  -49.236434      85.431119      289.49869    
 405170000  -48.699604      82.438872      279.35892    
 405180000  -60.25139       75.985463      257.49039    
 405190000  -50.985575      71.249428      241.44148    
 405200000  -50.329011      80.195158      271.75569    
 405210000  -41.757305      81.190322      275.12799    
 405220000  -57.530471      82.782066      280.5219     
 405230000  -41.001279      88.134873      298.66084    
 405240000  -41.591439      88.055993      298.39354    
 405250000  -53.952389      90.468837      306.5699     
 405260000  -36.63066       90.9484        308.19499    
 405270000  -41.717166      93.045413      315.30109    
 405280000  -29.381175      90.504341      306.69021    
 405290000  -33.410587      101.17339      342.84418    
 405300000  -28.207776      86.64277       293.60458    
 405310000  -31.32146       87.544993      296.66193    
 405320000  -40.290102      88.93775       301.38154    
 405330000  -33.775801      87.111519      295.19303    
 405340000  -20.373677      81.912795      277.57621    
 405350000  -28.01079       87.768718      297.42006    
 405360000  -36.493831      87.175689      295.41048    
 405370000  -30.34216       91.454688      309.91063    
 405380000  -17.355221      93.766075      317.74318    
 405390000  -13.277752      85.108084      288.40403    
 405400000  -19.804927      96.425453      326.75496    
 405410000  -20.180733      91.803239      311.09176    
 405420000  -17.917004      75.045066      254.30368    
 405430000  -15.721039      93.322618      316.24045    
 405440000  -4.7818383      85.833577      290.86249    
 405450000  -21.758331      100.09613      339.19372    
 405460000  -23.79516       88.829673      301.0153     
 405470000  -15.822525      101.32836      343.36933    
 405480000  -21.613575      80.946025      274.30014    
 405490000  -23.773287      72.654         246.20113    
 405500000  -31.728659      80.85776       274.00104    
 405510000  -29.798334      87.772189      297.43182    
 405520000  -18.618587      86.584418      293.40685    
 405530000  -14.253524      87.458268      296.36805    
 405540000   5.0108286      89.528392      303.38303    
 405550000  -9.4366789      84.571708      286.58642    
 405560000  -35.191894      105.2566       356.68089    
 405570000  -40.651892      94.90339       321.59718    
 405580000  -24.733043      86.466282      293.00652    
 405590000  -8.7608564      88.073479      298.4528     
 405600000  -3.4601603      96.81627       328.07932    
 405610000  -6.2522058      86.842706      294.2821     
 405620000  -2.5501033      82.48972       279.53123    
 405630000  -3.2784998      92.887147      314.76478    
 405640000   1.3306862      90.734183      307.46907    
 405650000  -8.0577674      103.7314       351.51249    
 405660000  -14.159768      88.574326      300.15001    
 405670000  -0.9451342      83.715972      283.6866     
 405680000   5.0681644      99.030175      335.58153    
 405690000  -12.283811      90.725208      307.43866    
 405700000  -24.83218       88.059461      298.4053     
 405710000  -25.013747      83.399992      282.61585    
 405720000  -20.847754      80.78636       273.75909    
 405730000  -41.111288      85.186484      288.6697     
 405740000  -22.432895      85.436587      289.51722    
 405750000  -36.58974       87.444017      296.31975    
 405760000  -34.609121      81.859532      277.39572    
 405770000  -43.343095      83.407457      282.64115    
 405780000  -45.777585      98.645271      334.27721    
 405790000  -23.521373      72.651049      246.19113    
 405800000  -34.653431      71.568376      242.52229    
 405810000  -50.672571      90.732616      307.46376    
 405820000  -37.662194      88.789494      300.87914    
 405830000  -24.363513      82.480482      279.49992    
 405840000  -23.715736      76.773292      260.16009    
 405850000  -32.071639      95.453928      323.46278    
 405860000  -28.820469      79.71262       270.12053    
 405870000  -27.813115      87.022843      294.89253    
 405880000  -20.526868      87.141288      295.2939     
 405890000  -32.296252      88.585333      300.18731    
 405900000  -41.079771      86.618144      293.52113    
 405910000  -28.915229      87.5421        296.65212    
 405920000  -42.69635       91.248338      309.21138    
 405930000  -23.349898      90.386872      306.29215    
 405940000  -25.88955       87.254221      295.67659    
 405950000  -44.319921      91.537673      310.19184    
 405960000  -40.631633      79.629736      269.83966    
 405970000  -37.495093      96.104774      325.66828    
 405980000  -23.200778      83.600432      283.29508    
 405990000  -48.068769      102.50135      347.34422    
 406000000  -35.64724       87.437023      296.29605    
 406010000  -34.681689      89.792877      304.27929    
 406020000  -33.093858      88.528287      299.994      
 406030000  -28.104588      79.466755      269.28737    
 406040000  -29.596733      104.43389      353.89298    
 406050000  -25.555329      81.473182      276.08651    
 406060000  -35.292144      97.864298      331.63075    
 406070000  -36.859041      91.285382      309.33691    
 406080000  -35.404102      83.501088      282.95843    
 406090000  -19.787072      91.187913      309.00662    
 406100000  -25.317755      91.025411      308.45595    
 406110000  -6.3408733      78.121051      264.72721    
 406120000  -15.468216      99.418699      336.89811    
 406130000  -20.441345      83.922454      284.3863     
 406140000  -29.323326      80.952316      274.32146    
 406150000  -28.255272      83.335951      282.39883    
 406160000  -42.33573       97.112469      329.08304    
 406170000  -31.572754      93.039775      315.28199    
 406180000  -31.832465      99.014834      335.52955    
 406190000  -30.360797      96.497739      326.99992    
 406200000  -13.130223      88.357953      299.41679    
 406210000  -17.44481       93.368735      316.39672    
 406220000  -27.674664      85.320558      289.12403    
 406230000  -44.20726       103.78493      351.69386    
 406240000  -19.167108      93.568291      317.07295    
 406250000  -17.609389      82.853288      280.76324    
 406260000  -20.884487      82.618968      279.96921    
 406270000  -31.035189      92.36515       312.9959     
 406280000  -34.407113      86.01716       291.48459    
 406290000  -24.425689      85.736963      290.53509    
 406300000  -13.378076      85.276662      288.97528    
 406310000  -37.045402      87.14794       295.31644    
 406320000  -50.93621       93.96383       318.41331    
 406330000  -37.62168       84.00098       284.65241    
 406340000  -37.593645      80.602782      273.137      
 406350000  -41.913165      86.009873      291.4599     
 406360000  -38.362342      87.213558      295.5388     
 406370000  -41.354697      89.526288      303.3759     
 406380000  -40.298061      87.444347      296.32087    
 406390000  -56.286643      81.375257      275.75467    
 406400000  -61.789613      83.051327      281.43433    
 406410000  -46.340201      80.309764      272.14405    
 406420000  -51.813181      80.938829      274.27576    
 406430000  -44.042886      80.780842      273.74039    
 406440000  -36.624         78.961634      267.57568    
 406450000  -33.17064       86.607448      293.48489    
 406460000  -44.426308      94.671988      320.81303    
 406470000  -30.74423       86.052039      291.60279    
 406480000  -36.201322      86.485826      293.07275    
 406490000  -33.258982      87.791957      297.49881    
 406500000  -22.569344      86.048817      291.59187    
 406510000  -28.31438       111.71615      378.57024    
 406520000  -10.50887       72.212841      244.70618    
 406530000  -25.211682      76.262687      258.42981    
 406540000  -29.325202      78.064625      264.536      
 406550000  -19.163658      82.964019      281.13848    
 406560000  -13.694919      90.802761      307.70146    
 406570000  -27.719514      85.148473      288.54089    
 406580000  -32.628274      90.022966      305.05899    
 406590000  -31.767413      81.994012      277.85143    
 406600000  -21.720224      80.680449      273.40019    
 406610000  -33.865205      81.228139      275.25613    
 406620000  -27.824842      100.28503      339.83382    
 406630000  -28.319397      101.06889      342.49009    
 406640000  -34.764601      95.111167      322.30127    
 406650000  -12.19451       87.659815      297.05102    
 406660000  -15.923728      93.812314      317.89987    
 406670000  -1.2073007      81.115739      274.87525    
 406680000  -6.232283       88.344166      299.37007    
 406690000  -2.2596633      84.257257      285.52084    
 406700000  -13.149549      89.599562      303.6242     
 406710000  -30.627249      102.48424      347.28626    
 406720000  -27.472973      85.486029      289.68476    
 406730000  -21.787645      84.283637      285.61024    
 406740000  -21.02295       90.48909       306.63853    
 406750000  -9.0018655      85.818602      290.81174    
 406760000  -8.2331216      88.992547      301.56722    
 406770000  -34.656205      90.88778       307.98956    
 406780000  -26.736265      95.534557      323.736      
 406790000  -18.047272      89.516502      303.34274    
 406800000  -30.218703      82.024673      277.95533    
 406810000  -22.623387      84.910942      287.73597    
 406820000  -38.052232      98.798698      334.79713    
 406830000  -19.582033      100.753        341.41963    
 406840000  -27.712608      95.830144      324.73765    
 406850000  -48.21886       90.897254      308.02167    
 406860000  -47.70035       105.68589      358.1356     
 406870000  -17.438884      87.457572      296.36569    
 406880000  -37.477365      98.10981       332.46271    
 406890000  -24.477746      105.15612      356.34039    
 406900000  -33.086894      100.50465      340.57806    
 406910000  -27.717794      84.656355      286.87326    
 406920000  -35.631181      91.642876      310.54834    
 406930000  -29.425206      91.246389      309.20477    
 406940000  -18.167694      90.150587      305.49145    
 406950000  -20.747026      84.9765        287.95813    
 406960000  -34.387439      89.979027      304.91009    
 406970000  -15.958404      85.888674      291.04919    
 406980000  -10.763095      78.901463      267.37178    
 406990000  -39.275986      90.740012      307.48882    
 407000000  -19.748858      96.394658      326.65061    
 407010000  -26.337666      114.55034      388.17441    
 407020000  -22.729653      84.178234      285.25306    
 407030000  -24.405418      94.368379      319.7842     
 407040000  -19.585029      93.05574       315.33608    
 407050000  -27.514107      96.830241      328.12666    
 407060000  -31.093153      96.090473      325.61982    
 407070000  -18.089431      95.262348      322.81357    
 407080000  -17.562001      88.939566      301.38769    
 407090000  -8.2061284      88.037362      298.33041    
 407100000  -27.864624      85.174511      288.62913    
 407110000  -38.271104      90.140301      305.4566     
 407120000  -24.642569      82.460366      279.43176    
 407130000  -17.354711      80.319677      272.17765    
 407140000  -9.3321321      79.816708      270.47325    
 407150000  -21.838193      93.86651       318.08352    
 407160000  -16.746185      96.307517      326.35531    
 407170000  -17.181194      98.413439      333.49161    
 407180000  -33.791461      88.513656      299.94442    
 407190000  -23.921538      96.092935      325.62816    
 407200000  -42.337811      92.968808      315.0415     
 407210000  -31.560491      87.853738      297.70817    
 407220000  -25.697071      80.182337      271.71225    
 407230000  -36.007337      94.333568      319.66624    
 407240000  -36.30671       83.119213      281.66438    
 407250000  -33.735654      98.193381      332.7459     
 407260000  -26.850039      91.529178      310.16305    
 407270000  -23.691836      87.363131      296.04566    
 407280000  -25.142578      86.172057      292.00949    
 407290000  -27.041282      88.008625      298.23303    
 407300000  -40.778168      92.953833      314.99075    
 407310000  -43.726917      87.399486      296.16885    
 407320000  -44.210945      87.535145      296.62856    
 407330000  -40.498783      80.304375      272.12579    
 407340000  -36.976185      89.078253      301.85765    
 407350000  -39.732032      82.14472       278.36213    
 407360000  -48.08246       97.783373      331.35652    
 407370000  -32.077578      91.993569      311.73673    
 407380000  -30.261503      94.023122      318.61423    
 407390000  -38.714416      99.069953      335.71632    
 407400000  -23.620361      92.909188      314.83947    
 407410000  -14.401812      96.193911      325.97034    
 407420000  -3.1661888      83.6361        283.41594    
 407430000  -31.474455      87.165447      295.37577    
 407440000  -38.43613       89.383109      302.89071    
 407450000  -31.94498       87.307695      295.8578     
 407460000  -29.058232      90.827452      307.78513    
 407470000  -44.445766      92.096223      312.08459    
 407480000  -47.347212      83.632133      283.4025     
 407490000  -38.975813      91.633148      310.51538    
 407500000  -17.098538      91.333956      309.50151    
 407510000  -13.34167       90.456397      306.52774    
 407520000  -41.327336      86.423867      292.86279    
 407530000  -38.600091      85.392678      289.36842    
 407540000  -32.511282      98.870882      335.04174    
 407550000  -43.629448      98.855375      334.98919    
 407560000  -36.049179      83.402735      282.62514    
 407570000  -46.005453      89.905071      304.65948    
 407580000  -37.655675      98.749792      334.6314     
 407590000  -34.294406      83.753321      283.81317    
 407600000  -27.814481      87.801926      297.53259    
 407610000  -48.28835       85.105376      288.39485    
 407620000  -37.085604      76.288544      258.51743    
 407630000  -26.369886      79.307343      268.74717    
 407640000  -34.523422      84.137201      285.11401    
 407650000  -16.94608       93.210435      315.8603     
 407660000  -36.144958      89.224877      302.35452    
 407670000  -37.476376      107.50957      364.31547    
 407680000  -19.257426      90.950339      308.20156    
 407690000  -28.314758      93.925959      318.28498    
 407700000  -29.36046       93.902314      318.20485    
 407710000  -15.942865      86.710342      293.83356    
 407720000  -32.380768      101.34442      343.42375    
 407730000  -43.334864      98.191908      332.74091    
 407740000  -31.029541      88.30877       299.25013    
 407750000  -54.493396      82.959169      281.12204    
 407760000  -54.030153      92.935538      314.92876    
 407770000  -38.99603       89.354491      302.79374    
 407780000  -35.562589      91.228487      309.14411    
 407790000  -36.382564      90.799375      307.68998    
 407800000  -32.328963      89.371605      302.85173    
 407810000  -29.339842      88.256511      299.07303    
 407820000  -38.67738       83.899618      284.30892    
 407830000  -39.441443      73.44532       248.88265    
 407840000  -48.525606      90.019815      305.04831    
 407850000  -44.451456      72.861501      246.90428    
 407860000  -52.359724      103.71219      351.44737    
 407870000  -29.812418      91.725161      310.82718    
 407880000  -37.313752      73.09944       247.71058    
 407890000  -64.685758      102.28934      346.6258     
 407900000  -44.452308      84.69229       286.99503    
 407910000  -31.934557      89.125871      302.01902    
 407920000  -41.049382      91.343983      309.53549    
 407930000  -35.539067      98.57277       334.03153    
 407940000  -38.496523      91.766848      310.96844    
 407950000  -45.800638      84.742807      287.16622    
 407960000  -46.538157      90.141543      305.4608     
 407970000  -33.624159      85.46532       289.61458    
 407980000  -38.302195      86.282642      292.38423    
 407990000  -41.504653      98.904676      335.15625    
 408000000  -33.367308      85.888624      291.04902    
Loop time of 352.03 on 1 procs for 4000000 steps with 100 atoms

Performance: 9817.359 ns/day, 0.002 hours/ns, 11362.684 timesteps/s, 1.136 Matom-step/s
99.4% CPU use with 1 MPI tasks x 1 OpenMP threads

MPI task timing breakdown:
Section |  min time  |  avg time  |  max time  |%varavg| %total
---------------------------------------------------------------
Pair    | 318.07     | 318.07     | 318.07     |   0.0 | 90.35
Bond    | 20.968     | 20.968     | 20.968     |   0.0 |  5.96
Neigh   | 1.645      | 1.645      | 1.645      |   0.0 |  0.47
Comm    | 1.8183     | 1.8183     | 1.8183     |   0.0 |  0.52
Output  | 0.10069    | 0.10069    | 0.10069    |   0.0 |  0.03
Modify  | 8.5667     | 8.5667     | 8.5667     |   0.0 |  2.43
Other   |            | 0.8579     |            |       |  0.24

Nlocal:            100 ave         100 max         100 min
Histogram: 1 0 0 0 0 0 0 0 0 0
Nghost:              0 ave           0 max           0 min
Histogram: 1 0 0 0 0 0 0 0 0 0
Neighs:           1234 ave        1234 max        1234 min
Histogram: 1 0 0 0 0 0 0 0 0 0

Total # of neighbors = 1234
Ave neighs/atom = 12.34
Ave special neighs/atom = 5.88
Neighbor list builds = 8845
Dangerous builds = 0

write_data outputs/${tag}_final.data
write_data outputs/config_19_len100_09.dat_final.data
System init for write_data ...
Generated 0 of 6 mixed pair_coeff terms from geometric mixing rule
Total wall time: 5:37:58
