LAMMPS data file via write_data, version 29 Aug 2024, timestep = 400000000, units = real

1032 atoms
4 atom types
931 bonds
1 bond types
830 angles
1 angle types

-80 80 xlo xhi
-80 80 ylo yhi
-80 80 zlo zhi

Masses

1 329.2
2 305.2
3 345.2
4 306.2

Bond Coeffs # harmonic

1 7.5 5.9

Angle Coeffs # harmonic

1 5 150

Atoms # full

607 59 4 0 -67.23381399767187 -79.5515650945617 -67.52558954082134 -10 -46 22
688 67 3 0 -60.7239431296782 -66.4562992904669 -63.6985216949247 40 -22 -6
689 67 4 0 -60.69516520453204 -64.80389769817765 -69.47637899127824 40 -22 -6
690 67 4 0 -61.35085387170414 -67.44008157772929 -74.73160680346193 40 -22 -6
687 67 4 0 -61.235325364722065 -71.26045542280065 -60.34332002694211 40 -22 -6
606 59 2 0 -71.25485965013908 -77.38552318524317 -63.59328823750801 -10 -46 22
691 67 4 0 -60.048948241998055 -69.8612760946892 -79.82637356547774 40 -22 -6
953 94 3 0 -18.280047536349763 -61.59729605013747 -62.44093145153656 -25 24 -12
954 94 3 0 -20.136170563435893 -56.21331263398422 -60.283942103920715 -25 24 -12
970 95 4 0 -34.77320183749169 -50.381250515519504 -61.98281604007311 14 0 -17
971 95 4 0 -31.92141021369505 -52.039293414143856 -67.40946163230417 14 0 -17
972 95 4 0 -29.285019937385854 -56.88049807197618 -69.97676130938558 14 0 -17
955 94 3 0 -20.158412779712837 -50.637962066031186 -60.69426798329653 -25 24 -12
128 11 3 0 -3.0341498411410472 -44.959066712309735 -74.44334197853225 58 -9 4
129 11 4 0 -5.665909849462134 -41.13412858524039 -70.40990919135001 58 -9 4
605 59 3 0 -72.99420623668821 -74.00764583857219 -59.09717485385903 -10 -46 22
604 59 3 0 -71.02435449973338 -71.32754477416988 -54.46604476708588 -10 -46 22
603 59 3 0 -69.45119918250299 -72.09891268347468 -48.467262078793745 -10 -46 22
686 67 2 0 -59.235312946684566 -76.95886296975507 -58.94762432435036 40 -22 -6
642 62 4 0 -0.1478758137744584 -75.78837023985702 -58.21081470521028 28 -17 -26
641 62 4 0 -2.5578536401568277 -77.5471899827306 -53.06363640558861 28 -17 -26
640 62 4 0 -3.0098360546589533 -77.76501304874726 -47.32074704502521 28 -17 -26
639 62 4 0 -1.6323817207574942 -79.97145667650713 -41.94246917474341 28 -17 -26
632 61 4 0 -64.48882241977296 -40.75572635839603 -46.30108838653692 -8 56 3
959 94 4 0 -29.03725169117568 -42.135171556929016 -45.70335903001487 -25 24 -12
969 95 4 0 -35.09943020679352 -50.76981501775255 -56.17979448780153 14 0 -17
967 95 4 0 -26.985474495507475 -51.94484560822219 -48.20094443109903 14 0 -17
968 95 3 0 -31.352375531831882 -50.103146460330684 -51.314351359375785 14 0 -17
957 94 4 0 -24.581785067371506 -42.419579692296836 -54.23449412504632 -25 24 -12
966 95 2 0 -21.102016929598403 -50.765587910673375 -47.41042360560752 14 0 -17
956 94 2 0 -21.120583114851723 -45.94986685632394 -57.135116569275525 -25 24 -12
960 94 4 0 -29.701733586453667 -45.13483565294306 -40.98956705218883 -25 24 -12
964 95 3 0 -15.43472954852146 -42.71436057647116 -43.15570820498255 14 0 -17
965 95 3 0 -16.760638116519235 -47.95926646151018 -44.43866709227789 14 0 -17
170 15 4 0 -70.19207201314778 -62.22674170879756 -30.52618623211461 -29 -28 42
167 15 4 0 -78.6782303826628 -72.5631716459525 -24.26983052987248 -29 -28 42
169 15 4 0 -70.06581220692311 -65.40522327200297 -25.805707035898706 -29 -28 42
168 15 3 0 -74.31802422086845 -68.7621379113498 -22.852666766337027 -29 -28 42
171 15 4 0 -72.5745385571181 -61.539235481955785 -35.332732666616735 -29 -28 42
172 15 4 0 -75.81945752466608 -64.98018918906806 -39.1234729672402 -29 -28 42
373 36 3 0 -46.713342759627466 -74.86747384358323 -22.34720171159175 22 8 -25
636 62 2 0 -5.901419951626722 -79.66342846568263 -25.444576845348266 28 -17 -26
637 62 4 0 -4.644730339611383 -79.62787686502742 -31.407644837067387 28 -17 -26
962 94 4 0 -22.6602173795297 -43.62284626047416 -31.980119755888882 -25 24 -12
961 94 4 0 -27.235569346111138 -44.58522661101746 -35.594829078459284 -25 24 -12
917 90 4 0 -77.98846611002158 -75.53849258910913 -12.952562194590026 7 24 30
768 75 3 0 -60.933114955618365 -71.67787886670416 -5.909356252000901 -6 36 35
769 75 4 0 -60.174837285441896 -65.66239225257907 -6.886578691651602 -6 36 35
918 90 3 0 -78.01360882606626 -76.78816343303203 -7.104649032129387 7 24 30
916 90 2 0 -73.64377729496147 -76.87487601073872 -16.609740229901064 7 24 30
771 75 4 0 -55.545298412300944 -60.40302232464772 -15.17678075685115 -6 36 35
374 36 3 0 -49.343479077594615 -72.58889501535576 -17.49093765528725 22 8 -25
377 36 4 0 -51.14984895761696 -63.61587656000436 -2.1453704068148465 22 8 -25
770 75 4 0 -59.133008463913974 -60.81488554101796 -10.386140585435998 -6 36 35
375 36 3 0 -48.88904393717726 -70.37666178435379 -11.635493989434819 22 8 -25
767 75 4 0 -57.91666281002987 -75.4696898616884 -2.1054571223751095 -6 36 35
376 36 2 0 -48.71897667147893 -66.15621012864271 -6.9828075309619875 22 8 -25
11 2 3 0 -0.5626680496073948 -71.50712430071653 -15.881450543703172 -9 -15 -9
772 75 4 0 -51.757893741214005 -58.421671460668485 -19.747621877037865 -6 36 35
2 1 3 0 -69.38271438434543 -69.55604962550962 2.349148164398304 9 27 19
1 1 3 0 -71.22455332803892 -63.884905605408825 2.1326521040575788 9 27 19
3 1 3 0 -65.59220490731033 -72.678507905262 5.570444482005642 9 27 19
379 36 4 0 -60.29631942370442 -61.4850291327122 4.89707339773482 22 8 -25
4 1 2 0 -63.99628662068303 -77.57393668366365 8.345271753217267 9 27 19
764 75 3 0 -43.856736898555475 -74.96117054621557 7.013211361104263 -6 36 35
378 36 3 0 -54.85004702193223 -62.68962099509364 2.775646283455422 22 8 -25
765 75 3 0 -49.44189965528921 -73.4858036531577 4.58670753175977 -6 36 35
766 75 2 0 -53.01891334296779 -74.82508185491383 0.7000880627066943 -6 36 35
763 75 3 0 -39.135241254678924 -77.00794273707032 10.322217628527643 -6 36 35
150 13 4 0 -18.68982280388347 -61.85979841397148 18.0811582559991 31 -6 -2
147 13 4 0 -5.058825368398075 -69.14004233357174 17.147898188755292 31 -6 -2
149 13 4 0 -14.33184953862055 -63.75014367740238 14.666272766028998 31 -6 -2
148 13 3 0 -9.264447320216517 -66.76206804192825 13.703256758142015 31 -6 -2
146 13 2 0 -0.7895556207557095 -73.09424573450353 17.93026536049937 31 -6 -2
382 36 4 0 -73.11017788800386 -56.38643500625866 15.583134466318427 22 8 -25
381 36 4 0 -67.98986741915695 -58.85708701430799 13.256723735506387 22 8 -25
380 36 4 0 -63.06407436857577 -58.294326404506315 9.552335731437188 22 8 -25
868 85 3 0 -64.97552243750546 -46.59024379472881 19.110307085501095 14 1 4
870 85 4 0 -57.38091917781834 -55.270537805738584 19.50466409097603 14 1 4
872 85 4 0 -55.562034126486886 -62.76340934546234 27.35488294011305 14 1 4
355 34 3 0 -45.10027985599457 -60.95290067669946 37.98871293579075 11 -15 -37
356 34 2 0 -41.05892892924492 -63.97676275384213 39.970646440442465 11 -15 -37
889 87 4 0 -11.024098406446425 -79.82233818695474 20.47694199093024 -3 65 37
887 87 4 0 -14.517354597190725 -69.75243751240096 23.95984961123346 -3 65 37
888 87 3 0 -13.566759037522237 -75.07993873987037 22.71104544260423 -3 65 37
886 87 2 0 -13.397206240157372 -65.0496564477988 27.244637266124386 -3 65 37
885 87 3 0 -10.522171217815234 -60.06077382035656 27.24431325055761 -3 65 37
869 85 4 0 -62.203312809463796 -51.60675628227334 20.935428949218487 14 1 4
204 19 3 0 -76.39761137037935 -56.10380199311407 25.671837163440657 -23 -23 -27
203 19 3 0 -79.89854826876898 -59.416418069443374 21.686692111685556 -23 -23 -27
205 19 3 0 -70.87312943078065 -55.9322952464796 26.05145627670212 -23 -23 -27
206 19 2 0 -67.78948256320678 -51.68734646073006 28.64838623275639 -23 -23 -27
867 85 4 0 -70.00830011312054 -43.493647789081884 20.048998884682657 14 1 4
866 85 2 0 -72.63788744107177 -42.08284917329974 25.056982058802987 14 1 4
208 19 3 0 -61.900172002977975 -43.0945108870652 30.530986267353146 -23 -23 -27
207 19 4 0 -63.88454302788105 -48.50451598384669 31.104305411954275 -23 -23 -27
871 85 4 0 -54.673507092927515 -59.661550203980056 22.39196366639895 14 1 4
662 64 4 0 -43.91054228253438 -54.918799016563554 28.043280071445945 -12 27 -14
354 34 3 0 -49.095339069090365 -56.53397557532452 39.16345379536168 11 -15 -37
353 34 3 0 -51.45304640006245 -51.39887112004529 38.33554488931782 11 -15 -37
661 64 4 0 -38.7192661208958 -55.72753015276834 30.73405040722974 -12 27 -14
660 64 4 0 -35.888056786941206 -53.24025787027835 35.581925357908005 -12 27 -14
151 13 4 0 -20.606667589841503 -57.73838666047011 21.65444083048975 31 -6 -2
152 13 4 0 -19.758218948627466 -51.693495255178775 21.98631850803083 31 -6 -2
884 87 3 0 -4.978427836366284 -57.76096758587455 27.361773509232513 -3 65 37
883 87 3 0 -0.6054323852799434 -55.19715457497063 24.16344829466768 -3 65 37
655 64 3 0 -37.738586832976196 -63.75895573868812 59.604177560192554 -12 27 -14
360 34 4 0 -26.923809126645388 -62.56344864036832 53.10695366917041 11 -15 -37
359 34 4 0 -28.95972261067892 -66.43698397890739 49.24784715513813 11 -15 -37
358 34 3 0 -31.334294764059308 -65.04822875980278 44.263162445143884 11 -15 -37
357 34 4 0 -35.40339048256521 -65.25760173184112 40.2030933177869 11 -15 -37
656 64 2 0 -38.534574066805355 -59.98359948929652 55.110623828877806 -12 27 -14
657 64 4 0 -37.187829601943434 -55.459885732113435 51.90877544836657 -12 27 -14
361 34 4 0 -28.340935689158304 -59.081363950382546 57.61741248337321 11 -15 -37
658 64 3 0 -35.48811662669196 -53.45364902907655 47.25718360278248 -12 27 -14
659 64 4 0 -35.4081373988599 -54.49974070355908 41.28371779625664 -12 27 -14
403 39 3 0 -2.688589915970015 -45.656763731621886 49.19785890311513 2 54 9
692 67 4 0 -58.04738327800782 -74.71760799878098 77.48948636213805 40 -22 -7
654 64 3 0 -35.31369068267645 -67.11141459157437 63.75254271447197 -12 27 -14
653 64 3 0 -31.024937114193428 -70.71804984851924 65.86093398784692 -12 27 -14
362 34 4 0 -24.985322108870008 -55.347211477181744 61.051128181806035 11 -15 -37
132 11 4 0 -16.011781679933577 -29.15559302616933 -71.84766498460502 58 -9 4
131 11 4 0 -11.017377715593659 -30.88263448055452 -69.36316152658571 58 -9 4
130 11 4 0 -9.366874403735794 -36.543904396679416 -71.08536632239799 58 -9 4
215 20 3 0 -64.28389067069718 -4.657883794532332 -74.28074367243022 5 4 15
214 20 3 0 -62.60614651882135 -10.540030312116151 -76.34580039844236 5 4 15
213 20 3 0 -57.414364542401614 -13.588594021136098 -77.79026145037558 5 4 15
647 63 4 0 -43.71790709387054 -0.7899772461853831 -75.54484327055877 -7 8 -32
418 40 3 0 -53.657963535311936 -7.251130635101533 -65.10088760579374 26 -17 -15
417 40 4 0 -54.36131578684259 -2.394368120744393 -68.5106929104239 26 -17 -15
646 63 2 0 -41.720331062530114 -1.0428262228020353 -70.44901117568573 -7 8 -32
419 40 4 0 -50.457273249330754 -10.183044575023882 -61.29373309032397 26 -17 -15
645 63 3 0 -42.05152112811432 -1.6415932665349668 -64.36152767687948 -7 8 -32
422 40 4 0 -36.50543085295399 -18.696330367876307 -60.551600589023735 26 -17 -15
266 25 2 0 -0.9358542867391197 -5.588059149514178 -63.96321300398651 5 35 -31
264 25 3 0 -0.3011518606175458 -15.957970229014219 -69.38471741085039 5 35 -31
265 25 3 0 -1.6032722275247775 -10.877150585427641 -67.32127320444492 5 35 -31
391 37 4 0 -79.90758652049851 -24.806917747844267 -40.72014329747907 -12 7 15
631 61 4 0 -58.89139545459926 -39.779834539402344 -46.158108240884694 -8 56 3
629 61 4 0 -52.61268021164588 -33.65321190013778 -40.517881954643116 -8 56 3
630 61 4 0 -55.62225424710115 -38.244340421610914 -42.06038208737183 -8 56 3
626 61 2 0 -40.49124948540918 -24.89830393120227 -40.40355581383808 -8 56 3
625 61 3 0 -38.14663620763357 -22.399179102883124 -45.118497210244875 -8 56 3
958 94 3 0 -26.628842534861192 -38.615555683120434 -49.744142348642136 -25 24 -12
963 95 3 0 -12.748031378132307 -37.44811088888917 -43.52810796867008 14 0 -17
613 60 3 0 -74.85857865800808 -9.472819610752367 -44.861354916737476 40 38 -30
643 63 3 0 -41.07070589017087 -0.19888692988512013 -53.094095977010525 -7 8 -32
421 40 4 0 -42.682671215783785 -18.674492444501354 -59.87441539169994 26 -17 -15
420 40 4 0 -47.3932310277844 -14.847973029233113 -59.7827051874811 26 -17 -15
623 61 3 0 -31.82715404091037 -14.179514944348737 -50.772599299542094 -8 56 3
624 61 3 0 -36.18120152814571 -17.59322308909096 -48.19531163507784 -8 56 3
712 69 4 0 -18.41147927906773 -1.1329527612367147 -59.796875480397446 -1 -14 -10
705 69 3 0 -2.1558133403141935 -1.9252402756277114 -42.93932167759442 -1 -14 -10
475 46 3 0 -62.84613065926964 -20.955602547244503 -20.115394030584184 20 -9 16
618 60 3 0 -76.2459187150566 -22.841377085012674 -23.708032616125557 40 38 -30
389 37 4 0 -70.84382204561723 -21.06195727521409 -35.04183911674952 -12 7 15
390 37 4 0 -74.59055122961067 -23.62325097646542 -38.735611389985415 -12 7 15
1013 100 3 0 -58.80723730499706 -28.811395341479543 -32.56449515874296 9 -2 28
478 46 3 0 -47.14820080665835 -26.02082396441157 -23.243753269219344 20 -9 16
1014 100 3 0 -57.33433562298935 -25.219193825016472 -36.754487153730224 9 -2 28
1015 100 3 0 -53.30052361565485 -21.41928413828732 -38.790549219272755 9 -2 28
477 46 4 0 -52.724964877069354 -23.186481728149946 -23.865805202420184 20 -9 16
627 61 4 0 -43.73779552320581 -28.46060744716466 -37.3855883891698 -8 56 3
476 46 2 0 -58.39931797558488 -22.963946800134224 -23.445324067287444 20 -9 16
628 61 3 0 -48.00643269320888 -32.34931667578262 -37.19056668054435 -8 56 3
1022 100 4 0 -21.817530128487164 -22.608430724917923 -39.59254502798931 9 -2 28
616 60 2 0 -79.17324337512478 -15.0926719476266 -32.30378014553583 40 38 -30
617 60 4 0 -77.61959088550228 -18.190764173964958 -27.281353429506897 40 38 -30
388 37 3 0 -66.32132941952098 -19.831746711250858 -31.41016048404665 -12 7 15
387 37 4 0 -63.07653729721271 -14.632551976563375 -30.550578179723015 -12 7 15
384 37 3 0 -49.91899536600306 -12.558125286083879 -22.224129011445132 -12 7 15
385 37 3 0 -53.10446371436309 -10.921964061406799 -26.77937082995065 -12 7 15
1016 100 2 0 -48.839029017856404 -17.575954182264482 -37.79954499225387 9 -2 28
386 37 2 0 -57.66134596438224 -12.68258050791584 -29.83076219589252 -12 7 15
1017 100 4 0 -44.37609055277133 -17.80933705565031 -33.917749888384265 9 -2 28
1018 100 3 0 -38.761624287872216 -16.48794797100129 -32.5460978242185 9 -2 28
1019 100 4 0 -33.30398442045653 -16.877504836075808 -34.122298200625686 9 -2 28
1020 100 4 0 -29.75384440537947 -15.149003600828223 -38.054701641930535 9 -2 28
1021 100 4 0 -24.218028482196477 -17.40553493485701 -38.845972463317814 9 -2 28
703 69 3 0 -2.0795464129391408 -12.798452999460142 -39.59458223071059 -1 -14 -10
704 69 3 0 -1.3996932076624984 -7.093076248167568 -39.64880364350994 -1 -14 -10
619 60 4 0 -77.55588694732386 -25.8812131156623 -19.20020984199275 40 38 -30
479 46 4 0 -42.77965222041906 -24.829151116484844 -19.774545814963574 20 -9 16
480 46 4 0 -38.85151515300356 -25.387242933559694 -15.468366029758664 20 -9 16
481 46 4 0 -37.21822636480624 -28.7817524418362 -10.615299695871613 20 -9 16
482 46 4 0 -38.451213692836674 -33.754229351364025 -7.52982554572051 20 -9 16
474 46 3 0 -66.05793706372882 -16.856343012380723 -17.493432000095115 20 -9 16
473 46 3 0 -67.82217509536211 -14.167791983799871 -12.238238876398219 20 -9 16
383 37 3 0 -48.147045519258256 -10.296683431534579 -17.044682166843486 -12 7 15
492 47 4 0 -8.724372178807707 -1.7931550717990088 -2.6509388248234926 15 -38 51
591 57 4 0 -7.50559391567492 -34.27977752229404 9.255142277915352 -45 22 -10
590 57 4 0 -4.112711665628816 -30.768680628763253 12.478930774724299 -45 22 -10
592 57 4 0 -13.133628048087246 -33.9780787290786 6.730990427203146 -45 22 -10
589 57 4 0 -1.1474247811613463 -31.402951027925237 17.945809372141973 -45 22 -10
532 51 4 0 -3.030646688088763 -3.6144764025888514 18.882092067183525 -32 2 7
211 19 4 0 -68.68336964027075 -31.388421437495353 25.206072576081247 -23 -23 -27
212 19 4 0 -70.81759860261208 -27.651866646800407 28.964080750074945 -23 -23 -27
864 85 3 0 -71.80233948236129 -38.28014676079817 36.06235483588781 14 1 4
210 19 4 0 -63.965409020699056 -34.383311440542435 24.74219975761103 -23 -23 -27
209 19 4 0 -61.781088212371 -39.59327765843226 26.165642610762156 -23 -23 -27
865 85 3 0 -73.98955016334753 -39.41270376704011 30.55488790524522 14 1 4
588 57 3 0 -0.7851322821633421 -28.224430619793484 22.835692636506955 -45 22 -10
880 86 4 0 -60.19296138757411 -4.904897554027215 39.38934176464957 -26 -17 -6
537 52 4 0 -48.33787927621054 -0.11644284460903238 35.446274298817094 -1 -18 -18
179 16 4 0 -34.99763228170779 -1.9049512318586603 34.94548543056123 34 20 -14
180 16 4 0 -30.7570207986367 -5.671584263784356 33.69984788557197 34 20 -14
181 16 4 0 -27.351076473688387 -7.90861425596984 29.245772612774516 34 20 -14
182 16 4 0 -22.003911041037718 -6.198545816460533 27.170276653347788 34 20 -14
178 16 3 0 -38.36432022030061 -0.3823425053646671 39.30655527487746 34 20 -14
529 51 4 0 -5.786062358120853 -15.19780953721007 31.50913640366496 -32 2 7
530 51 4 0 -4.370050844333867 -11.61533567375799 26.37609246273086 -32 2 7
528 51 3 0 -2.8547895647041064 -17.321897625251736 36.13633613257889 -32 2 7
531 51 4 0 -1.8179801628749035 -7.602722535642201 23.18795545640602 -32 2 7
863 85 3 0 -69.15442868825018 -35.86740933664091 40.71770968527053 14 1 4
527 51 4 0 -1.7907454486476406 -21.54132596677745 40.48236654224712 -32 2 7
593 58 3 0 -78.33271670289022 -16.26452807276488 55.25389495991165 -24 -2 -5
881 86 4 0 -58.826320020261214 -9.11774845285409 43.29882047487582 -26 -17 -6
882 86 4 0 -57.10431686411781 -9.515701183512286 49.130106919442525 -26 -17 -6
533 52 3 0 -51.94795191057422 -0.681238511216426 56.909123565815825 -1 -18 -18
543 53 3 0 -40.222968756782734 -15.62609593646812 44.5331970754021 8 15 3
546 53 2 0 -29.460693346321275 -8.538339517579224 45.18999262445297 8 15 3
544 53 3 0 -35.30146258765855 -16.1835891790571 41.22654509867103 8 15 3
545 53 3 0 -30.439961206797275 -13.241811721665801 41.61854362396991 8 15 3
547 53 4 0 -27.623544090135596 -3.4548356857070934 47.0691035283898 8 15 3
940 92 4 0 -1.7004724180850581 -4.5750998947851516 44.80616363051472 9 -8 -7
903 89 3 0 -1.4572624530400642 -33.42606241072212 74.07538062165241 -15 9 -50
594 58 3 0 -79.91897623335342 -17.757495013178414 60.71626576339293 -24 -2 -5
219 20 4 0 -60.164530463209374 16.154269790043283 -69.52949550403659 5 4 15
218 20 3 0 -62.19828245627419 10.85022585411408 -67.93775936955171 5 4 15
217 20 4 0 -63.56504130055979 5.313829662366774 -68.58277292915491 5 4 15
216 20 2 0 -63.78954913902241 0.7267310350614216 -72.23965285957607 5 4 15
416 40 2 0 -52.973160007381736 2.647739927610858 -71.66607946575307 26 -17 -15
415 40 3 0 -52.00841322722837 6.163362676689082 -76.23798488067092 26 -17 -15
414 40 3 0 -50.4758948229175 11.132829212450313 -77.93305215368832 26 -17 -15
413 40 3 0 -45.85214398138787 14.353861669061844 -76.73414455857159 26 -17 -15
268 25 3 0 -2.1409070819184 6.136687876589401 -63.16555703666478 5 35 -31
711 69 4 0 -15.932644310073822 4.293104781327637 -60.09168795420863 -1 -14 -10
269 25 4 0 -3.110369494875583 11.318090416457919 -65.38282104354661 5 35 -31
270 25 4 0 -1.1180849749434663 14.327299702018943 -70.3892684169145 5 35 -31
267 25 4 0 -0.8422746916668749 0.4119192243307976 -63.34586146476925 5 35 -31
53 4 3 0 -72.62819097763922 38.844570770199944 -69.47740368754384 -11 -13 -9
220 20 4 0 -58.70301640888065 20.03823138200316 -74.01491050035087 5 4 15
222 20 4 0 -54.50678184920682 30.252089855477166 -71.5621489929978 5 4 15
221 20 4 0 -55.58368489364316 24.929084986718276 -74.52350715695158 5 4 15
439 42 4 0 -60.45206721159691 10.737176787468321 -42.33714950630896 18 -6 8
46 3 2 0 -45.52234243535254 18.43454277506719 -48.25780592585867 -8 22 -25
438 42 3 0 -59.994728007716354 16.516628144151124 -43.5171310270671 18 -6 8
45 3 3 0 -45.60456296732554 15.831212160050207 -43.83234729744474 -8 22 -25
644 63 3 0 -41.699627826990316 1.575824897055187 -59.00484542531167 -7 8 -32
440 42 4 0 -57.80594394667821 5.535887482475879 -41.082946936476326 18 -6 8
710 69 4 0 -14.651901255351264 9.668571662376316 -58.49798445986153 -1 -14 -10
709 69 4 0 -13.864253421064305 11.819238721723847 -53.08345201779962 -1 -14 -10
706 69 2 0 -4.909231974114208 3.1979746787375527 -44.22877709179127 -1 -14 -10
707 69 4 0 -9.867366070509766 5.914929860993209 -44.846652789751474 -1 -14 -10
708 69 3 0 -13.591777033706803 9.368373932663744 -47.88709870970827 -1 -14 -10
496 48 2 0 -64.86253745208761 26.30948384398058 -41.604266816460004 4 16 19
493 48 3 0 -68.31042620247823 26.3154315914789 -57.592656644558666 4 16 19
495 48 3 0 -68.5747636784874 25.848571027969463 -46.77384983916095 4 16 19
494 48 3 0 -68.1437127593606 24.490114530075648 -52.01839037537312 4 16 19
47 3 4 0 -45.392942290441574 23.817979484012508 -50.83804246885519 -8 22 -25
435 42 3 0 -52.18633082841034 29.979586599186806 -45.52354103640996 18 -6 8
48 3 3 0 -43.32248373112188 27.89474460889309 -54.416056634240235 -8 22 -25
437 42 4 0 -58.31185684384417 20.505990455293365 -47.26185177100811 18 -6 8
434 42 3 0 -48.89822944905632 33.30620646293829 -42.09285159276303 18 -6 8
436 42 2 0 -54.95071201174992 25.045570199060577 -47.33520923476491 18 -6 8
50 3 4 0 -37.192592598873794 36.45287145789865 -58.631429030731965 -8 22 -25
49 3 4 0 -38.97949494022418 31.906430959573118 -55.35555716209231 -8 22 -25
51 3 4 0 -32.03198113995335 39.358843086809 -58.83989442830139 -8 22 -25
441 42 4 0 -52.92227750682677 3.6697344270296552 -38.22235946977859 18 -6 8
442 42 4 0 -50.74589683136667 2.2834631382218986 -33.06608994510103 18 -6 8
43 3 3 0 -45.64548601077462 14.284876467447932 -33.00312108451188 -8 22 -25
44 3 3 0 -45.84029465505826 16.777144611496826 -38.283523144994135 -8 22 -25
223 21 3 0 -64.38679027074836 32.92968355156913 -24.21661588266469 -5 15 -26
497 48 4 0 -60.787712275322946 28.54503732682875 -37.93872851347755 4 16 19
499 48 4 0 -53.5957815693328 32.40765282730634 -30.861460774548892 4 16 19
500 48 4 0 -53.24714811189727 38.06455663409721 -29.023894607281054 4 16 19
498 48 3 0 -56.598413538552045 28.54870568599246 -33.87396844647947 4 16 19
433 42 3 0 -45.56334868904901 35.50676244031679 -37.67899258113383 18 -6 8
725 71 3 0 -19.811609762825306 14.997550882627694 -0.5959288307204089 -41 -54 9
724 71 3 0 -19.84327453876709 18.854176970113606 -4.854185015047021 -41 -54 9
225 21 3 0 -61.31450115197457 35.605398419801666 -13.256886396792218 -5 15 -26
224 21 3 0 -62.020309087162794 33.40937635527319 -19.06015046886921 -5 15 -26
139 12 4 0 -45.946261549573755 33.110667633450824 -15.723902443562809 14 19 30
138 12 3 0 -47.53023841943094 37.66592033430568 -19.592966516674046 14 19 30
140 12 4 0 -41.76489707543227 29.041566782254193 -14.078048507346875 14 19 30
108 9 3 0 -51.933875897890225 37.636520710104136 -0.8525702204611287 -8 -9 22
829 81 4 0 -35.785165558481296 33.946608382730815 -5.476069161289984 -14 11 -17
830 81 4 0 -34.526657800603545 39.12175373682077 -7.617289095290246 -14 11 -17
141 12 4 0 -37.025967346007384 25.72133771045486 -13.251070757134306 14 19 30
828 81 3 0 -38.43651256012934 31.719415008413453 -0.7340208863623283 -14 11 -17
142 12 4 0 -34.500212862302625 21.129967967151 -11.23394594374669 14 19 30
78 6 3 0 -1.9217894124344232 39.260557716711965 -6.172570211871876 -13 26 24
723 71 3 0 -19.114558878860088 23.142217570799886 -8.019688128672552 -41 -54 9
541 52 4 0 -58.35134996769374 11.569811692278444 19.895811386298682 -1 -18 -18
542 52 4 0 -58.85948233847453 17.10307705023352 17.777313727128735 -1 -18 -18
727 71 4 0 -20.86268427963903 14.898032001055586 11.348839970874332 -41 -54 9
728 71 3 0 -22.455808734698245 17.826297073549526 16.142108504514137 -41 -54 9
726 71 2 0 -19.305709598467494 14.129136404937437 5.666161583180853 -41 -54 9
489 47 4 0 -8.512598880956084 12.570595797930723 4.711852719113397 15 -38 51
488 47 3 0 -10.943477026200608 17.755930331535243 2.460708360802566 15 -38 51
491 47 4 0 -10.708862571608043 1.157800625815269 1.7880456550963721 15 -38 51
490 47 4 0 -8.900556725651278 7.016559451085437 3.2151310024786786 15 -38 51
111 9 4 0 -62.437815880518556 31.029389252659495 7.40421258178528 -8 -9 22
110 9 4 0 -62.19659205894091 35.16695682833041 3.476226593087774 -8 -9 22
112 9 4 0 -59.41337469883704 27.564477985172594 10.746204194088797 -8 -9 22
109 9 4 0 -57.93543702906552 38.20122103521445 0.4849925661155076 -8 -9 22
824 81 3 0 -53.698992365449726 37.93690923910951 13.957286220328925 -14 11 -17
827 81 4 0 -42.01820674578405 31.443750349788434 3.553997748568757 -14 11 -17
826 81 2 0 -46.59723847305624 34.346472271255706 5.946916281264685 -14 11 -17
825 81 3 0 -51.25566999121418 34.776570546573296 9.511456616379862 -14 11 -17
873 86 3 0 -49.70407569024797 21.38281185770111 19.349526388701868 -26 -17 -6
729 71 4 0 -20.633606483924563 22.64433150144717 18.60633539374934 -41 -54 9
484 47 3 0 -28.726409775350614 26.168010549184217 7.958854593272274 15 -38 51
485 47 3 0 -22.92051869566763 26.939344732080865 8.320343958233996 15 -38 51
483 47 3 0 -32.54076242475558 21.832637167558836 7.0107489110499195 15 -38 51
732 71 4 0 -25.592553394057 37.763132625731444 15.786383227129376 -41 -54 9
730 71 4 0 -20.53061965809469 28.97358607492469 19.003615887653453 -41 -54 9
731 71 4 0 -24.389147351613232 33.57094898980165 19.29273557580328 -41 -54 9
487 47 4 0 -12.104693489338901 22.554321416169802 5.564538743344548 15 -38 51
486 47 2 0 -16.803155150674808 25.72529323968634 7.261771779196661 15 -38 51
843 83 3 0 -75.44005278989809 16.41148779329684 25.48157013690684 6 -15 -35
844 83 3 0 -70.32166257773517 16.340200011800526 29.20158988573935 6 -15 -35
878 86 3 0 -61.71308248504838 5.603726575551212 34.57332315030807 -26 -17 -6
540 52 4 0 -54.23700043071393 8.20030282857489 22.366207548684383 -1 -18 -18
877 86 4 0 -59.33836306382824 10.479703621681807 34.60824980368722 -26 -17 -6
876 86 2 0 -54.88770807801512 13.789246718444474 32.25263062922049 -26 -17 -6
539 52 4 0 -53.98765600607797 3.6891967758182096 26.517277116558983 -1 -18 -18
785 77 3 0 -44.09785871874022 9.680710926564151 33.08203214402203 -18 -15 44
786 77 2 0 -47.08681931687354 10.92077354410616 37.92678007299734 -18 -15 44
538 52 3 0 -50.47046645465991 0.7889667515491006 30.280423761507176 -1 -18 -18
875 86 3 0 -50.082611509834656 16.523450112522234 29.86779529986117 -26 -17 -6
874 86 3 0 -48.61603452588593 19.381362421614377 24.918317500891458 -26 -17 -6
879 86 4 0 -59.99824096529236 0.27439460445307756 36.05122258015519 -26 -17 -6
784 77 3 0 -38.1717728254292 9.522321347459307 32.468302974510024 -18 -15 44
550 53 4 0 -29.351483110379714 12.474171438093462 39.744551294780095 8 15 3
783 77 3 0 -33.904894526939344 6.705600636930251 29.742450214725668 -18 -15 44
551 53 4 0 -32.174588708670925 17.462242688769646 39.156461580521935 8 15 3
552 53 4 0 -37.42203967147634 18.773440807515225 36.86779009949181 8 15 3
84 7 3 0 -11.947748274696323 18.91803393148073 32.22805384531548 19 23 8
85 7 3 0 -10.844023947847344 15.439912823353975 36.73428881600998 19 23 8
83 7 3 0 -10.428418514535139 19.31748271543299 26.568178476894605 19 23 8
845 83 3 0 -66.90331635966602 20.365532293493246 32.02015367098313 6 -15 -35
846 83 2 0 -62.058938100047094 22.23183724024778 34.791589194948216 6 -15 -35
716 70 2 0 -56.83102891055028 39.86174120338606 38.31752898942813 -1 -39 -16
847 83 4 0 -56.89691299213863 24.879900364370215 36.41591879991447 6 -15 -35
713 70 3 0 -47.199737883985826 31.500569484616694 28.930177499333166 -1 -39 -16
714 70 3 0 -48.813740893394474 33.62663071783456 34.55206224058068 -1 -39 -16
715 70 3 0 -53.916286948585594 34.73015081968954 37.59417717517352 -1 -39 -16
848 83 3 0 -51.76073328613797 24.09764793426907 39.13265274836054 6 -15 -35
242 22 4 0 -36.49388588815836 35.183420827851755 22.23585405386709 -4 -6 20
790 77 4 0 -65.80067956934296 19.079380481484296 45.55226911675594 -18 -15 44
789 77 4 0 -60.25877775129057 17.908910420710985 43.98146321136517 -18 -15 44
788 77 3 0 -56.618012224087906 13.307969793429047 43.64832697198019 -18 -15 44
535 52 3 0 -49.52287457844085 0.6972209709429793 46.69586449394118 -1 -18 -18
787 77 4 0 -51.679252095211 10.86251637772967 41.67857172172328 -18 -15 44
534 52 3 0 -49.61021705317434 1.3607704539252943 52.25336833056502 -1 -18 -18
536 52 2 0 -50.51328238402783 0.23631667245142993 40.91741671011571 -1 -18 -18
549 53 4 0 -29.43580862461357 6.938774758982049 41.74542444341726 8 15 3
175 16 3 0 -37.67125092886431 13.494107258008547 48.61244854519685 34 20 -14
176 16 2 0 -39.88624522220685 8.57070773313553 46.175607414147514 34 20 -14
177 16 4 0 -39.26776602788069 2.9316319721166035 44.11113653558349 34 20 -14
548 53 3 0 -27.384837397039103 2.511346844052436 45.3184851964078 8 15 3
174 16 3 0 -33.3176757954963 17.53400713821446 49.51586031639723 34 20 -14
942 92 4 0 -3.948275600920764 2.809162054119862 52.091474147501515 9 -8 -7
86 7 2 0 -9.94924469237497 15.642785424234633 42.411446837978936 19 23 8
87 7 4 0 -10.357148739911622 19.673912641223176 47.05258600307857 19 23 8
941 92 4 0 -2.781588241715762 0.8386098836287239 46.91338389701022 9 -8 -7
791 77 4 0 -70.33379163201954 22.80842254747168 46.57424132768975 -18 -15 44
792 77 4 0 -72.80498345455744 27.114378218947348 49.65818829362442 -18 -15 44
503 49 3 0 -77.59488856247805 36.23960887094537 52.437642904837716 23 15 -2
851 83 4 0 -44.5469327506733 24.16913607127646 53.753668287184446 6 -15 -35
850 83 4 0 -46.84307223547653 21.798332088336448 48.91590468898022 6 -15 -35
849 83 4 0 -47.947811607282205 22.149653487594705 42.88659481677063 6 -15 -35
852 83 4 0 -38.85732253434106 25.980873078745937 55.18131336919357 6 -15 -35
173 16 3 0 -30.318837016654644 22.397907407644475 47.18001181226997 34 20 -14
88 7 3 0 -10.951030638805788 25.195614282775807 49.68213839484052 19 23 8
89 7 4 0 -13.009989717463611 31.08489119556401 50.5056757241326 19 23 8
90 7 4 0 -12.459652688565223 36.82435748708016 50.72430268951809 19 23 8
650 63 4 0 -49.14735331692425 5.82532629017178 71.17281895559661 -7 8 -33
649 63 4 0 -44.91635632504034 1.89880127922343 73.44924193793477 -7 8 -33
652 63 4 0 -51.50563645039563 12.077318412958855 62.87575546382597 -7 8 -33
651 63 4 0 -50.50928820968129 10.620904120305068 68.41976076600031 -7 8 -33