LAMMPS data file - 1 Docked ASO + 99 Free ASOs + 1 Hairpin

1032 atoms
931 bonds
830 angles

4 atom types
1 bond types
1 angle types

-80.000000 80.000000 xlo xhi
-80.000000 80.000000 ylo yhi
-80.000000 80.000000 zlo zhi

Masses

1 329.20
2 305.20
3 345.20
4 306.20

Atoms

1 1 3 0.000000 -5.578000 20.548000 -14.353000
2 1 3 0.000000 -1.739000 18.304000 -16.435000
3 1 3 0.000000 4.202000 17.473000 -16.900000
4 1 2 0.000000 10.109000 16.307000 -15.724000
5 1 4 0.000000 13.892000 12.359000 -14.367000
6 1 3 0.000000 14.357000 7.101000 -12.805000
7 1 4 0.000000 17.219000 3.213000 -11.194000
8 1 4 0.000000 17.160000 -2.611000 -7.841000
9 1 4 0.000000 13.781000 -7.106000 -4.529000
10 1 4 0.000000 8.598000 -10.572000 -3.502000
11 2 3 0.000000 6.200000 -18.293000 1.303000
12 2 2 0.000000 11.826000 -16.769000 -0.282000
13 2 4 0.000000 14.864000 -14.582000 -4.893000
14 2 3 0.000000 14.993000 -11.956000 -10.484000
15 2 1 0.000000 12.426000 -9.940000 -15.598000
16 2 2 0.000000 7.732000 -7.606000 -17.857000
17 2 4 0.000000 3.763000 -3.183000 -18.318000
18 2 4 0.000000 1.611000 0.624000 -14.480000
19 2 4 0.000000 0.089000 3.321000 -9.329000
20 2 2 0.000000 2.466000 6.071000 -5.189000
21 2 1 0.000000 6.436000 9.150000 -2.157000
22 2 3 0.000000 8.843000 14.297000 -1.868000
23 2 2 0.000000 9.022000 19.873000 -3.800000
24 2 2 0.000000 8.786000 23.869000 -7.968000
25 2 2 0.000000 6.160000 28.412000 -10.146000
26 2 2 0.000000 11.347000 31.588000 -11.576000
27 2 1 0.000000 12.725000 25.899000 -11.465000
28 2 1 0.000000 12.008000 20.723000 -14.164000
29 2 1 0.000000 16.188000 17.160000 -11.527000
30 2 2 0.000000 19.755000 13.589000 -10.756000
31 2 1 0.000000 19.715000 8.246000 -7.924000
32 2 1 0.000000 17.704000 3.884000 -4.612000
33 2 1 0.000000 14.080000 -0.712000 -1.421000
34 2 1 0.000000 9.302000 -2.868000 -0.830000
35 2 1 0.000000 4.380000 -5.707000 -2.379000
36 2 1 0.000000 -0.876000 -7.526000 -5.386000
37 2 3 0.000000 -2.393000 -11.401000 -8.758000
38 2 4 0.000000 -0.063000 -15.859000 -11.557000
39 2 2 0.000000 3.680000 -20.032000 -13.782000
40 2 1 0.000000 8.300000 -23.997000 -14.294000
41 2 3 0.000000 11.532000 -27.040000 -10.381000
42 2 2 0.000000 12.517000 -29.449000 -5.237000
43 3 3 0.000000 25.129189 19.489913 22.478095
44 3 3 0.000000 28.968189 17.245913 20.396095
45 3 3 0.000000 34.909189 16.414913 19.931095
46 3 2 0.000000 40.816189 15.248913 21.107095
47 3 4 0.000000 44.599189 11.300913 22.464095
48 3 3 0.000000 45.064189 6.042913 24.026095
49 3 4 0.000000 47.926189 2.154913 25.637095
50 3 4 0.000000 47.867189 -3.669087 28.990095
51 3 4 0.000000 44.488189 -8.164087 32.302095
52 3 4 0.000000 39.305189 -11.630087 33.329095
53 4 3 0.000000 -43.486101 24.458088 -54.795723
54 4 3 0.000000 -39.647101 22.214088 -56.877723
55 4 3 0.000000 -33.706101 21.383088 -57.342723
56 4 2 0.000000 -27.799101 20.217088 -56.166723
57 4 4 0.000000 -24.016101 16.269088 -54.809723
58 4 3 0.000000 -23.551101 11.011088 -53.247723
59 4 4 0.000000 -20.689101 7.123088 -51.636723
60 4 4 0.000000 -20.748101 1.299088 -48.283723
61 4 4 0.000000 -24.127101 -3.195912 -44.971723
62 4 4 0.000000 -29.310101 -6.661912 -43.944723
63 5 3 0.000000 37.790378 25.246372 -35.973534
64 5 3 0.000000 41.629378 23.002372 -38.055534
65 5 3 0.000000 47.570378 22.171372 -38.520534
66 5 2 0.000000 53.477378 21.005372 -37.344534
67 5 4 0.000000 57.260378 17.057372 -35.987534
68 5 3 0.000000 57.725378 11.799372 -34.425534
69 5 4 0.000000 60.587378 7.911372 -32.814534
70 5 4 0.000000 60.528378 2.087372 -29.461534
71 5 4 0.000000 57.149378 -2.407628 -26.149534
72 5 4 0.000000 51.966378 -5.873628 -25.122534
73 6 3 0.000000 13.107102 -24.813506 -16.412423
74 6 3 0.000000 16.946102 -27.057506 -18.494423
75 6 3 0.000000 22.887102 -27.888506 -18.959423
76 6 2 0.000000 28.794102 -29.054506 -17.783423
77 6 4 0.000000 32.577102 -33.002506 -16.426423
78 6 3 0.000000 33.042102 -38.260506 -14.864423
79 6 4 0.000000 35.904102 -42.148506 -13.253423
80 6 4 0.000000 35.845102 -47.972506 -9.900423
81 6 4 0.000000 32.466102 -52.467506 -6.588423
82 6 4 0.000000 27.283102 -55.933506 -5.561423
83 7 3 0.000000 45.276811 44.321581 45.345217
84 7 3 0.000000 49.115811 42.077581 43.263217
85 7 3 0.000000 55.056811 41.246581 42.798217
86 7 2 0.000000 60.963811 40.080581 43.974217
87 7 4 0.000000 64.746811 36.132581 45.331217
88 7 3 0.000000 65.211811 30.874581 46.893217
89 7 4 0.000000 68.073811 26.986581 48.504217
90 7 4 0.000000 68.014811 21.162581 51.857217
91 7 4 0.000000 64.635811 16.667581 55.169217
92 7 4 0.000000 59.452811 13.201581 56.196217
93 8 3 0.000000 -19.830106 9.317262 -51.509461
94 8 3 0.000000 -15.991106 7.073262 -53.591461
95 8 3 0.000000 -10.050106 6.242262 -54.056461
96 8 2 0.000000 -4.143106 5.076262 -52.880461
97 8 4 0.000000 -0.360106 1.128262 -51.523461
98 8 3 0.000000 0.104894 -4.129738 -49.961461
99 8 4 0.000000 2.966894 -8.017738 -48.350461
100 8 4 0.000000 2.907894 -13.841738 -44.997461
101 8 4 0.000000 -0.471106 -18.336738 -41.685461
102 8 4 0.000000 -5.654106 -21.802738 -40.658461
103 9 3 0.000000 -30.780067 -42.400966 53.670118
104 9 3 0.000000 -26.941067 -44.644966 51.588118
105 9 3 0.000000 -21.000067 -45.475966 51.123118
106 9 2 0.000000 -15.093067 -46.641966 52.299118
107 9 4 0.000000 -11.310067 -50.589966 53.656118
108 9 3 0.000000 -10.845067 -55.847966 55.218118
109 9 4 0.000000 -7.983067 -59.735966 56.829118
110 9 4 0.000000 -8.042067 -65.559966 60.182118
111 9 4 0.000000 -11.421067 -70.054966 63.494118
112 9 4 0.000000 -16.604067 -73.520966 64.521118
113 10 3 0.000000 5.247950 -22.526797 52.682129
114 10 3 0.000000 9.086950 -24.770797 50.600129
115 10 3 0.000000 15.027950 -25.601797 50.135129
116 10 2 0.000000 20.934950 -26.767797 51.311129
117 10 4 0.000000 24.717950 -30.715797 52.668129
118 10 3 0.000000 25.182950 -35.973797 54.230129
119 10 4 0.000000 28.044950 -39.861797 55.841129
120 10 4 0.000000 27.985950 -45.685797 59.194129
121 10 4 0.000000 24.606950 -50.180797 62.506129
122 10 4 0.000000 19.423950 -53.646797 63.533129
123 11 3 0.000000 -51.260885 -46.501887 18.884717
124 11 3 0.000000 -47.421885 -48.745887 16.802717
125 11 3 0.000000 -41.480885 -49.576887 16.337717
126 11 2 0.000000 -35.573885 -50.742887 17.513717
127 11 4 0.000000 -31.790885 -54.690887 18.870717
128 11 3 0.000000 -31.325885 -59.948887 20.432717
129 11 4 0.000000 -28.463885 -63.836887 22.043717
130 11 4 0.000000 -28.522885 -69.660887 25.396717
131 11 4 0.000000 -31.901885 -74.155887 28.708717
132 11 4 0.000000 -37.084885 -77.621887 29.735717
133 12 3 0.000000 35.572908 -13.495246 60.079464
134 12 3 0.000000 39.411908 -15.739246 57.997464
135 12 3 0.000000 45.352908 -16.570246 57.532464
136 12 2 0.000000 51.259908 -17.736246 58.708464
137 12 4 0.000000 55.042908 -21.684246 60.065464
138 12 3 0.000000 55.507908 -26.942246 61.627464
139 12 4 0.000000 58.369908 -30.830246 63.238464
140 12 4 0.000000 58.310908 -36.654246 66.591464
141 12 4 0.000000 54.931908 -41.149246 69.903464
142 12 4 0.000000 49.748908 -44.615246 70.930464
143 13 3 0.000000 2.096580 80.043979 34.100521
144 13 3 0.000000 5.935580 77.799979 32.018521
145 13 3 0.000000 11.876580 76.968979 31.553521
146 13 2 0.000000 17.783580 75.802979 32.729521
147 13 4 0.000000 21.566580 71.854979 34.086521
148 13 3 0.000000 22.031580 66.596979 35.648521
149 13 4 0.000000 24.893580 62.708979 37.259521
150 13 4 0.000000 24.834580 56.884979 40.612521
151 13 4 0.000000 21.455580 52.389979 43.924521
152 13 4 0.000000 16.272580 48.923979 44.951521
153 14 3 0.000000 40.699093 26.977062 21.035196
154 14 3 0.000000 44.538093 24.733062 18.953196
155 14 3 0.000000 50.479093 23.902062 18.488196
156 14 2 0.000000 56.386093 22.736062 19.664196
157 14 4 0.000000 60.169093 18.788062 21.021196
158 14 3 0.000000 60.634093 13.530062 22.583196
159 14 4 0.000000 63.496093 9.642062 24.194196
160 14 4 0.000000 63.437093 3.818062 27.547196
161 14 4 0.000000 60.058093 -0.676938 30.859196
162 14 4 0.000000 54.875093 -4.142938 31.886196
163 15 3 0.000000 -48.283385 31.060209 -28.983287
164 15 3 0.000000 -44.444385 28.816209 -31.065287
165 15 3 0.000000 -38.503385 27.985209 -31.530287
166 15 2 0.000000 -32.596385 26.819209 -30.354287
167 15 4 0.000000 -28.813385 22.871209 -28.997287
168 15 3 0.000000 -28.348385 17.613209 -27.435287
169 15 4 0.000000 -25.486385 13.725209 -25.824287
170 15 4 0.000000 -25.545385 7.901209 -22.471287
171 15 4 0.000000 -28.924385 3.406209 -19.159287
172 15 4 0.000000 -34.107385 -0.059791 -18.132287
173 16 3 0.000000 18.790636 -0.002586 53.126894
174 16 3 0.000000 22.629636 -2.246586 51.044894
175 16 3 0.000000 28.570636 -3.077586 50.579894
176 16 2 0.000000 34.477636 -4.243586 51.755894
177 16 4 0.000000 38.260636 -8.191586 53.112894
178 16 3 0.000000 38.725636 -13.449586 54.674894
179 16 4 0.000000 41.587636 -17.337586 56.285894
180 16 4 0.000000 41.528636 -23.161586 59.638894
181 16 4 0.000000 38.149636 -27.656586 62.950894
182 16 4 0.000000 32.966636 -31.122586 63.977894
183 17 3 0.000000 -45.079560 -1.477424 65.189558
184 17 3 0.000000 -41.240560 -3.721424 63.107558
185 17 3 0.000000 -35.299560 -4.552424 62.642558
186 17 2 0.000000 -29.392560 -5.718424 63.818558
187 17 4 0.000000 -25.609560 -9.666424 65.175558
188 17 3 0.000000 -25.144560 -14.924424 66.737558
189 17 4 0.000000 -22.282560 -18.812424 68.348558
190 17 4 0.000000 -22.341560 -24.636424 71.701558
191 17 4 0.000000 -25.720560 -29.131424 75.013558
192 17 4 0.000000 -30.903560 -32.597424 76.040558
193 18 3 0.000000 34.448612 69.413604 -26.438178
194 18 3 0.000000 38.287612 67.169604 -28.520178
195 18 3 0.000000 44.228612 66.338604 -28.985178
196 18 2 0.000000 50.135612 65.172604 -27.809178
197 18 4 0.000000 53.918612 61.224604 -26.452178
198 18 3 0.000000 54.383612 55.966604 -24.890178
199 18 4 0.000000 57.245612 52.078604 -23.279178
200 18 4 0.000000 57.186612 46.254604 -19.926178
201 18 4 0.000000 53.807612 41.759604 -16.614178
202 18 4 0.000000 48.624612 38.293604 -15.587178
203 19 3 0.000000 43.655920 -24.666285 -19.300352
204 19 3 0.000000 47.494920 -26.910285 -21.382352
205 19 3 0.000000 53.435920 -27.741285 -21.847352
206 19 2 0.000000 59.342920 -28.907285 -20.671352
207 19 4 0.000000 63.125920 -32.855285 -19.314352
208 19 3 0.000000 63.590920 -38.113285 -17.752352
209 19 4 0.000000 66.452920 -42.001285 -16.141352
210 19 4 0.000000 66.393920 -47.825285 -12.788352
211 19 4 0.000000 63.014920 -52.320285 -9.476352
212 19 4 0.000000 57.831920 -55.786285 -8.449352
213 20 3 0.000000 19.160082 45.698686 -18.448599
214 20 3 0.000000 22.999082 43.454686 -20.530599
215 20 3 0.000000 28.940082 42.623686 -20.995599
216 20 2 0.000000 34.847082 41.457686 -19.819599
217 20 4 0.000000 38.630082 37.509686 -18.462599
218 20 3 0.000000 39.095082 32.251686 -16.900599
219 20 4 0.000000 41.957082 28.363686 -15.289599
220 20 4 0.000000 41.898082 22.539686 -11.936599
221 20 4 0.000000 38.519082 18.044686 -8.624599
222 20 4 0.000000 33.336082 14.578686 -7.597599
223 21 3 0.000000 -52.404553 -39.307600 -11.179172
224 21 3 0.000000 -48.565553 -41.551600 -13.261172
225 21 3 0.000000 -42.624553 -42.382600 -13.726172
226 21 2 0.000000 -36.717553 -43.548600 -12.550172
227 21 4 0.000000 -32.934553 -47.496600 -11.193172
228 21 3 0.000000 -32.469553 -52.754600 -9.631172
229 21 4 0.000000 -29.607553 -56.642600 -8.020172
230 21 4 0.000000 -29.666553 -62.466600 -4.667172
231 21 4 0.000000 -33.045553 -66.961600 -1.355172
232 21 4 0.000000 -38.228553 -70.427600 -0.328172
233 22 3 0.000000 17.718205 -33.182046 16.969683
234 22 3 0.000000 21.557205 -35.426046 14.887683
235 22 3 0.000000 27.498205 -36.257046 14.422683
236 22 2 0.000000 33.405205 -37.423046 15.598683
237 22 4 0.000000 37.188205 -41.371046 16.955683
238 22 3 0.000000 37.653205 -46.629046 18.517683
239 22 4 0.000000 40.515205 -50.517046 20.128683
240 22 4 0.000000 40.456205 -56.341046 23.481683
241 22 4 0.000000 37.077205 -60.836046 26.793683
242 22 4 0.000000 31.894205 -64.302046 27.820683
243 23 3 0.000000 30.707152 -21.608402 34.636120
244 23 3 0.000000 34.546152 -23.852402 32.554120
245 23 3 0.000000 40.487152 -24.683402 32.089120
246 23 2 0.000000 46.394152 -25.849402 33.265120
247 23 4 0.000000 50.177152 -29.797402 34.622120
248 23 3 0.000000 50.642152 -35.055402 36.184120
249 23 4 0.000000 53.504152 -38.943402 37.795120
250 23 4 0.000000 53.445152 -44.767402 41.148120
251 23 4 0.000000 50.066152 -49.262402 44.460120
252 23 4 0.000000 44.883152 -52.728402 45.487120
253 24 3 0.000000 -24.240214 -55.252984 14.927126
254 24 3 0.000000 -20.401214 -57.496984 12.845126
255 24 3 0.000000 -14.460214 -58.327984 12.380126
256 24 2 0.000000 -8.553214 -59.493984 13.556126
257 24 4 0.000000 -4.770214 -63.441984 14.913126
258 24 3 0.000000 -4.305214 -68.699984 16.475126
259 24 4 0.000000 -1.443214 -72.587984 18.086126
260 24 4 0.000000 -1.502214 -78.411984 21.439126
261 24 4 0.000000 -4.881214 -82.906984 24.751126
262 24 4 0.000000 -10.064214 -86.372984 25.778126
263 25 3 0.000000 -59.911863 7.311092 66.833914
264 25 3 0.000000 -56.072863 5.067092 64.751914
265 25 3 0.000000 -50.131863 4.236092 64.286914
266 25 2 0.000000 -44.224863 3.070092 65.462914
267 25 4 0.000000 -40.441863 -0.877908 66.819914
268 25 3 0.000000 -39.976863 -6.135908 68.381914
269 25 4 0.000000 -37.114863 -10.023908 69.992914
270 25 4 0.000000 -37.173863 -15.847908 73.345914
271 25 4 0.000000 -40.552863 -20.342908 76.657914
272 25 4 0.000000 -45.735863 -23.808908 77.684914
273 26 3 0.000000 -52.456354 50.049578 17.210395
274 26 3 0.000000 -48.617354 47.805578 15.128395
275 26 3 0.000000 -42.676354 46.974578 14.663395
276 26 2 0.000000 -36.769354 45.808578 15.839395
277 26 4 0.000000 -32.986354 41.860578 17.196395
278 26 3 0.000000 -32.521354 36.602578 18.758395
279 26 4 0.000000 -29.659354 32.714578 20.369395
280 26 4 0.000000 -29.718354 26.890578 23.722395
281 26 4 0.000000 -33.097354 22.395578 27.034395
282 26 4 0.000000 -38.280354 18.929578 28.061395
283 27 3 0.000000 -33.938027 -3.325486 -61.860204
284 27 3 0.000000 -30.099027 -5.569486 -63.942204
285 27 3 0.000000 -24.158027 -6.400486 -64.407204
286 27 2 0.000000 -18.251027 -7.566486 -63.231204
287 27 4 0.000000 -14.468027 -11.514486 -61.874204
288 27 3 0.000000 -14.003027 -16.772486 -60.312204
289 27 4 0.000000 -11.141027 -20.660486 -58.701204
290 27 4 0.000000 -11.200027 -26.484486 -55.348204
291 27 4 0.000000 -14.579027 -30.979486 -52.036204
292 27 4 0.000000 -19.762027 -34.445486 -51.009204
293 28 3 0.000000 27.815160 -25.416827 -31.114267
294 28 3 0.000000 31.654160 -27.660827 -33.196267
295 28 3 0.000000 37.595160 -28.491827 -33.661267
296 28 2 0.000000 43.502160 -29.657827 -32.485267
297 28 4 0.000000 47.285160 -33.605827 -31.128267
298 28 3 0.000000 47.750160 -38.863827 -29.566267
299 28 4 0.000000 50.612160 -42.751827 -27.955267
300 28 4 0.000000 50.553160 -48.575827 -24.602267
301 28 4 0.000000 47.174160 -53.070827 -21.290267
302 28 4 0.000000 41.991160 -56.536827 -20.263267
303 29 3 0.000000 49.223721 45.580305 23.650664
304 29 3 0.000000 53.062721 43.336305 21.568664
305 29 3 0.000000 59.003721 42.505305 21.103664
306 29 2 0.000000 64.910721 41.339305 22.279664
307 29 4 0.000000 68.693721 37.391305 23.636664
308 29 3 0.000000 69.158721 32.133305 25.198664
309 29 4 0.000000 72.020721 28.245305 26.809664
310 29 4 0.000000 71.961721 22.421305 30.162664
311 29 4 0.000000 68.582721 17.926305 33.474664
312 29 4 0.000000 63.399721 14.460305 34.501664
313 30 3 0.000000 26.227480 -56.281948 -16.175312
314 30 3 0.000000 30.066480 -58.525948 -18.257312
315 30 3 0.000000 36.007480 -59.356948 -18.722312
316 30 2 0.000000 41.914480 -60.522948 -17.546312
317 30 4 0.000000 45.697480 -64.470948 -16.189312
318 30 3 0.000000 46.162480 -69.728948 -14.627312
319 30 4 0.000000 49.024480 -73.616948 -13.016312
320 30 4 0.000000 48.965480 -79.440948 -9.663312
321 30 4 0.000000 45.586480 -83.935948 -6.351312
322 30 4 0.000000 40.403480 -87.401948 -5.324312
323 31 3 0.000000 18.001688 -10.539766 -45.925208
324 31 3 0.000000 21.840688 -12.783766 -48.007208
325 31 3 0.000000 27.781688 -13.614766 -48.472208
326 31 2 0.000000 33.688688 -14.780766 -47.296208
327 31 4 0.000000 37.471688 -18.728766 -45.939208
328 31 3 0.000000 37.936688 -23.986766 -44.377208
329 31 4 0.000000 40.798688 -27.874766 -42.766208
330 31 4 0.000000 40.739688 -33.698766 -39.413208
331 31 4 0.000000 37.360688 -38.193766 -36.101208
332 31 4 0.000000 32.177688 -41.659766 -35.074208
333 32 3 0.000000 -61.258820 -6.772772 -60.305872
334 32 3 0.000000 -57.419820 -9.016772 -62.387872
335 32 3 0.000000 -51.478820 -9.847772 -62.852872
336 32 2 0.000000 -45.571820 -11.013772 -61.676872
337 32 4 0.000000 -41.788820 -14.961772 -60.319872
338 32 3 0.000000 -41.323820 -20.219772 -58.757872
339 32 4 0.000000 -38.461820 -24.107772 -57.146872
340 32 4 0.000000 -38.520820 -29.931772 -53.793872
341 32 4 0.000000 -41.899820 -34.426772 -50.481872
342 32 4 0.000000 -47.082820 -37.892772 -49.454872
343 33 3 0.000000 48.926114 -47.528615 9.524418
344 33 3 0.000000 52.765114 -49.772615 7.442418
345 33 3 0.000000 58.706114 -50.603615 6.977418
346 33 2 0.000000 64.613114 -51.769615 8.153418
347 33 4 0.000000 68.396114 -55.717615 9.510418
348 33 3 0.000000 68.861114 -60.975615 11.072418
349 33 4 0.000000 71.723114 -64.863615 12.683418
350 33 4 0.000000 71.664114 -70.687615 16.036418
351 33 4 0.000000 68.285114 -75.182615 19.348418
352 33 4 0.000000 63.102114 -78.648615 20.375418
353 34 3 0.000000 23.672498 46.526474 39.535658
354 34 3 0.000000 27.511498 44.282474 37.453658
355 34 3 0.000000 33.452498 43.451474 36.988658
356 34 2 0.000000 39.359498 42.285474 38.164658
357 34 4 0.000000 43.142498 38.337474 39.521658
358 34 3 0.000000 43.607498 33.079474 41.083658
359 34 4 0.000000 46.469498 29.191474 42.694658
360 34 4 0.000000 46.410498 23.367474 46.047658
361 34 4 0.000000 43.031498 18.872474 49.359658
362 34 4 0.000000 37.848498 15.406474 50.386658
363 35 3 0.000000 -74.129597 37.597427 13.497895
364 35 3 0.000000 -70.290597 35.353427 11.415895
365 35 3 0.000000 -64.349597 34.522427 10.950895
366 35 2 0.000000 -58.442597 33.356427 12.126895
367 35 4 0.000000 -54.659597 29.408427 13.483895
368 35 3 0.000000 -54.194597 24.150427 15.045895
369 35 4 0.000000 -51.332597 20.262427 16.656895
370 35 4 0.000000 -51.391597 14.438427 20.009895
371 35 4 0.000000 -54.770597 9.943427 23.321895
372 35 4 0.000000 -59.953597 6.477427 24.348895
373 36 3 0.000000 -22.909914 70.288907 -6.677300
374 36 3 0.000000 -19.070914 68.044907 -8.759300
375 36 3 0.000000 -13.129914 67.213907 -9.224300
376 36 2 0.000000 -7.222914 66.047907 -8.048300
377 36 4 0.000000 -3.439914 62.099907 -6.691300
378 36 3 0.000000 -2.974914 56.841907 -5.129300
379 36 4 0.000000 -0.112914 52.953907 -3.518300
380 36 4 0.000000 -0.171914 47.129907 -0.165300
381 36 4 0.000000 -3.550914 42.634907 3.146700
382 36 4 0.000000 -8.733914 39.168907 4.173700
383 37 3 0.000000 28.971669 7.713474 -45.663663
384 37 3 0.000000 32.810669 5.469474 -47.745663
385 37 3 0.000000 38.751669 4.638474 -48.210663
386 37 2 0.000000 44.658669 3.472474 -47.034663
387 37 4 0.000000 48.441669 -0.475526 -45.677663
388 37 3 0.000000 48.906669 -5.733526 -44.115663
389 37 4 0.000000 51.768669 -9.621526 -42.504663
390 37 4 0.000000 51.709669 -15.445526 -39.151663
391 37 4 0.000000 48.330669 -19.940526 -35.839663
392 37 4 0.000000 43.147669 -23.406526 -34.812663
393 38 3 0.000000 -83.446595 26.427322 -57.185254
394 38 3 0.000000 -79.607595 24.183322 -59.267254
395 38 3 0.000000 -73.666595 23.352322 -59.732254
396 38 2 0.000000 -67.759595 22.186322 -58.556254
397 38 4 0.000000 -63.976595 18.238322 -57.199254
398 38 3 0.000000 -63.511595 12.980322 -55.637254
399 38 4 0.000000 -60.649595 9.092322 -54.026254
400 38 4 0.000000 -60.708595 3.268322 -50.673254
401 38 4 0.000000 -64.087595 -1.226678 -47.361254
402 38 4 0.000000 -69.270595 -4.692678 -46.334254
403 39 3 0.000000 -71.058162 52.077649 -71.674534
404 39 3 0.000000 -67.219162 49.833649 -73.756534
405 39 3 0.000000 -61.278162 49.002649 -74.221534
406 39 2 0.000000 -55.371162 47.836649 -73.045534
407 39 4 0.000000 -51.588162 43.888649 -71.688534
408 39 3 0.000000 -51.123162 38.630649 -70.126534
409 39 4 0.000000 -48.261162 34.742649 -68.515534
410 39 4 0.000000 -48.320162 28.918649 -65.162534
411 39 4 0.000000 -51.699162 24.423649 -61.850534
412 39 4 0.000000 -56.882162 20.957649 -60.823534
413 40 3 0.000000 35.571290 47.853289 -51.179143
414 40 3 0.000000 39.410290 45.609289 -53.261143
415 40 3 0.000000 45.351290 44.778289 -53.726143
416 40 2 0.000000 51.258290 43.612289 -52.550143
417 40 4 0.000000 55.041290 39.664289 -51.193143
418 40 3 0.000000 55.506290 34.406289 -49.631143
419 40 4 0.000000 58.368290 30.518289 -48.020143
420 40 4 0.000000 58.309290 24.694289 -44.667143
421 40 4 0.000000 54.930290 20.199289 -41.355143
422 40 4 0.000000 49.747290 16.733289 -40.328143
423 41 3 0.000000 -71.764253 80.988953 13.743376
424 41 3 0.000000 -67.925253 78.744953 11.661376
425 41 3 0.000000 -61.984253 77.913953 11.196376
426 41 2 0.000000 -56.077253 76.747953 12.372376
427 41 4 0.000000 -52.294253 72.799953 13.729376
428 41 3 0.000000 -51.829253 67.541953 15.291376
429 41 4 0.000000 -48.967253 63.653953 16.902376
430 41 4 0.000000 -49.026253 57.829953 20.255376
431 41 4 0.000000 -52.405253 53.334953 23.567376
432 41 4 0.000000 -57.588253 49.868953 24.594376
433 42 3 0.000000 33.538982 51.991432 63.558781
434 42 3 0.000000 37.377982 49.747432 61.476781
435 42 3 0.000000 43.318982 48.916432 61.011781
436 42 2 0.000000 49.225982 47.750432 62.187781
437 42 4 0.000000 53.008982 43.802432 63.544781
438 42 3 0.000000 53.473982 38.544432 65.106781
439 42 4 0.000000 56.335982 34.656432 66.717781
440 42 4 0.000000 56.276982 28.832432 70.070781
441 42 4 0.000000 52.897982 24.337432 73.382781
442 42 4 0.000000 47.714982 20.871432 74.409781
443 43 3 0.000000 35.968990 20.207072 -61.138283
444 43 3 0.000000 39.807990 17.963072 -63.220283
445 43 3 0.000000 45.748990 17.132072 -63.685283
446 43 2 0.000000 51.655990 15.966072 -62.509283
447 43 4 0.000000 55.438990 12.018072 -61.152283
448 43 3 0.000000 55.903990 6.760072 -59.590283
449 43 4 0.000000 58.765990 2.872072 -57.979283
450 43 4 0.000000 58.706990 -2.951928 -54.626283
451 43 4 0.000000 55.327990 -7.446928 -51.314283
452 43 4 0.000000 50.144990 -10.912928 -50.287283
453 44 3 0.000000 -76.960070 -50.945966 2.231392
454 44 3 0.000000 -73.121070 -53.189966 0.149392
455 44 3 0.000000 -67.180070 -54.020966 -0.315608
456 44 2 0.000000 -61.273070 -55.186966 0.860392
457 44 4 0.000000 -57.490070 -59.134966 2.217392
458 44 3 0.000000 -57.025070 -64.392966 3.779392
459 44 4 0.000000 -54.163070 -68.280966 5.390392
460 44 4 0.000000 -54.222070 -74.104966 8.743392
461 44 4 0.000000 -57.601070 -78.599966 12.055392
462 44 4 0.000000 -62.784070 -82.065966 13.082392
463 45 3 0.000000 -67.063146 -51.366000 59.147734
464 45 3 0.000000 -63.224146 -53.610000 57.065734
465 45 3 0.000000 -57.283146 -54.441000 56.600734
466 45 2 0.000000 -51.376146 -55.607000 57.776734
467 45 4 0.000000 -47.593146 -59.555000 59.133734
468 45 3 0.000000 -47.128146 -64.813000 60.695734
469 45 4 0.000000 -44.266146 -68.701000 62.306734
470 45 4 0.000000 -44.325146 -74.525000 65.659734
471 45 4 0.000000 -47.704146 -79.020000 68.971734
472 45 4 0.000000 -52.887146 -82.486000 69.998734
473 46 3 0.000000 -73.668682 78.118908 -23.560893
474 46 3 0.000000 -69.829682 75.874908 -25.642893
475 46 3 0.000000 -63.888682 75.043908 -26.107893
476 46 2 0.000000 -57.981682 73.877908 -24.931893
477 46 4 0.000000 -54.198682 69.929908 -23.574893
478 46 3 0.000000 -53.733682 64.671908 -22.012893
479 46 4 0.000000 -50.871682 60.783908 -20.401893
480 46 4 0.000000 -50.930682 54.959908 -17.048893
481 46 4 0.000000 -54.309682 50.464908 -13.736893
482 46 4 0.000000 -59.492682 46.998908 -12.709893
483 47 3 0.000000 54.563899 -3.170389 53.094209
484 47 3 0.000000 58.402899 -5.414389 51.012209
485 47 3 0.000000 64.343899 -6.245389 50.547209
486 47 2 0.000000 70.250899 -7.411389 51.723209
487 47 4 0.000000 74.033899 -11.359389 53.080209
488 47 3 0.000000 74.498899 -16.617389 54.642209
489 47 4 0.000000 77.360899 -20.505389 56.253209
490 47 4 0.000000 77.301899 -26.329389 59.606209
491 47 4 0.000000 73.922899 -30.824389 62.918209
492 47 4 0.000000 68.739899 -34.290389 63.945209
493 48 3 0.000000 -55.696332 81.602171 50.882184
494 48 3 0.000000 -51.857332 79.358171 48.800184
495 48 3 0.000000 -45.916332 78.527171 48.335184
496 48 2 0.000000 -40.009332 77.361171 49.511184
497 48 4 0.000000 -36.226332 73.413171 50.868184
498 48 3 0.000000 -35.761332 68.155171 52.430184
499 48 4 0.000000 -32.899332 64.267171 54.041184
500 48 4 0.000000 -32.958332 58.443171 57.394184
501 48 4 0.000000 -36.337332 53.948171 60.706184
502 48 4 0.000000 -41.520332 50.482171 61.733184
503 49 3 0.000000 -53.527210 -7.248598 -44.892602
504 49 3 0.000000 -49.688210 -9.492598 -46.974602
505 49 3 0.000000 -43.747210 -10.323598 -47.439602
506 49 2 0.000000 -37.840210 -11.489598 -46.263602
507 49 4 0.000000 -34.057210 -15.437598 -44.906602
508 49 3 0.000000 -33.592210 -20.695598 -43.344602
509 49 4 0.000000 -30.730210 -24.583598 -41.733602
510 49 4 0.000000 -30.789210 -30.407598 -38.380602
511 49 4 0.000000 -34.168210 -34.902598 -35.068602
512 49 4 0.000000 -39.351210 -38.368598 -34.041602
513 50 3 0.000000 -78.392702 -17.069173 2.755300
514 50 3 0.000000 -74.553702 -19.313173 0.673300
515 50 3 0.000000 -68.612702 -20.144173 0.208300
516 50 2 0.000000 -62.705702 -21.310173 1.384300
517 50 4 0.000000 -58.922702 -25.258173 2.741300
518 50 3 0.000000 -58.457702 -30.516173 4.303300
519 50 4 0.000000 -55.595702 -34.404173 5.914300
520 50 4 0.000000 -55.654702 -40.228173 9.267300
521 50 4 0.000000 -59.033702 -44.723173 12.579300
522 50 4 0.000000 -64.216702 -48.189173 13.606300
523 51 3 0.000000 -59.804229 32.661150 -17.583724
524 51 3 0.000000 -55.965229 30.417150 -19.665724
525 51 3 0.000000 -50.024229 29.586150 -20.130724
526 51 2 0.000000 -44.117229 28.420150 -18.954724
527 51 4 0.000000 -40.334229 24.472150 -17.597724
528 51 3 0.000000 -39.869229 19.214150 -16.035724
529 51 4 0.000000 -37.007229 15.326150 -14.424724
530 51 4 0.000000 -37.066229 9.502150 -11.071724
531 51 4 0.000000 -40.445229 5.007150 -7.759724
532 51 4 0.000000 -45.628229 1.541150 -6.732724
533 52 3 0.000000 -9.145475 27.827454 -71.118937
534 52 3 0.000000 -5.306475 25.583454 -73.200937
535 52 3 0.000000 0.634525 24.752454 -73.665937
536 52 2 0.000000 6.541525 23.586454 -72.489937
537 52 4 0.000000 10.324525 19.638454 -71.132937
538 52 3 0.000000 10.789525 14.380454 -69.570937
539 52 4 0.000000 13.651525 10.492454 -67.959937
540 52 4 0.000000 13.592525 4.668454 -64.606937
541 52 4 0.000000 10.213525 0.173454 -61.294937
542 52 4 0.000000 5.030525 -3.292546 -60.267937
543 53 3 0.000000 -74.796948 -13.567435 23.451160
544 53 3 0.000000 -70.957948 -15.811435 21.369160
545 53 3 0.000000 -65.016948 -16.642435 20.904160
546 53 2 0.000000 -59.109948 -17.808435 22.080160
547 53 4 0.000000 -55.326948 -21.756435 23.437160
548 53 3 0.000000 -54.861948 -27.014435 24.999160
549 53 4 0.000000 -51.999948 -30.902435 26.610160
550 53 4 0.000000 -52.058948 -36.726435 29.963160
551 53 4 0.000000 -55.437948 -41.221435 33.275160
552 53 4 0.000000 -60.620948 -44.687435 34.302160
553 54 3 0.000000 -43.122609 66.125031 40.414913
554 54 3 0.000000 -39.283609 63.881031 38.332913
555 54 3 0.000000 -33.342609 63.050031 37.867913
556 54 2 0.000000 -27.435609 61.884031 39.043913
557 54 4 0.000000 -23.652609 57.936031 40.400913
558 54 3 0.000000 -23.187609 52.678031 41.962913
559 54 4 0.000000 -20.325609 48.790031 43.573913
560 54 4 0.000000 -20.384609 42.966031 46.926913
561 54 4 0.000000 -23.763609 38.471031 50.238913
562 54 4 0.000000 -28.946609 35.005031 51.265913
563 55 3 0.000000 51.063599 67.300544 37.362754
564 55 3 0.000000 54.902599 65.056544 35.280754
565 55 3 0.000000 60.843599 64.225544 34.815754
566 55 2 0.000000 66.750599 63.059544 35.991754
567 55 4 0.000000 70.533599 59.111544 37.348754
568 55 3 0.000000 70.998599 53.853544 38.910754
569 55 4 0.000000 73.860599 49.965544 40.521754
570 55 4 0.000000 73.801599 44.141544 43.874754
571 55 4 0.000000 70.422599 39.646544 47.186754
572 55 4 0.000000 65.239599 36.180544 48.213754
573 56 3 0.000000 -28.301409 81.071888 -45.342615
574 56 3 0.000000 -24.462409 78.827888 -47.424615
575 56 3 0.000000 -18.521409 77.996888 -47.889615
576 56 2 0.000000 -12.614409 76.830888 -46.713615
577 56 4 0.000000 -8.831409 72.882888 -45.356615
578 56 3 0.000000 -8.366409 67.624888 -43.794615
579 56 4 0.000000 -5.504409 63.736888 -42.183615
580 56 4 0.000000 -5.563409 57.912888 -38.830615
581 56 4 0.000000 -8.942409 53.417888 -35.518615
582 56 4 0.000000 -14.125409 49.951888 -34.491615
583 57 3 0.000000 -9.162465 58.974316 -64.604662
584 57 3 0.000000 -5.323465 56.730316 -66.686662
585 57 3 0.000000 0.617535 55.899316 -67.151662
586 57 2 0.000000 6.524535 54.733316 -65.975662
587 57 4 0.000000 10.307535 50.785316 -64.618662
588 57 3 0.000000 10.772535 45.527316 -63.056662
589 57 4 0.000000 13.634535 41.639316 -61.445662
590 57 4 0.000000 13.575535 35.815316 -58.092662
591 57 4 0.000000 10.196535 31.320316 -54.780662
592 57 4 0.000000 5.013535 27.854316 -53.753662
593 58 3 0.000000 -62.092631 -2.284412 5.045044
594 58 3 0.000000 -58.253631 -4.528412 2.963044
595 58 3 0.000000 -52.312631 -5.359412 2.498044
596 58 2 0.000000 -46.405631 -6.525412 3.674044
597 58 4 0.000000 -42.622631 -10.473412 5.031044
598 58 3 0.000000 -42.157631 -15.731412 6.593044
599 58 4 0.000000 -39.295631 -19.619412 8.204044
600 58 4 0.000000 -39.354631 -25.443412 11.557044
601 58 4 0.000000 -42.733631 -29.938412 14.869044
602 58 4 0.000000 -47.916631 -33.404412 15.896044
603 59 3 0.000000 18.161194 -45.546471 7.035217
604 59 3 0.000000 22.000194 -47.790471 4.953217
605 59 3 0.000000 27.941194 -48.621471 4.488217
606 59 2 0.000000 33.848194 -49.787471 5.664217
607 59 4 0.000000 37.631194 -53.735471 7.021217
608 59 3 0.000000 38.096194 -58.993471 8.583217
609 59 4 0.000000 40.958194 -62.881471 10.194217
610 59 4 0.000000 40.899194 -68.705471 13.547217