LAMMPS (29 Aug 2024)
  using 1 OpenMP thread(s) per MPI task
  using 1 OpenMP thread(s) per MPI task
Reading data file ...
  orthogonal box = (-80 -80 -80) to (80 80 80)
  2 by 4 by 4 MPI processor grid
  reading atoms ...
  1032 atoms
  scanning bonds ...
  1 = max bonds/atom
  scanning angles ...
  1 = max angles/atom
  orthogonal box = (-80 -80 -80) to (80 80 80)
  2 by 4 by 4 MPI processor grid
  reading bonds ...
  931 bonds
  reading angles ...
  830 angles
Finding 1-2 1-3 1-4 neighbors ...
  special bond factors lj:    0        0        0       
  special bond factors coul:  0        0        0       
     2 = max # of 1-2 neighbors
     2 = max # of 1-3 neighbors
     4 = max # of 1-4 neighbors
     6 = max # of special neighbors
  special bonds CPU = 0.001 seconds
  read_data CPU = 0.014 seconds
Finding 1-2 1-3 1-4 neighbors ...
  special bond factors lj:    0        0        1       
  special bond factors coul:  0        0        0       
     2 = max # of 1-2 neighbors
     2 = max # of 1-3 neighbors
     4 = max # of 1-4 neighbors
     6 = max # of special neighbors
  special bonds CPU = 0.000 seconds

CITE-CITE-CITE-CITE-CITE-CITE-CITE-CITE-CITE-CITE-CITE-CITE-CITE

Your simulation uses code contributions which should be cited:
- Type Label Framework: https://doi.org/10.1021/acs.jpcb.3c08419
The log file lists these citations in BibTeX format.

CITE-CITE-CITE-CITE-CITE-CITE-CITE-CITE-CITE-CITE-CITE-CITE-CITE

Switching to 'neigh_modify every 1 delay 0 check yes' setting during minimization
Generated 0 of 6 mixed pair_coeff terms from geometric mixing rule
Neighbor list info ...
  update: every = 1 steps, delay = 0 steps, check = yes
  max neighbors/atom: 2000, page size: 100000
  master list distance cutoff = 33
  ghost atom cutoff = 33
  binsize = 16.5, bins = 10 10 10
  2 neighbor lists, perpetual/occasional/extra = 2 0 0
  (1) pair lj/cut, perpetual, trim from (2)
      attributes: half, newton on, cut 25
      pair build: trim
      stencil: none
      bin: none
  (2) pair base/rna, perpetual
      attributes: half, newton on
      pair build: half/bin/newton
      stencil: half/bin/3d
      bin: standard
Setting up cg style minimization ...
  Unit style    : real
  Current step  : 0
Per MPI rank memory allocation (min/avg/max) = 8.406 | 8.428 | 8.674 Mbytes
   Step          Temp          E_pair         E_mol          TotEng         Press     
         0   0              1.826834e+09   2470.137       1.8268365e+09  1.2233748e+08
      1000   0             -465.76337      20.603387     -445.15998     -1.055843     
Loop time of 0.125012 on 32 procs for 1000 steps with 1032 atoms

98.4% CPU use with 32 MPI tasks x 1 OpenMP threads

Minimization stats:
  Stopping criterion = max iterations
  Energy initial, next-to-last, final = 
      1826836468.39187  -444.656782287024  -445.159979046801
  Force two-norm initial, final = 1.109317e+10 3.7464262
  Force max component initial, final = 6.4052606e+09 0.70366547
  Final line search alpha, max atom move = 0.040432594 0.02845102
  Iterations, force evaluations = 1000 1492

MPI task timing breakdown:
Section |  min time  |  avg time  |  max time  |%varavg| %total
---------------------------------------------------------------
Pair    | 0.01426    | 0.032761   | 0.064898   |   7.0 | 26.21
Bond    | 0.00022885 | 0.0017519  | 0.0034359  |   1.6 |  1.40
Neigh   | 0.00039081 | 0.00040607 | 0.00042403 |   0.0 |  0.32
Comm    | 0.034412   | 0.059039   | 0.082157   |   5.5 | 47.23
Output  | 2.567e-05  | 2.5905e-05 | 2.705e-05  |   0.0 |  0.02
Modify  | 0          | 0          | 0          |   0.0 |  0.00
Other   |            | 0.03103    |            |       | 24.82

Nlocal:          32.25 ave          63 max           4 min
Histogram: 1 4 1 6 7 3 5 3 1 1
Nghost:        370.906 ave         468 max         273 min
Histogram: 2 1 6 2 5 4 3 6 1 2
Neighs:        316.938 ave         828 max          16 min
Histogram: 4 5 6 5 4 2 2 1 1 2

Total # of neighbors = 10142
Ave neighs/atom = 9.8275194
Ave special neighs/atom = 4.8255814
Neighbor list builds = 5
Dangerous builds = 0
Generated 0 of 6 mixed pair_coeff terms from geometric mixing rule
Setting up Verlet run ...
  Unit style    : real
  Current step  : 0
  Time step     : 10
Per MPI rank memory allocation (min/avg/max) = 7.296 | 7.331 | 7.565 Mbytes
   Step         PotEng         KinEng         TotEng          Temp     
         0  -445.15998      921.96455      476.80457      300          
     10000  -266.19575      743.12366      476.92791      241.80659    
     20000  -336.12091      812.98844      476.86753      264.54003    
     30000  -356.09093      832.96783      476.8769       271.04117    
     40000  -340.56302      817.47687      476.91385      266.00053    
     50000  -334.52282      811.44079      476.91797      264.03644    
     60000  -396.38019      873.25788      476.87769      284.15123    
     70000  -334.31581      811.19677      476.88096      263.95704    
     80000  -352.62637      829.51234      476.88597      269.91678    
     90000  -354.49847      831.36357      476.86509      270.51915    
    100000  -345.39601      822.28308      476.88708      267.56444    
    110000  -377.32379      854.15829      476.8345       277.93638    
    120000  -386.98809      863.83111      476.84302      281.08384    
    130000  -375.4486       852.27686      476.82827      277.32418    
    140000  -369.44601      846.26548      476.81947      275.36812    
    150000  -355.21148      832.02307      476.81159      270.73375    
    160000  -379.25874      856.08692      476.82818      278.56394    
    170000  -380.96193      857.71561      476.75368      279.0939     
    180000  -374.08844      850.82724      476.7388       276.85248    
    190000  -349.70819      826.3295       476.62131      268.88111    
    200000  -381.87697      858.49914      476.62217      279.34886    
    210000  -354.59865      831.31574      476.71708      270.50359    
    220000  -377.78302      854.50808      476.72506      278.0502     
    230000  -357.45704      834.20636      476.74932      271.44418    
    240000  -348.81912      825.65504      476.83592      268.66164    
    250000  -368.43819      845.29991      476.86172      275.05393    
    260000  -376.67054      853.53931      476.86877      277.73497    
    270000  -372.32676      849.21449      476.88774      276.32771    
    280000  -334.25944      811.2379       476.97846      263.97042    
    290000  -370.88858      847.89362      477.00504      275.8979     
    300000  -342.04588      819.05332      477.00744      266.5135     
    310000  -380.83163      857.84883      477.0172       279.13725    
    320000  -352.58839      829.61109      477.0227       269.94891    
    330000  -402.9042       879.95394      477.04974      286.33008    
    340000  -393.26428      870.28503      477.02075      283.18389    
    350000  -389.8595       866.81108      476.95159      282.0535     
    360000  -376.97836      853.96865      476.9903       277.87467    
    370000  -382.79199      859.76218      476.97019      279.75984    
    380000  -367.77452      844.68782      476.9133       274.85476    
    390000  -401.35845      878.27572      476.91727      285.784      
    400000  -362.61513      839.57283      476.9577       273.19038    
    410000  -363.20366      840.16629      476.96263      273.38349    
    420000  -350.87839      827.80857      476.93019      269.36239    
    430000  -357.66224      834.61506      476.95282      271.57717    
    440000  -395.47037      872.42423      476.95386      283.87997    
    450000  -353.70203      830.57373      476.8717       270.26215    
    460000  -369.23906      846.15606      476.917        275.33252    
    470000  -346.71513      823.60173      476.8866       267.99352    
    480000  -401.2216       878.04343      476.82183      285.70841    
    490000  -386.30231      863.15771      476.8554       280.86472    
    500000  -409.27809      886.09795      476.81986      288.32929    
    510000  -381.10583      858.02293      476.9171       279.1939     
    520000  -383.88152      860.81413      476.93261      280.10214    
    530000  -378.92986      855.89131      476.96145      278.50029    
    540000  -366.58143      843.57904      476.99761      274.49397    
    550000  -359.5076       836.54912      477.04152      272.20649    
    560000  -355.2289       832.23109      477.00219      270.80144    
    570000  -374.12612      851.13965      477.01353      276.95414    
    580000  -376.22413      853.24197      477.01783      277.63821    
    590000  -382.59324      859.49312      476.89988      279.67229    
    600000  -376.52812      853.35069      476.82257      277.67359    
    610000  -372.04854      848.92386      476.87531      276.23314    
    620000  -388.48967      865.36022      476.87055      281.5814     
    630000  -341.80537      818.69216      476.88679      266.39598    
    640000  -377.52543      854.39818      476.87275      278.01444    
    650000  -366.26871      843.20712      476.93841      274.37295    
    660000  -381.71844      858.73893      477.02049      279.42688    
    670000  -371.93885      848.98699      477.04814      276.25368    
    680000  -404.00783      881.06562      477.05778      286.69181    
    690000  -383.68439      860.67192      476.98753      280.05586    
    700000  -382.17524      859.21133      477.03609      279.5806     
    710000  -386.98328      864.00569      477.02241      281.14064    
    720000  -394.5194       871.78562      477.26622      283.67217    
    730000  -343.75719      821.01512      477.25793      267.15185    
    740000  -352.48601      829.74648      477.26047      269.99297    
    750000  -385.30479      862.54295      477.23816      280.66468    
    760000  -345.73916      823.04777      477.30861      267.81326    
    770000  -370.2845       847.57017      477.28568      275.79266    
    780000  -319.74568      797.07373      477.32804      259.36151    
    790000  -375.13728      852.46275      477.32547      277.38466    
    800000  -378.2702       855.67469      477.40449      278.4298     
    810000  -347.02448      824.40179      477.3773       268.25385    
    820000  -364.85885      842.1765       477.31765      274.0376     
    830000  -343.50548      820.81176      477.30628      267.08568    
    840000  -331.87603      809.23231      477.35628      263.31782    
    850000  -351.1684       828.55922      477.39082      269.60664    
    860000  -334.50841      811.8985       477.39009      264.18538    
    870000  -372.2697       849.67081      477.40111      276.47619    
    880000  -358.0729       835.42844      477.35553      271.84183    
    890000  -376.67184      853.99112      477.31928      277.88198    
    900000  -375.24307      852.56198      477.31892      277.41695    
    910000  -392.70021      870.08577      477.38556      283.11905    
    920000  -379.68217      857.12431      477.44214      278.9015     
    930000  -355.89642      833.33156      477.43514      271.15953    
    940000  -383.76168      861.18317      477.42149      280.22222    
    950000  -374.55222      852.01062      477.4584       277.23754    
    960000  -372.91637      850.37646      477.46009      276.7058     
    970000  -370.1691       847.62717      477.45806      275.8112     
    980000  -358.7544       836.16915      477.41475      272.08285    
    990000  -325.64577      803.04434      477.39857      261.3043     
   1000000  -349.15897      826.60164      477.44268      268.96966    
   1010000  -357.67137      835.06634      477.39497      271.72401    
   1020000  -354.11393      831.54478      477.43085      270.57812    
   1030000  -382.73733      860.27671      477.53938      279.92726    
   1040000  -355.11256      832.69496      477.58241      270.95238    
   1050000  -324.67414      802.17948      477.50534      261.02288    
   1060000  -363.6492       841.15242      477.50323      273.70437    
   1070000  -388.99503      866.76949      477.77446      282.03996    
   1080000  -348.21533      825.97598      477.76065      268.76608    
   1090000  -364.15773      841.91247      477.75474      273.95168    
   1100000  -335.05334      812.83172      477.77838      264.48904    
   1110000  -351.67218      829.42501      477.75283      269.88836    
   1120000  -338.16672      815.88338      477.71666      265.48202    
   1130000  -355.9026       833.58199      477.67939      271.24101    
   1140000  -350.8857       828.51578      477.63007      269.59251    
   1150000  -361.24204      838.89782      477.65577      272.97074    
   1160000  -351.97501      829.57705      477.60205      269.93784    
   1170000  -404.31963      881.86213      477.5425       286.95099    
   1180000  -388.57976      866.09053      477.51077      281.81903    
   1190000  -399.94571      877.45349      477.50778      285.51645    
   1200000  -386.83495      864.3417       477.50675      281.24998    
   1210000  -357.17948      834.70471      477.52523      271.60634    
   1220000  -378.09854      855.55864      477.4601       278.39204    
   1230000  -351.66163      829.14907      477.48744      269.79857    
   1240000  -368.95453      846.52727      477.57274      275.4533     
   1250000  -380.64657      858.22357      477.57699      279.25919    
   1260000  -376.1329       853.76857      477.63567      277.80957    
   1270000  -375.78286      853.44027      477.65741      277.70274    
   1280000  -341.02897      818.65043      477.62146      266.3824     
   1290000  -382.7893       860.431        477.6417       279.97747    
   1300000  -343.73876      821.39176      477.653        267.27441    
   1310000  -353.67301      831.3358       477.66279      270.51012    
   1320000  -360.04555      837.68238      477.63682      272.57525    
   1330000  -352.12564      829.66821      477.54257      269.9675     
   1340000  -334.96528      812.51203      477.54675      264.38501    
   1350000  -332.83422      810.37482      477.5406       263.68958    
   1360000  -376.74657      854.29085      477.54428      277.97951    
   1370000  -339.139        816.74515      477.60615      265.76244    
   1380000  -384.1623       861.79836      477.63606      280.4224     
   1390000  -364.25936      841.82261      477.56325      273.92245    
   1400000  -358.8732       836.40836      477.53516      272.16069    
   1410000  -333.01828      810.56202      477.54374      263.75049    
   1420000  -367.65372      845.14967      477.49595      275.00504    
   1430000  -372.19178      849.70203      477.51025      276.48635    
   1440000  -334.6385       812.19001      477.55152      264.28023    
   1450000  -360.86038      838.43849      477.57812      272.82128    
   1460000  -370.52963      848.13963      477.61         275.97795    
   1470000  -368.86292      846.44364      477.58072      275.42609    
   1480000  -395.97117      873.58314      477.61196      284.25707    
   1490000  -385.19204      862.82857      477.63653      280.75762    
   1500000  -374.38009      851.82311      477.44302      277.17653    
   1510000  -373.16983      850.59817      477.42834      276.77794    
   1520000  -378.29217      855.75749      477.46532      278.45674    
   1530000  -400.96437      878.39889      477.43452      285.82408    
   1540000  -388.94287      866.29393      477.35106      281.88522    
   1550000  -364.73916      842.13849      477.39933      274.02523    
   1560000  -390.70611      868.12169      477.41558      282.47996    
   1570000  -416.07915      893.50932      477.43016      290.74089    
   1580000  -373.03455      850.50299      477.46844      276.74697    
   1590000  -392.00028      869.50337      477.50309      282.92954    
   1600000  -354.88074      832.33988      477.45914      270.83684    
   1610000  -373.4209       850.8888       477.4679       276.87251    
   1620000  -365.45561      842.89506      477.43945      274.27141    
   1630000  -369.4827       846.91173      477.42903      275.5784     
   1640000  -380.62093      857.94901      477.32808      279.16985    
   1650000  -342.14493      819.48085      477.33593      266.65261    
   1660000  -396.3464       873.63864      477.29224      284.27513    
   1670000  -359.03086      836.35149      477.32063      272.14219    
   1680000  -362.58282      839.9101       477.32729      273.30013    
   1690000  -326.60331      803.90693      477.30362      261.58498    
   1700000  -354.16172      831.49629      477.33456      270.56234    
   1710000  -381.00478      858.31693      477.31215      279.28957    
   1720000  -351.17208      828.4685       477.29642      269.57712    
   1730000  -391.97273      869.29039      477.31766      282.86024    
   1740000  -357.59323      834.93679      477.34357      271.68185    
   1750000  -336.10534      813.47857      477.37323      264.69952    
   1760000  -361.42207      838.8001       477.37803      272.93894    
   1770000  -342.75605      820.16699      477.41093      266.87588    
   1780000  -325.18692      802.58817      477.40125      261.15587    
   1790000  -334.15624      811.52989      477.37365      264.06543    
   1800000  -341.8604       819.27714      477.41674      266.58633    
   1810000  -366.15662      843.55275      477.39613      274.48542    
   1820000  -362.81794      840.22377      477.40583      273.40219    
   1830000  -363.68393      841.09897      477.41504      273.68698    
   1840000  -372.5688       849.99408      477.42528      276.58138    
   1850000  -362.92408      840.3425       477.41842      273.44083    
   1860000  -331.91475      809.34074      477.42599      263.3531     
   1870000  -335.95027      813.44485      477.49459      264.68855    
   1880000  -332.34767      809.86385      477.51618      263.52332    
   1890000  -363.00829      840.56511      477.55683      273.51326    
   1900000  -335.98103      813.52313      477.5421       264.71402    
   1910000  -344.52665      822.04953      477.52288      267.48844    
   1920000  -357.86248      835.46863      477.60615      271.85491    
   1930000  -379.46529      857.11057      477.64528      278.89703    
   1940000  -329.36985      806.99071      477.62086      262.58842    
   1950000  -348.72591      826.41837      477.69247      268.91003    
   1960000  -339.78676      817.51671      477.72995      266.0135     
   1970000  -354.08609      831.81213      477.72604      270.66511    
   1980000  -375.5635       853.26716      477.70366      277.64641    
   1990000  -358.61499      836.26368      477.64869      272.11361    
   2000000  -365.59369      843.22553      477.63184      274.37895    
   2010000  -362.76775      840.40167      477.63393      273.46008    
   2020000  -409.59008      887.22416      477.63408      288.69575    
   2030000  -400.11813      877.82259      477.70446      285.63655    
   2040000  -378.42212      856.1057       477.68358      278.57005    
   2050000  -358.44864      836.12267      477.67403      272.06773    
   2060000  -347.75096      825.48412      477.73317      268.60603    
   2070000  -355.60415      833.3365       477.73236      271.16113    
   2080000  -350.44903      828.21678      477.76775      269.49521    
   2090000  -381.2157       858.97518      477.75947      279.50376    
   2100000  -385.50783      863.28157      477.77374      280.90502    
   2110000  -382.23823      859.99255      477.75433      279.8348     
   2120000  -358.75651      836.5426       477.78609      272.20437    
   2130000  -355.08069      832.86299      477.7823       271.00705    
   2140000  -345.17928      822.96608      477.7868       267.78668    
   2150000  -375.29622      853.05015      477.75393      277.5758     
   2160000  -369.44792      847.12568      477.67776      275.64802    
   2170000  -381.45255      859.12603      477.67348      279.55284    
   2180000  -354.15702      831.72282      477.5658       270.63605    
   2190000  -353.39675      830.98087      477.58412      270.39463    
   2200000  -329.62913      807.18229      477.55316      262.65076    
   2210000  -355.17088      832.7259       477.55502      270.96245    
   2220000  -352.11096      829.64827      477.53731      269.96101    
   2230000  -363.21536      840.77279      477.55744      273.58084    
   2240000  -368.51949      846.03264      477.51315      275.29235    
   2250000  -388.55079      865.98254      477.43175      281.7839     
   2260000  -330.55245      808.02822      477.47577      262.92602    
   2270000  -361.56391      839.06204      477.49814      273.02418    
   2280000  -386.03314      863.41931      477.38616      280.94984    
   2290000  -369.95885      847.23694      477.27809      275.68422    
   2300000  -382.02185      859.32014      477.29829      279.616      
   2310000  -354.07227      831.35583      477.28356      270.51664    
   2320000  -346.94724      824.26507      477.31783      268.20936    
   2330000  -352.03281      829.31911      477.2863       269.8539     
   2340000  -355.60846      832.89959      477.29113      271.01897    
   2350000  -380.42837      857.76952      477.34115      279.11144    
   2360000  -350.71351      828.07155      477.35804      269.44796    
   2370000  -347.67818      824.94584      477.26766      268.43088    
   2380000  -358.18813      835.50669      477.31856      271.86729    
   2390000  -376.27836      853.58764      477.30928      277.75069    
   2400000  -346.77161      824.04727      477.27565      268.13849    
   2410000  -333.5524       810.82274      477.27034      263.83533    
   2420000  -344.08554      821.3588       477.27326      267.26368    
   2430000  -352.9662       830.17253      477.20633      270.1316     
   2440000  -324.14648      801.48338      477.33689      260.79638    
   2450000  -383.20708      860.5287       477.32162      280.00926    
   2460000  -350.99266      828.31077      477.31811      269.5258     
   2470000  -369.53643      846.8604       477.32397      275.5617     
   2480000  -331.30672      808.56666      477.25994      263.10122    
   2490000  -396.39918      873.6538       477.25461      284.28006    
   2500000  -345.37691      822.56339      477.18648      267.65565    
   2510000  -381.22181      858.45159      477.22977      279.33338    
   2520000  -378.30282      855.62378      477.32096      278.41324    
   2530000  -372.91336      850.20919      477.29584      276.65137    
   2540000  -392.61964      869.88306      477.26343      283.05309    
   2550000  -358.58631      835.91212      477.32582      271.99922    
   2560000  -390.15343      867.48081      477.32738      282.27142    
   2570000  -405.36333      882.62543      477.26211      287.19936    
   2580000  -382.84745      860.18819      477.34074      279.89846    
   2590000  -373.66021      851.01632      477.3561       276.914      
   2600000  -388.57873      865.96749      477.38875      281.779      
   2610000  -377.25829      854.63311      477.37482      278.09088    
   2620000  -356.12262      833.47576      477.35314      271.20644    
   2630000  -388.9658       866.32044      477.35464      281.89384    
   2640000  -375.65632      853.01559      477.35927      277.56455    
   2650000  -379.99967      857.34295      477.34328      278.97264    
   2660000  -374.13009      851.48408      477.354        277.06621    
   2670000  -357.67629      835.0196       477.34331      271.7088     
   2680000  -383.99084      861.35208      477.36124      280.27718    
   2690000  -383.15691      860.49306      477.33615      279.99766    
   2700000  -350.93787      828.2746       477.33672      269.51403    
   2710000  -331.45872      808.81368      477.35497      263.1816     
   2720000  -326.46163      803.69368      477.23206      261.51559    
   2730000  -399.35404      876.59373      477.23969      285.23669    
   2740000  -365.19875      842.44115      477.24239      274.12371    
   2750000  -378.76391      856.04206      477.27815      278.54934    
   2760000  -369.53267      846.83427      477.3016       275.5532     
   2770000  -358.95359      836.31244      477.35885      272.12948    
   2780000  -367.85382      845.18403      477.3302       275.01622    
   2790000  -341.0102       818.35663      477.34643      266.2868     
   2800000  -381.59531      858.9355       477.34019      279.49085    
   2810000  -373.24996      850.59477      477.34481      276.77684    
   2820000  -339.39636      816.71387      477.31751      265.75226    
   2830000  -371.44402      848.76868      477.32466      276.18264    
   2840000  -365.60277      842.96516      477.36239      274.29422    
   2850000  -367.34952      844.70878      477.35926      274.86158    
   2860000  -364.32575      841.67832      477.35257      273.87549    
   2870000  -344.83116      822.17783      477.34666      267.53019    
   2880000  -350.32357      827.60454      477.28097      269.296      
   2890000  -363.46805      840.69733      477.22929      273.55629    
   2900000  -365.1461       842.53058      477.38448      274.15281    
   2910000  -338.66762      816.04584      477.37822      265.53489    
   2920000  -365.7261       843.01938      477.29329      274.31187    
   2930000  -370.45401      847.77445      477.32044      275.85913    
   2940000  -377.73453      855.1069       477.37237      278.24505    
   2950000  -357.30721      834.72914      477.42192      271.61428    
   2960000  -387.80513      865.16707      477.36194      281.51855    
   2970000  -370.06396      847.41947      477.35551      275.74362    
   2980000  -364.64439      841.92576      477.28136      273.95601    
   2990000  -352.98614      830.27783      477.29169      270.16586    
   3000000  -345.14968      822.4355       477.28582      267.61403    
   3010000  -382.55971      859.78176      477.22205      279.76621    
   3020000  -340.8057       818.06249      477.2568       266.19109    
   3030000  -390.10279      867.3472       477.24441      282.22794    
   3040000  -383.34019      860.61386      477.27367      280.03697    
   3050000  -403.63673      880.91773      477.281        286.64369    
   3060000  -375.53494      852.81152      477.27658      277.49815    
   3070000  -362.69839      839.98719      477.2888       273.32521    
   3080000  -390.33004      867.61398      477.28394      282.31475    
   3090000  -343.47064      820.80051      477.32987      267.08202    
   3100000  -336.16595      813.47818      477.31224      264.69939    
   3110000  -375.42487      852.78037      477.3555       277.48801    
   3120000  -376.67104      853.96299      477.29195      277.87283    
   3130000  -361.20478      838.53949      477.33471      272.85414    
   3140000  -363.22271      840.53521      477.31251      273.50354    
   3150000  -378.63487      856.01434      477.37946      278.54032    
   3160000  -359.64609      837.01763      477.37154      272.35894    
   3170000  -363.36097      840.72201      477.36104      273.56432    
   3180000  -360.88338      838.17157      477.28819      272.73442    
   3190000  -340.46376      817.63649      477.17273      266.05247    
   3200000  -355.53209      832.6881       477.15601      270.95015    
   3210000  -352.38239      829.56282      477.18043      269.93321    
   3220000  -358.83962      836.03087      477.19125      272.03786    
   3230000  -354.60567      831.82302      477.21735      270.66866    
   3240000  -353.65765      830.84932      477.19167      270.35182    
   3250000  -341.47145      818.64744      477.17598      266.38143    
   3260000  -339.51083      816.68115      477.17032      265.74161    
   3270000  -347.10651      824.27895      477.17245      268.21388    
   3280000  -335.99367      813.11384      477.12016      264.58084    
   3290000  -345.97225      823.11109      477.13883      267.83386    
   3300000  -355.92429      833.02543      477.10114      271.05991    
   3310000  -350.68415      827.79187      477.10772      269.35695    
   3320000  -375.80972      852.8601       477.05038      277.51396    
   3330000  -363.93815      841.00518      477.06703      273.65646    
   3340000  -347.19302      824.31379      477.12077      268.22521    
   3350000  -349.45736      826.55626      477.09891      268.9549     
   3360000  -365.25056      842.30225      477.05169      274.07852    
   3370000  -342.70843      819.78563      477.07719      266.75178    
   3380000  -308.9447       786.0336       477.0889       255.76914    
   3390000  -354.94374      832.01519      477.07145      270.73119    
   3400000  -348.28391      825.38915      477.10524      268.57513    
   3410000  -369.70944      846.84135      477.13191      275.5555     
   3420000  -357.40901      834.39972      476.99072      271.5071     
   3430000  -336.77366      813.77626      477.0026       264.79638    
   3440000  -387.65618      864.6777       477.02152      281.35931    
   3450000  -339.65372      816.74009      477.08637      265.76079    
   3460000  -346.17914      823.26036      477.08122      267.88243    
   3470000  -357.05363      834.11703      477.0634       271.41511    
   3480000  -365.68153      842.71988      477.03835      274.21441    
   3490000  -375.50405      852.54027      477.03622      277.40989    
   3500000  -319.97139      797.0064       477.03501      259.3396     
   3510000  -381.45362      858.53035      477.07672      279.35901    
   3520000  -381.22874      858.28485      477.05611      279.27913    
   3530000  -377.29797      854.29743      476.99946      277.98165    
   3540000  -369.06547      846.02695      476.96148      275.2905     
   3550000  -333.49993      810.46275      476.96281      263.71819    
   3560000  -366.96336      843.8862       476.92284      274.59392    
   3570000  -368.36068      845.27874      476.91806      275.04704    
   3580000  -363.27529      840.24106      476.96578      273.40782    
   3590000  -384.98056      861.92849      476.94793      280.46474    
   3600000  -363.4682       840.40194      476.93374      273.46017    
   3610000  -374.23451      851.18972      476.95521      276.97043    
   3620000  -350.64129      827.65684      477.01555      269.31302    
   3630000  -390.36671      867.3133       476.94659      282.21691    
   3640000  -407.95318      884.91652      476.96334      287.94486    
   3650000  -376.68314      853.62985      476.94671      277.76443    
   3660000  -359.90596      836.8857       476.97974      272.31601    
   3670000  -426.65105      903.60782      476.95676      294.02686    
   3680000  -352.39662      829.36831      476.97169      269.86991    
   3690000  -374.62576      851.5855       476.95974      277.09921    
   3700000  -380.10868      857.07572      476.96703      278.88569    
   3710000  -373.72064      850.63731      476.91667      276.79068    
   3720000  -399.94196      876.85718      476.91522      285.32242    
   3730000  -386.24549      863.24417      476.99868      280.89285    
   3740000  -376.32172      853.35264      477.03092      277.67423    
   3750000  -342.01144      819.1109       477.09946      266.53223    
   3760000  -346.43515      823.61651      477.18137      267.99832    
   3770000  -397.7656       874.95098      477.18538      284.70215    
   3780000  -362.18083      839.38546      477.20463      273.12941    
   3790000  -397.81184      875.0258       477.21396      284.7265     
   3800000  -348.89733      826.07241      477.17508      268.79745    
   3810000  -357.67206      834.84714      477.17508      271.65268    
   3820000  -368.68675      845.9012       477.21445      275.24959    
   3830000  -387.90058      865.11226      477.21167      281.50071    
   3840000  -397.56703      874.70731      477.14028      284.62287    
   3850000  -362.52292      839.69468      477.17176      273.23003    
   3860000  -359.43509      836.57417      477.13908      272.21464    
   3870000  -403.22709      880.3191       477.09201      286.4489     
   3880000  -383.55411      860.6652       477.1111       280.05368    
   3890000  -377.70608      854.88758      477.1815       278.17368    
   3900000  -384.70451      861.94225      477.23774      280.46922    
   3910000  -405.51499      882.77985      477.26486      287.24961    
   3920000  -353.96415      831.2091       477.24495      270.46889    
   3930000  -356.64364      833.87829      477.23465      271.33743    
   3940000  -358.91372      836.1525       477.23878      272.07743    
   3950000  -361.80402      839.01382      477.2098       273.00849    
   3960000  -377.35793      854.52879      477.17087      278.05694    
   3970000  -358.93387      836.14907      477.2152       272.07632    
   3980000  -318.98485      796.26748      477.28262      259.09916    
   3990000  -336.29239      813.55627      477.26389      264.7248     
   4000000  -321.29845      798.62368      477.32523      259.86585    
   4010000  -370.59842      847.94663      477.34821      275.91515    
   4020000  -347.8291       825.24454      477.41543      268.52807    
   4030000  -345.02128      822.47604      477.45476      267.62722    
   4040000  -348.92406      826.50861      477.58455      268.93939    
   4050000  -358.92386      836.57701      477.65315      272.21557    
   4060000  -359.44357      837.09987      477.65631      272.3857     
   4070000  -365.76186      843.42496      477.6631       274.44384    
   4080000  -380.80309      858.48402      477.68093      279.34393    
   4090000  -383.11969      860.80892      477.68923      280.10044    
   4100000  -359.8491       837.44336      477.59426      272.49747    
   4110000  -358.71042      836.3304       477.61998      272.13532    
   4120000  -356.78659      834.30635      477.51977      271.47671    
   4130000  -373.10629      850.70647      477.60018      276.81318    
   4140000  -335.65457      813.19998      477.5454       264.60886    
   4150000  -365.31351      842.79799      477.48448      274.23983    
   4160000  -364.08646      841.56998      477.48352      273.84024    
   4170000  -377.94225      855.36615      477.42391      278.32941    
   4180000  -383.81758      861.22318      477.4056       280.23524    
   4190000  -397.11017      874.58853      477.47837      284.58422    
   4200000  -335.30413      812.7966       477.49247      264.47761    
   4210000  -375.31976      852.74617      477.42641      277.47689    
   4220000  -435.59941      913.21427      477.61487      297.15273    
   4230000  -387.9414       865.57667      477.63528      281.65183    
   4240000  -365.18083      842.93996      477.75913      274.28602    
   4250000  -384.11489      861.86248      477.74759      280.44326    
   4260000  -398.74072      876.52143      477.78071      285.21317    
   4270000  -393.81523      871.56624      477.75101      283.60079    
   4280000  -381.49044      859.23811      477.74767      279.58931    
   4290000  -352.49998      830.29088      477.7909       270.17011    
   4300000  -363.24474      841.05959      477.81485      273.67416    
   4310000  -401.13526      878.90096      477.7657       285.98745    
   4320000  -366.87502      844.66563      477.79061      274.84754    
   4330000  -335.28887      813.0605       477.77163      264.56348    
   4340000  -359.06047      836.84868      477.78821      272.30397    
   4350000  -358.00466      835.78234      477.77768      271.95699    
   4360000  -316.57463      794.41961      477.84498      258.49788    
   4370000  -363.38368      841.18837      477.80469      273.71607    
   4380000  -321.01321      798.83424      477.82103      259.93437    
   4390000  -346.94317      824.83927      477.8961       268.3962     
   4400000  -364.4409       842.31308      477.87218      274.08204    
   4410000  -332.89581      810.78879      477.89297      263.82428    
   4420000  -375.08833      852.91608      477.82775      277.53217    
   4430000  -359.46749      837.35608      477.88859      272.46907    
   4440000  -348.72159      826.64672      477.92513      268.98433    
   4450000  -369.8793       847.67391      477.79461      275.82641    
   4460000  -391.50862      869.32839      477.81977      282.87261    
   4470000  -353.63431      831.50693      477.87262      270.5658     
   4480000  -390.37028      868.20647      477.83619      282.50755    
   4490000  -389.8703       867.66827      477.79797      282.33242    
   4500000  -400.47934      878.21775      477.73841      285.76514    
   4510000  -315.7419       793.453        477.71109      258.18335    
   4520000  -376.63943      854.37601      477.73658      278.00722    
   4530000  -339.03954      816.75801      477.71847      265.76662    
   4540000  -347.57853      825.29128      477.71275      268.54328    
   4550000  -377.30027      855.00416      477.7039       278.21162    
   4560000  -367.35778      845.11044      477.75266      274.99228    
   4570000  -316.61566      794.43737      477.82171      258.50366    
   4580000  -379.94411      857.76208      477.81797      279.10902    
   4590000  -335.47904      813.36548      477.88644      264.66272    
   4600000  -364.54568      842.42869      477.88301      274.11966    
   4610000  -352.90488      830.78423      477.87935      270.33064    
   4620000  -349.85947      827.78356      477.92408      269.35425    
   4630000  -369.11918      847.03412      477.91494      275.61823    
   4640000  -373.14676      851.00965      477.86288      276.91183    
   4650000  -390.61428      868.47033      477.85605      282.5934     
   4660000  -379.24154      857.14608      477.90454      278.90858    
   4670000  -348.61508      826.43134      477.81627      268.91425    
   4680000  -351.95499      829.79555      477.84056      270.00894    
   4690000  -349.19252      827.02453      477.83201      269.10727    
   4700000  -372.76932      850.64401      477.87468      276.79286    
   4710000  -350.75656      828.69989      477.94332      269.65241    
   4720000  -362.47864      840.56794      478.0893       273.51419    
   4730000  -371.80544      849.86169      478.05624      276.5383     
   4740000  -370.04431      848.12775      478.08344      275.97409    
   4750000  -380.61568      858.71722      478.10154      279.41982    
   4760000  -379.71668      857.77462      478.05794      279.1131     
   4770000  -361.58114      839.69404      478.1129       273.22982    
   4780000  -388.48658      866.57464      478.08805      281.97656    
   4790000  -380.61054      858.74595      478.1354       279.42916    
   4800000  -389.8359       868.08099      478.2451       282.46672    
   4810000  -383.51348      861.73595      478.22247      280.40209    
   4820000  -348.58094      826.87913      478.29818      269.05995    
   4830000  -362.31985      840.6356       478.31575      273.5362     
   4840000  -328.61835      806.89212      478.27377      262.55634    
   4850000  -351.79362      830.05678      478.26316      270.09394    
   4860000  -348.71346      827.0905       478.37704      269.12873    
   4870000  -353.49534      831.89871      478.40337      270.69329    
   4880000  -330.59682      809.00811      478.41129      263.24487    
   4890000  -342.23641      820.66262      478.42621      267.03715    
   4900000  -351.25523      829.66297      478.40774      269.96579    
   4910000  -346.79642      825.11691      478.32049      268.48654    
   4920000  -360.29474      838.60449      478.30975      272.87529    
   4930000  -374.24274      852.59124      478.34849      277.42647    
   4940000  -345.14711      823.51461      478.3675       267.96517    
   4950000  -365.6491       844.01105      478.36195      274.63455    
   4960000  -390.77079      869.10161      478.33082      282.79882    
   4970000  -365.2425       843.55593      478.31343      274.48645    
   4980000  -335.4772       813.81967      478.34247      264.81051    
   4990000  -373.10605      851.54941      478.44336      277.08747    
   5000000  -348.64001      827.10292      478.46291      269.13277    
   5010000  -373.93941      852.39565      478.45624      277.36283    
   5020000  -340.39238      818.87666      478.48427      266.45601    
   5030000  -388.65028      867.08016      478.42988      282.14105    
   5040000  -357.26496      835.76205      478.4971       271.95039    
   5050000  -345.78273      824.26949      478.48677      268.2108     
   5060000  -376.87637      855.38809      478.51172      278.33655    
   5070000  -383.47617      862.08573      478.60956      280.5159     
   5080000  -360.74656      839.40124      478.65467      273.13455    
   5090000  -373.79341      852.33374      478.54033      277.34268    
   5100000  -387.99094      866.47141      478.48046      281.94297    
   5110000  -399.70527      878.1413       478.43603      285.74026    
   5120000  -360.53526      839.00018      478.46492      273.00405    
   5130000  -372.03528      850.45383      478.41855      276.73098    
   5140000  -359.36627      837.7997       478.43344      272.61342    
   5150000  -378.30218      856.71489      478.4127       278.76827    
   5160000  -350.14736      828.56192      478.41456      269.60752    
   5170000  -327.8693       806.31499      478.4457       262.36855    
   5180000  -358.14244      836.57479      478.43235      272.21485    
   5190000  -307.14843      785.59         478.44156      255.6248     
   5200000  -338.54404      816.91668      478.37264      265.81825    
   5210000  -357.50108      835.87321      478.37212      271.98656    
   5220000  -351.30049      829.73092      478.43043      269.9879     
   5230000  -356.79284      835.22928      478.43644      271.77703    
   5240000  -367.85002      846.25326      478.40324      275.36414    
   5250000  -416.60833      894.91932      478.31099      291.1997     
   5260000  -373.9117       852.22124      478.30954      277.30608    
   5270000  -377.96093      856.27919      478.31825      278.6265     
   5280000  -362.62043      840.93057      478.31014      273.63218    
   5290000  -376.25618      854.47888      478.2227       278.0407     
   5300000  -359.69641      837.85846      478.16205      272.63254    
   5310000  -353.93678      832.11756      478.18078      270.7645     
   5320000  -387.31624      865.42864      478.1124       281.60366    
   5330000  -370.09045      848.29246      478.20201      276.02768    
   5340000  -359.12547      837.30913      478.18366      272.4538     
   5350000  -336.6111       814.82487      478.21377      265.13759    
   5360000  -379.99619      858.1595       478.16331      279.23834    
   5370000  -411.9159       890.04815      478.13225      289.61465    
   5380000  -363.61035      841.76222      478.15187      273.9028     
   5390000  -378.1296       856.21571      478.08611      278.60585    
   5400000  -343.13739      821.22044      478.08305      267.21866    
   5410000  -386.5645       864.69687      478.13237      281.36555    
   5420000  -359.46414      837.59074      478.1266       272.54543    
   5430000  -330.03422      808.2698       478.23558      263.00462    
   5440000  -339.57368      817.80677      478.2331       266.10788    
   5450000  -360.23784      838.43901      478.20117      272.82145    
   5460000  -328.81405      806.99216      478.17811      262.58889    
   5470000  -378.25845      856.44454      478.18609      278.6803     
   5480000  -375.49195      853.68461      478.19266      277.78225    
   5490000  -340.4643       818.71029      478.24599      266.40188    
   5500000  -369.96716      848.18101      478.21385      275.99142    
   5510000  -336.81989      815.02063      478.20075      265.20129    
   5520000  -358.98956      837.16508      478.17552      272.40692    
   5530000  -389.52655      867.70008      478.17353      282.34277    
   5540000  -360.95017      839.14297      478.1928       273.05051    
   5550000  -358.512        836.72258      478.21058      272.26293    
   5560000  -372.35137      850.63216      478.28079      276.789      
   5570000  -360.83264      839.1635       478.33086      273.05719    
   5580000  -349.09643      827.43768      478.34125      269.2417     
   5590000  -356.05345      834.35674      478.30328      271.49311    
   5600000  -341.15914      819.45509      478.29595      266.64423    
   5610000  -331.12483      809.40822      478.28339      263.37506    
   5620000  -371.17973      849.50476      478.32503      276.42215    
   5630000  -343.35296      821.57674      478.22378      267.3346     
   5640000  -374.71695      852.9676       478.25065      277.54894    
   5650000  -363.13889      841.38922      478.25033      273.78142    
   5660000  -372.49741      850.7955       478.29809      276.84215    
   5670000  -385.22936      863.4531       478.22374      280.96083    
   5680000  -375.517        853.75004      478.23304      277.80354    
   5690000  -372.52704      850.85578      478.32874      276.86177    
   5700000  -349.75923      828.07898      478.31974      269.45037    
   5710000  -388.83687      867.15821      478.32134      282.16645    
   5720000  -406.87282      885.20543      478.33261      288.03887    
   5730000  -353.33394      831.62337      478.28942      270.60369    
   5740000  -383.51226      861.79714      478.28489      280.422      
   5750000  -383.06935      861.41894      478.34959      280.29894    
   5760000  -394.78173      873.20682      478.42509      284.13462    
   5770000  -372.53133      850.90733      478.376        276.87854    
   5780000  -326.57142      805.0228       478.45138      261.94808    
   5790000  -353.30516      831.7516       478.44644      270.64542    
   5800000  -350.50371      828.94689      478.44318      269.73279    
   5810000  -372.06271      850.58391      478.5212       276.7733     
   5820000  -362.73472      841.20656      478.47184      273.72199    
   5830000  -376.41227      854.91886      478.50659      278.18386    
   5840000  -376.23426      854.7164       478.48214      278.11798    
   5850000  -372.55338      851.04282      478.48944      276.92263    
   5860000  -376.69467      855.19353      478.49887      278.27324    
   5870000  -374.46384      852.99752      478.53368      277.55867    
   5880000  -350.55012      829.10052      478.5504       269.78278    
   5890000  -371.7059       850.31484      478.60894      276.68575    
   5900000  -368.11071      846.68533      478.57462      275.50474    
   5910000  -329.63565      808.26951      478.63386      263.00453    
   5920000  -332.70114      811.25776      478.55662      263.97688    
   5930000  -358.68411      837.29085      478.60674      272.44785    
   5940000  -342.15768      820.79603      478.63835      267.08056    
   5950000  -354.76479      833.30002      478.53523      271.14926    
   5960000  -342.72673      821.27972      478.55299      267.23795    
   5970000  -340.10812      818.66223      478.5541       266.38624    
   5980000  -363.41148      841.95354      478.54206      273.96505    
   5990000  -375.35893      853.88573      478.5268       277.84769    
   6000000  -339.04262      817.60049      478.55787      266.04076    
   6010000  -388.08835      866.64677      478.55842      282.00003    
   6020000  -347.92568      826.50984      478.58416      268.93979    
   6030000  -348.76576      827.29314      478.52737      269.19467    
   6040000  -374.52155      853.17292      478.65136      277.61574    
   6050000  -386.43962      865.08104      478.64142      281.49056    
   6060000  -386.96536      865.59433      478.62896      281.65757    
   6070000  -330.0214       808.65033      478.62892      263.12845    
   6080000  -360.34603      838.99105      478.64503      273.00108    
   6090000  -349.8244       828.54609      478.72169      269.60237    
   6100000  -352.81842      831.47324      478.65482      270.55484    
   6110000  -393.70566      872.35972      478.65406      283.85898    
   6120000  -355.73956      834.41079      478.67123      271.5107     
   6130000  -360.87725      839.53872      478.66147      273.17929    
   6140000  -340.81168      819.48797      478.67629      266.65493    
   6150000  -345.71051      824.35694      478.64642      268.23925    
   6160000  -346.43306      825.03427      478.6012       268.45965    
   6170000  -368.61513      847.20571      478.59059      275.67406    
   6180000  -379.53362      858.16852      478.6349       279.24127    
   6190000  -388.2548       866.83743      478.58263      282.06207    
   6200000  -391.70738      870.30487      478.59749      283.19035    
   6210000  -378.98188      857.66284      478.68096      279.07673    
   6220000  -382.12311      860.83608      478.71297      280.10928    
   6230000  -382.8869       861.498        478.6111       280.32466    
   6240000  -338.14514      816.72805      478.58291      265.75687    
   6250000  -363.1449       841.75572      478.61082      273.90068    
   6260000  -408.94898      887.5558       478.60681      288.80366    
   6270000  -392.69107      871.31928      478.62822      283.52043    
   6280000  -389.63573      868.23966      478.60393      282.51834    
   6290000  -378.16876      856.78785      478.61909      278.79202    
   6300000  -332.59688      811.19437      478.59748      263.95626    
   6310000  -366.40449      844.98913      478.58464      274.95281    
   6320000  -374.58105      853.2064       478.62534      277.62664    
   6330000  -358.70104      837.28944      478.5884       272.44739    
   6340000  -386.74107      865.3881       478.64703      281.59047    
   6350000  -380.31804      858.95051      478.63247      279.49573    
   6360000  -373.46012      852.08626      478.62614      277.26216    
   6370000  -345.58505      824.24303      478.65798      268.20219    
   6380000  -326.56327      805.2232       478.65993      262.01328    
   6390000  -349.50353      828.13204      478.62851      269.46764    
   6400000  -377.44366      856.04921      478.60555      278.55167    
   6410000  -335.93722      814.53349      478.59627      265.04278    
   6420000  -374.68682      853.38973      478.7029       277.68629    
   6430000  -363.17203      841.8557       478.68368      273.93321    
   6440000  -389.9153       868.60337      478.68807      282.63669    
   6450000  -344.76549      823.50917      478.74367      267.96339    
   6460000  -363.50946      842.20941      478.69995      274.04831    
   6470000  -366.6793       845.37681      478.6975       275.07895    
   6480000  -379.83428      858.54164      478.70736      279.36269    
   6490000  -363.23314      841.92181      478.68866      273.95472    
   6500000  -392.38093      871.05577      478.67484      283.43468    
   6510000  -355.84832      834.56666      478.71834      271.56141    
   6520000  -341.17631      819.85017      478.67386      266.77278    
   6530000  -362.25918      840.87796      478.61878      273.61506    
   6540000  -376.41021      854.96835      478.55814      278.19996    
   6550000  -361.15761      839.73419      478.57658      273.24289    
   6560000  -379.12436      857.7428       478.61844      279.10275    
   6570000  -387.11752      865.71788      478.60036      281.69778    
   6580000  -376.36813      854.95591      478.58778      278.19592    
   6590000  -366.07111      844.66569      478.59458      274.84756    
   6600000  -365.58212      844.15048      478.56837      274.67992    
   6610000  -353.66124      832.28295      478.6217       270.81831    
   6620000  -368.2348       846.86292      478.62812      275.56252    
   6630000  -346.78199      825.31683      478.53485      268.5516     
   6640000  -377.75059      856.27486      478.52426      278.62509    
   6650000  -393.99583      872.88341      478.88758      284.02939    
   6660000  -349.75205      828.65674      478.90469      269.63837    
   6670000  -375.75119      854.61669      478.8655       278.08554    
   6680000  -349.6183       828.49747      478.87916      269.58655    
   6690000  -361.40401      840.30752      478.90351      273.42945    
   6700000  -333.2709       812.16445      478.89355      264.27191    
   6710000  -328.53142      807.44572      478.9143       262.73648    
   6720000  -335.94219      814.9288       478.98661      265.17141    
   6730000  -351.22706      830.19076      478.9637       270.13753    
   6740000  -377.74708      856.67361      478.92652      278.75484    
   6750000  -405.40092      884.31031      478.9094       287.74761    
   6760000  -394.72563      873.64868      478.92305      284.2784     
   6770000  -367.7184       846.61021      478.8918       275.48029    
   6780000  -359.15643      838.10398      478.94755      272.71243    
   6790000  -366.24135      845.1637       478.92235      275.00961    
   6800000  -387.07345      865.97123      478.89778      281.78022    
   6810000  -386.05351      864.94795      478.89444      281.44725    
   6820000  -391.4239       870.31157      478.88767      283.19253    
   6830000  -395.38337      874.29166      478.90829      284.48762    
   6840000  -355.11342      833.99032      478.87691      271.37388    
   6850000  -380.88529      859.69695      478.81167      279.73861    
   6860000  -391.27335      870.01482      478.74147      283.09597    
   6870000  -364.11591      842.88501      478.7691       274.26814    
   6880000  -355.42873      834.25171      478.82298      271.45893    
   6890000  -368.6666       847.45568      478.78908      275.7554     
   6900000  -367.25387      846.06763      478.81376      275.30374    
   6910000  -369.92981      848.71983      478.79002      276.16675    
   6920000  -365.22706      844.07035      478.8433       274.65384    
   6930000  -352.90129      831.75753      478.85624      270.64735    
   6940000  -370.41757      849.25658      478.83902      276.3414     
   6950000  -379.1631       857.99437      478.83127      279.18461    
   6960000  -343.18169      822.00312      478.82143      267.47334    
   6970000  -383.36647      862.17101      478.80455      280.54365    
   6980000  -365.28427      844.05918      478.77491      274.65021    
   6990000  -390.10096      868.86649      478.76553      282.72231    
   7000000  -354.39815      833.15736      478.75921      271.10284    
   7010000  -374.26539      853.0756       478.8102       277.58408    
   7020000  -380.07196      858.89715      478.8252       279.47837    
   7030000  -348.56293      827.43109      478.86816      269.23956    
   7040000  -383.82322      862.687        478.86378      280.71155    
   7050000  -359.22858      838.10938      478.8808       272.71419    
   7060000  -383.86122      862.74609      478.88488      280.73078    
   7070000  -355.21863      834.0842       478.86557      271.40443    
   7080000  -345.59377      824.41947      478.8257       268.2596     
   7090000  -336.18299      815.03423      478.85124      265.20572    
   7100000  -326.98401      805.85535      478.87134      262.21898    
   7110000  -350.20079      829.10814      478.90735      269.78526    
   7120000  -395.85468      874.73431      478.87963      284.63165    
   7130000  -364.69254      843.5891       478.89656      274.49725    
   7140000  -335.71085      814.57253      478.86168      265.05548    
   7150000  -346.23243      825.11547      478.88304      268.48607    
   7160000  -365.35073      844.19776      478.84703      274.6953     
   7170000  -376.29243      855.17739      478.88495      278.26798    
   7180000  -373.67565      852.60314      478.92749      277.43034    
   7190000  -354.00252      832.95542      478.9529       271.03713    
   7200000  -359.35807      838.30874      478.95067      272.77906    
   7210000  -369.1038       847.94957      478.84576      275.91611    
   7220000  -365.539        844.43216      478.89316      274.77157    
   7230000  -341.51492      820.44984      478.93493      266.96791    
   7240000  -388.52628      867.45171      478.92542      282.26195    
   7250000  -385.01272      863.91657      478.90385      281.11164    
   7260000  -341.57241      820.41959      478.84718      266.95807    
   7270000  -392.80475      871.53466      478.72992      283.59051    
   7280000  -396.48271      875.19136      478.70866      284.78037    
   7290000  -369.32909      848.39335      479.06426      276.06051    
   7300000  -374.84363      853.93389      479.09027      277.86336    
   7310000  -374.79482      853.88377      479.08894      277.84705    
   7320000  -388.71037      867.82294      479.11257      282.38275    
   7330000  -348.15138      827.29042      479.13904      269.19379    
   7340000  -384.12113      863.13304      479.01191      280.85669    
   7350000  -379.96951      859.01307      479.04357      279.51609    
   7360000  -354.23037      833.28233      479.05196      271.14351    
   7370000  -363.88586      842.98111      479.09525      274.29941    
   7380000  -345.24846      824.36364      479.11518      268.24143    
   7390000  -392.98865      872.10123      479.11258      283.77487    
   7400000  -375.73608      854.86611      479.13003      278.1667     
   7410000  -370.32159      849.46421      479.14262      276.40896    
   7420000  -367.12697      846.26876      479.14179      275.36919    
   7430000  -381.06173      860.24443      479.1827       279.91676    
   7440000  -380.74985      859.95749      479.20764      279.82339    
   7450000  -369.91182      849.0771       479.16527      276.283      
   7460000  -375.16581      854.2959       479.13009      277.98116    
   7470000  -361.25447      840.39234      479.13787      273.45705    
   7480000  -363.57897      842.70557      479.1266       274.20975    
   7490000  -363.2245       842.34106      479.11656      274.09114    
   7500000  -385.2691       864.4058       479.1367       281.27084    
   7510000  -348.54609      827.61996      479.07387      269.30101    
   7520000  -362.41346      841.43273      479.01926      273.79558    
   7530000  -347.19096      826.21969      479.02873      268.84538    
   7540000  -394.50794      873.45747      478.94952      284.21618    
   7550000  -372.85797      851.80392      478.94595      277.17029    
   7560000  -346.28778      825.30847      479.02069      268.54887    
   7570000  -368.46173      847.43112      478.96939      275.74741    
   7580000  -351.00623      829.91597      478.90974      270.04812    
   7590000  -380.28087      859.13551      478.85464      279.55593    
   7600000  -338.26047      817.14574      478.88527      265.89279    
   7610000  -350.84213      829.7194       478.87727      269.98416    
   7620000  -364.47676      843.41216      478.9354       274.43967    
   7630000  -350.7863       829.68226      478.89596      269.97207    
   7640000  -334.35569      813.32094      478.96525      264.64823    
   7650000  -348.28218      827.22718      478.94501      269.17321    
   7660000  -363.46541      842.46729      479.00188      274.13222    
   7670000  -342.09373      821.11368      479.01995      267.18392    
   7680000  -333.03462      812.07741      479.04279      264.24359    
   7690000  -320.28904      799.34629      479.05724      260.10098    
   7700000  -341.4249       820.53533      479.11043      266.99573    
   7710000  -342.82647      821.99227      479.1658       267.46981    
   7720000  -375.7176       854.88696      479.16936      278.17348    
   7730000  -343.37958      822.57898      479.1994       267.66072    
   7740000  -373.25187      852.42416      479.17229      277.37211    
   7750000  -367.39397      846.59223      479.19827      275.47444    
   7760000  -381.27475      860.44628      479.17153      279.98244    
   7770000  -351.61854      830.78432      479.16578      270.33067    
   7780000  -374.93124      854.07073      479.13949      277.90789    
   7790000  -345.78837      824.98444      479.19607      268.44344    
   7800000  -371.7247       850.91095      479.18625      276.87972    
   7810000  -338.61874      817.79128      479.17254      266.10284    
   7820000  -362.08693      841.30275      479.21582      273.75329    
   7830000  -354.06269      833.35449      479.2918       271.16698    
   7840000  -341.43155      820.6717       479.24015      267.0401     
   7850000  -363.32639      842.63042      479.30403      274.1853     
   7860000  -364.55554      843.83875      479.28321      274.57848    
   7870000  -356.81121      836.02725      479.21604      272.03668    
   7880000  -369.53376      848.73968      479.20591      276.1732     
   7890000  -354.20342      833.43448      479.23106      271.19301    
   7900000  -358.22917      837.48935      479.26018      272.51244    
   7910000  -355.35968      834.6096       479.24992      271.57539    
   7920000  -337.54669      816.77235      479.22566      265.77129    
   7930000  -320.64224      799.89184      479.2496       260.2785     
   7940000  -357.91741      837.18568      479.26827      272.41362    
   7950000  -398.57301      877.88318      479.31017      285.65627    
   7960000  -333.72518      813.04909      479.32392      264.55977    
   7970000  -373.73847      853.03878      479.30031      277.5721     
   7980000  -364.88011      844.19521      479.3151       274.69447    
   7990000  -359.51915      838.85169      479.33254      272.95573    
   8000000  -352.97567      832.32516      479.34949      270.83205    
   8010000  -367.84571      847.18301      479.3373       275.66668    
   8020000  -322.99262      802.44063      479.448        261.10786    
   8030000  -320.91324      800.33729      479.42405      260.42345    
   8040000  -345.78653      825.17945      479.39292      268.50689    
   8050000  -360.80941      840.2473       479.43789      273.40985    
   8060000  -330.62021      810.02253      479.40231      263.57495    
   8070000  -379.67005      859.14869      479.47865      279.56022    
   8080000  -353.30279      832.7945       479.49171      270.98477    
   8090000  -379.98675      859.48366      479.49691      279.66921    
   8100000  -356.88481      836.37242      479.4876       272.149      
   8110000  -362.63665      842.14495      479.50829      274.02733    
   8120000  -339.5483       819.0454       479.4971       266.51092    
   8130000  -356.89077      836.36782      479.47705      272.1475     
   8140000  -369.15809      848.6834       479.52531      276.15489    
   8150000  -345.87536      825.40217      479.52681      268.57936    
   8160000  -380.77025      860.27715      479.50691      279.92741    
   8170000  -381.38572      860.93586      479.55014      280.14175    
   8180000  -378.07991      857.74742      479.66751      279.10425    
   8190000  -370.48383      850.20558      479.72175      276.6502     
   8200000  -359.72437      839.47887      479.7545       273.15981    
   8210000  -347.18903      827.00086      479.81183      269.09956    
   8220000  -360.61572      840.40083      479.7851       273.45981    
   8230000  -337.17958      817.01642      479.83685      265.85071    
   8240000  -338.51102      818.35129      479.84028      266.28506    
   8250000  -364.34082      844.16683      479.82602      274.68524    
   8260000  -370.78354      850.59022      479.80668      276.77536    
   8270000  -354.4412       834.26099      479.81979      271.46195    
   8280000  -329.06053      808.89818      479.83765      263.20909    
   8290000  -352.36228      832.2477       479.88542      270.80685    
   8300000  -316.45914      796.31359      479.85446      259.11417    
   8310000  -367.31988      847.07487      479.75499      275.63149    
   8320000  -371.37109      851.13971      479.76862      276.95416    
   8330000  -357.58166      837.37411      479.79245      272.47494    
   8340000  -393.9932       873.75703      479.76383      284.31365    
   8350000  -344.11836      823.8688       479.75044      268.08042    
   8360000  -350.74675      830.57936      479.83261      270.26398    
   8370000  -378.48092      858.36163      479.88071      279.30411    
   8380000  -358.74673      838.6535       479.90677      272.89124    
   8390000  -380.91519      860.83776      479.92258      280.10983    
   8400000  -381.74703      861.69144      479.94441      280.3876     
   8410000  -396.46682      876.39525      479.92843      285.17211    
   8420000  -380.5513       860.46208      479.91079      279.98758    
   8430000  -372.48223      852.35489      479.87266      277.34957    
   8440000  -341.05936      820.87165      479.81229      267.10517    
   8450000  -381.6791       861.52024      479.84114      280.3319     
   8460000  -378.8936       858.73294      479.83934      279.42493    
   8470000  -368.63387      848.67076      480.03688      276.15078    
   8480000  -336.27855      816.33118      480.05263      265.62773    
   8490000  -356.95908      837.02126      480.06218      272.36012    
   8500000  -378.6606       858.69463      480.03402      279.41247    
   8510000  -357.00581      837.03622      480.03041      272.36499    
   8520000  -380.04039      860.0746       480.03421      279.8615     
   8530000  -367.20902      847.18873      479.97971      275.66854    
   8540000  -352.03338      832.02612      479.99274      270.73474    
   8550000  -373.5726       853.54445      479.97185      277.73664    
   8560000  -328.59408      808.52346      479.92938      263.08716    
   8570000  -375.18212      855.05329      479.87117      278.2276     
   8580000  -373.68069      853.55318      479.8725       277.73948    
   8590000  -387.5313       867.40574      479.87444      282.24699    
   8600000  -372.85635      852.72855      479.8722       277.47115    
   8610000  -381.12846      861.03184      479.90338      280.17298    
   8620000  -386.62079      866.54435      479.92356      281.9667     
   8630000  -366.48627      846.40352      479.91725      275.41304    
   8640000  -367.19985      847.08375      479.8839       275.63438    
   8650000  -373.46604      853.36053      479.89449      277.67679    
   8660000  -380.55846      860.48505      479.92659      279.99506    
   8670000  -385.95506      865.93183      479.97677      281.7674     
   8680000  -383.84444      863.73437      479.88993      281.05236    
   8690000  -348.7626       828.69921      479.93662      269.65219    
   8700000  -365.17522      845.09344      479.91822      274.98675    
   8710000  -351.68166      831.57758      479.89593      270.58879    
   8720000  -394.5868       874.54103      479.95423      284.56876    
   8730000  -327.01084      807.02556      480.01472      262.59976    
   8740000  -388.02349      868.00066      479.97717      282.44058    
   8750000  -346.43526      826.3753       479.94004      268.89601    
   8760000  -374.18001      854.09445      479.91444      277.9156     
   8770000  -355.83041      835.8338       480.00339      271.97373    
   8780000  -378.20857      858.24031      480.03174      279.26463    
   8790000  -355.82679      835.83916      480.01238      271.97548    
   8800000  -343.7539       823.73163      479.97772      268.03578    
   8810000  -372.88213      852.82604      479.94391      277.50288    
   8820000  -337.54591      817.4626       479.91669      265.99589    
   8830000  -369.60116      849.49917      479.89801      276.42034    
   8840000  -349.44384      829.31609      479.87225      269.85292    
   8850000  -365.60823      845.53178      479.92355      275.12938    
   8860000  -330.27039      810.20525      479.93486      263.6344     
   8870000  -360.11257      840.01981      479.90724      273.33583    
   8880000  -351.7751       831.67327      479.89817      270.61993    
   8890000  -357.69454      837.64382      479.94928      272.5627     
   8900000  -390.6221       870.50624      479.88414      283.25587    
   8910000  -363.43093      843.29872      479.8678       274.40276    
   8920000  -356.61885      836.4882       479.86935      272.18667    
   8930000  -362.28366      842.14103      479.85737      274.02606    
   8940000  -378.49918      858.35749      479.85832      279.30276    
   8950000  -366.61381      846.54935      479.93553      275.46049    
   8960000  -376.95821      856.90812      479.94991      278.83115    
   8970000  -366.94801      846.86122      479.91321      275.56197    
   8980000  -358.37126      838.32238      479.95112      272.7835     
   8990000  -356.83839      836.75178      479.91339      272.27244    
   9000000  -375.07461      854.98916      479.91455      278.20674    
   9010000  -385.62226      865.52795      479.90569      281.63598    
   9020000  -342.9275       822.85349      479.926        267.75004    
   9030000  -353.10205      833.04728      479.94524      271.06702    
   9040000  -351.68128      831.63872      479.95744      270.60869    
   9050000  -332.65884      812.60475      479.94591      264.41518    
   9060000  -308.64139      788.64624      480.00485      256.61927    
   9070000  -334.84448      814.87491      480.03042      265.15387    
   9080000  -358.86806      838.87125      480.00319      272.9621     
   9090000  -371.72475      851.73874      480.01399      277.14907    
   9100000  -359.69556      839.6937       479.99814      273.22971    
   9110000  -379.68567      859.63487      479.9492       279.71841    
   9120000  -316.67633      796.66141      479.98508      259.22735    
   9130000  -356.97237      836.94609      479.97373      272.33566    
   9140000  -356.80783      836.79088      479.98304      272.28516    
   9150000  -352.81083      832.75623      479.9454       270.97232    
   9160000  -383.03742      862.99796      479.96053      280.81274    
   9170000  -389.3227       869.22894      479.90624      282.84025    
   9180000  -378.23248      858.19067      479.9582       279.24848    
   9190000  -342.4336       822.39059      479.95698      267.59942    
   9200000  -323.63544      803.63781      480.00236      261.49741    
   9210000  -376.08992      856.12786      480.03794      278.57726    
   9220000  -383.11031      863.15425      480.04394      280.86359    
   9230000  -356.76115      836.84532      480.08417      272.30287    
   9240000  -368.36678      848.27831      479.91153      276.02308    
   9250000  -342.93792      822.85034      479.91241      267.74902    
   9260000  -371.78295      851.68836      479.9054       277.13268    
   9270000  -332.0286       811.92632      479.89772      264.19443    
   9280000  -364.86152      844.68805      479.82653      274.85484    
   9290000  -384.82126      864.57941      479.75815      281.32733    
   9300000  -388.26315      868.09924      479.8361       282.47265    
   9310000  -371.11788      850.9373       479.81942      276.88829    
   9320000  -350.40648      830.34757      479.94108      270.18856    
   9330000  -358.8587       838.78019      479.92149      272.93247    
   9340000  -354.0856       834.03951      479.95391      271.38989    
   9350000  -374.15226      854.12734      479.97508      277.92631    
   9360000  -333.87698      813.87241      479.99543      264.82767    
   9370000  -368.04958      848.03821      479.98863      275.94495    
   9380000  -403.78622      883.77947      479.99325      287.57488    
   9390000  -367.69558      847.63659      479.94101      275.81427    
   9400000  -359.10299      839.1233       480.02031      273.04411    
   9410000  -373.54315      853.46205      479.9189       277.70983    
   9420000  -351.47129      831.40469      479.93339      270.53253    
   9430000  -367.64054      847.63834      479.99779      275.81484    
   9440000  -332.51501      812.52754      480.01252      264.39006    
   9450000  -343.31586      823.29494      479.97909      267.89369    
   9460000  -350.00133      830.00106      479.99973      270.07581    
   9470000  -353.34689      833.37529      480.02839      271.17375    
   9480000  -351.64235      831.66497      480.02262      270.61723    
   9490000  -370.93918      850.93586      479.99668      276.88782    
   9500000  -369.37159      849.3917       480.02011      276.38537    
   9510000  -390.60628      870.60926      480.00298      283.28939    
   9520000  -356.71292      836.75581      480.04289      272.27375    
   9530000  -363.92514      844.02475      480.09962      274.639      
   9540000  -395.67803      875.77956      480.10153      284.97177    
   9550000  -343.54673      823.65321      480.10648      268.01027    
   9560000  -356.62168      836.69012      480.06844      272.25237    
   9570000  -350.39377      830.43548      480.04171      270.21716    
   9580000  -371.34566      851.38373      480.03807      277.03356    
   9590000  -379.62687      859.68158      480.05471      279.73361    
   9600000  -364.57732      844.64153      480.0642       274.8397     
   9610000  -350.15898      830.22293      480.06395      270.148      
   9620000  -334.24488      814.28995      480.04507      264.96353    
   9630000  -345.09607      825.16487      480.0688       268.50215    
   9640000  -347.25729      827.3377       480.0804       269.20917    
   9650000  -401.52044      881.55793      480.0375       286.85201    
   9660000  -373.68381      853.6601       479.97629      277.77427    
   9670000  -372.7023       852.65291      479.95061      277.44654    
   9680000  -383.89549      863.8494       479.9539       281.08979    
   9690000  -383.86901      863.81108      479.94207      281.07732    
   9700000  -379.84163      859.77159      479.92997      279.7629     
   9710000  -354.46615      834.44191      479.97576      271.52082    
   9720000  -367.4575       847.42006      479.96256      275.74381    
   9730000  -396.42612      876.35448      479.92835      285.15884    
   9740000  -341.11828      821.23908      480.1208       267.22473    
   9750000  -382.18474      862.28424      480.09951      280.5805     
   9760000  -397.76453      877.7592       479.99466      285.61593    
   9770000  -357.15981      837.1582       479.99839      272.40468    
   9780000  -360.68748      840.7123       480.02482      273.56116    
   9790000  -369.15688      849.16937      480.01249      276.31302    
   9800000  -369.57379      849.57976      480.00597      276.44656    
   9810000  -365.36769      845.30478      479.93708      275.05551    
   9820000  -368.90573      848.86818      479.96245      276.21502    
   9830000  -382.03803      861.92683      479.8888       280.4642     
   9840000  -370.41617      850.2869       479.87073      276.67666    
   9850000  -361.3742       841.23972      479.86552      273.73278    
   9860000  -376.10217      855.9651       479.86293      278.5243     
   9870000  -384.92233      864.75856      479.83623      281.38562    
   9880000  -369.64493      849.51947      479.87454      276.42694    
   9890000  -370.17872      850.14478      479.96606      276.63041    
   9900000  -351.10703      831.0624       479.95538      270.42116    
   9910000  -361.52172      841.58587      480.06415      273.84541    
   9920000  -375.981        855.98026      479.99926      278.52923    
   9930000  -386.26156      866.2429       479.98133      281.86861    
   9940000  -400.25535      880.24887      479.99352      286.42605    
   9950000  -383.37891      863.36983      479.99092      280.93374    
   9960000  -366.2176       846.26713      480.04953      275.36866    
   9970000  -359.97943      840.03579      480.05636      273.34103    
   9980000  -379.0413       859.05349      480.01219      279.52924    
   9990000  -379.14065      859.14242      480.00177      279.55818    
  10000000  -388.60889      868.64506      480.03618      282.65026    
  10010000  -394.77719      874.78778      480.01059      284.64905    
  10020000  -391.60374      871.62453      480.02078      283.61975    
  10030000  -380.75253      860.79333      480.0408       280.09537    
  10040000  -358.49721      838.48238      479.98516      272.83556    
  10050000  -384.14683      864.14195      479.99512      281.18498    
  10060000  -354.6181       834.53619      479.91809      271.5515     
  10070000  -359.63365      839.5697       479.93604      273.18937    
  10080000  -353.77776      833.75259      479.97483      271.29652    
  10090000  -358.04047      837.98901      479.94854      272.67502    
  10100000  -373.39463      853.37098      479.97635      277.68019    
  10110000  -375.06939      855.01243      479.94303      278.21431    
  10120000  -349.21726      829.27746      480.0602       269.84035    
  10130000  -365.44548      845.50362      480.05814      275.12022    
  10140000  -387.67469      867.72587      480.05118      282.35116    
  10150000  -352.0776       832.177        480.0994       270.78384    
  10160000  -371.28744      851.39573      480.1083       277.03746    
  10170000  -345.42459      825.52679      480.1022       268.61991    
  10180000  -370.9905       851.06188      480.07139      276.92883    
  10190000  -359.57146      839.62964      480.05818      273.20887    
  10200000  -354.40153      834.41931      480.01778      271.51347    
  10210000  -367.20416      847.23966      480.0355       275.68511    
  10220000  -345.47607      825.52496      480.0489       268.61932    
  10230000  -326.53094      806.58785      480.05691      262.45733    
  10240000  -342.62286      822.68623      480.06337      267.69562    
  10250000  -324.68123      804.73607      480.05485      261.85478    
  10260000  -340.20432      820.23678      480.03246      266.89859    
  10270000  -375.06963      855.16562      480.09599      278.26416    
  10280000  -369.48617      849.56327      480.0771       276.44119    
  10290000  -360.03733      840.03996      480.00263      273.34238    
  10300000  -353.34895      833.36807      480.01912      271.1714     
  10310000  -383.62093      863.62324      480.00232      281.0162     
  10320000  -369.09455      849.09991      480.00536      276.29042    
  10330000  -380.28332      860.43475      480.15143      279.97869    
  10340000  -356.39123      836.60402      480.21279      272.22436    
  10350000  -341.71525      822.006        480.29074      267.47428    
  10360000  -371.62         851.81918      480.19919      277.17525    
  10370000  -369.39928      849.55242      480.15314      276.43766    
  10380000  -372.69622      852.93781      480.2416       277.53924    
  10390000  -370.26837      850.56085      480.29248      276.7658     
  10400000  -370.63229      850.95881      480.32652      276.89529    
  10410000  -372.93056      853.24442      480.31386      277.63901    
  10420000  -341.97532      822.36239      480.38707      267.59024    
  10430000  -344.28512      824.69188      480.40676      268.34824    
  10440000  -367.24329      847.71107      480.46777      275.8385     
  10450000  -348.10387      829.19399      481.09011      269.81319    
  10460000  -363.04166      844.16568      481.12402      274.68486    
  10470000  -347.68913      828.83629      481.14716      269.6968     
  10480000  -376.00912      857.10499      481.09587      278.89521    
  10490000  -372.0907       853.17663      481.08592      277.61695    
[...]
 397420000  -277.64218      851.74377      574.10159      277.15071    
 397430000  -293.91696      867.95638      574.03942      282.42617    
 397440000  -265.6945       839.66445      573.96995      273.2202     
 397450000  -291.96784      865.89487      573.92702      281.75537    
 397460000  -301.23455      875.20464      573.9701       284.7847     
 397470000  -295.8972       869.961        574.0638       283.07845    
 397480000  -289.66689      863.78685      574.11996      281.06944    
 397490000  -261.9845       836.07696      574.09246      272.05285    
 397500000  -279.2812       853.34795      574.06675      277.6727     
 397510000  -301.01862      875.02631      574.00769      284.72667    
 397520000  -265.08674      839.05962      573.97287      273.02339    
 397530000  -275.57963      849.58592      574.00628      276.44856    
 397540000  -269.74447      843.75096      574.00648      274.54991    
 397550000  -274.75083      848.82674      574.0759       276.20153    
 397560000  -271.78426      845.83351      574.04926      275.22756    
 397570000  -279.68919      853.8134       574.12421      277.82415    
 397580000  -280.19331      854.30842      574.11511      277.98523    
 397590000  -293.86391      867.96408      574.10017      282.42867    
 397600000  -317.69632      891.78129      574.08497      290.17861    
 397610000  -302.88887      877.02318      574.13431      285.37643    
 397620000  -295.21288      869.30516      574.09228      282.86505    
 397630000  -295.80844      869.90645      574.098        283.0607     
 397640000  -304.03255      878.14989      574.11733      285.74305    
 397650000  -273.94528      848.07973      574.13445      275.95846    
 397660000  -270.83574      844.98112      574.14539      274.9502     
 397670000  -306.84213      881.01623      574.1741       286.67574    
 397680000  -266.63084      840.82754      574.19669      273.59866    
 397690000  -271.71413      845.9006       574.18647      275.24939    
 397700000  -281.32634      855.54141      574.21508      278.38644    
 397710000  -256.77543      831.00052      574.22509      270.40102    
 397720000  -273.04012      847.26161      574.22149      275.69225    
 397730000  -281.36814      855.70556      574.33742      278.43985    
 397740000  -266.71161      841.16611      574.4545       273.70883    
 397750000  -340.12462      914.53859      574.41397      297.58365    
 397760000  -286.62471      861.0577       574.43299      280.18139    
 397770000  -312.13579      886.50225      574.36645      288.46085    
 397780000  -258.97767      833.36645      574.38878      271.17088    
 397790000  -275.08821      849.42627      574.33806      276.39662    
 397800000  -279.91542      854.23238      574.31696      277.96049    
 397810000  -299.92758      874.16907      574.2415       284.44773    
 397820000  -300.99305      875.24818      574.25512      284.79886    
 397830000  -319.66016      893.9751       574.31494      290.89245    
 397840000  -304.10472      878.42003      574.31532      285.83096    
 397850000  -280.74454      855.02288      574.27833      278.21771    
 397860000  -279.59071      853.8583       574.26759      277.83876    
 397870000  -290.44678      864.64816      574.20138      281.3497     
 397880000  -277.61376      851.82936      574.21561      277.17856    
 397890000  -275.17519      849.35049      574.1753       276.37196    
 397900000  -282.96588      857.17165      574.20577      278.9169     
 397910000  -298.80254      873.05217      574.24962      284.0843     
 397920000  -303.70159      877.9881       574.28651      285.69041    
 397930000  -290.35379      864.60501      574.25123      281.33566    
 397940000  -310.62077      884.84625      574.22548      287.922      
 397950000  -294.28905      868.52046      574.23141      282.60972    
 397960000  -280.98591      855.09547      574.10955      278.24133    
 397970000  -322.79097      896.87379      574.08282      291.83567    
 397980000  -306.40146      880.54078      574.13932      286.52103    
 397990000  -257.4489       831.63466      574.18576      270.60736    
 398000000  -272.24984      846.43275      574.18291      275.42255    
 398010000  -277.43339      851.5581       574.12471      277.09029    
 398020000  -286.29236      860.41636      574.12399      279.9727     
 398030000  -332.59784      906.73712      574.13928      295.04511    
 398040000  -318.69858      892.87051      574.17193      290.53303    
 398050000  -297.86957      872.07046      574.20088      283.76486    
 398060000  -304.73793      878.98324      574.24531      286.01422    
 398070000  -295.49395      869.82153      574.32758      283.03307    
 398080000  -247.48096      821.77251      574.29155      267.3983     
 398090000  -296.81091      871.0695       574.25859      283.43915    
 398100000  -284.66773      858.9019       574.23417      279.47991    
 398110000  -302.0983       876.35034      574.25204      285.1575     
 398120000  -296.69995      870.91965      574.21971      283.39039    
 398130000  -275.79276      850.06932      574.27656      276.60586    
 398140000  -271.85581      846.11576      574.25995      275.3194     
 398150000  -308.56757      882.73433      574.16676      287.2348     
 398160000  -295.33179      869.55053      574.21874      282.94489    
 398170000  -282.29825      856.52363      574.22538      278.70604    
 398180000  -300.56995      874.84346      574.27351      284.66717    
 398190000  -309.15259      883.59688      574.44428      287.51546    
 398200000  -289.57256      863.9706       574.39804      281.12923    
 398210000  -296.17945      870.49946      574.32002      283.25367    
 398220000  -253.26922      827.63456      574.36534      269.30577    
 398230000  -286.41548      860.75467      574.33919      280.08279    
 398240000  -306.00599      880.36317      574.35718      286.46324    
 398250000  -265.92627      840.28625      574.35998      273.42252    
 398260000  -255.87114      830.23831      574.36717      270.153      
 398270000  -289.14218      863.50152      574.35933      280.97659    
 398280000  -292.49598      866.77922      574.28324      282.04313    
 398290000  -273.13767      847.48473      574.34706      275.76485    
 398300000  -295.37649      869.67813      574.30163      282.98641    
 398310000  -299.04485      873.29909      574.25424      284.16464    
 398320000  -291.92303      866.17639      574.25336      281.84697    
 398330000  -294.42112      868.71245      574.29133      282.67219    
 398340000  -308.14472      882.42082      574.2761       287.13278    
 398350000  -261.19717      835.46247      574.26529      271.8529     
 398360000  -316.78187      891.01252      574.23064      289.92845    
 398370000  -286.42494      860.64814      574.2232       280.04812    
 398380000  -285.34867      859.55603      574.20736      279.69276    
 398390000  -302.28628      876.48421      574.19794      285.20106    
 398400000  -294.8875       869.05882      574.17133      282.78489    
 398410000  -282.83828      856.981        574.14273      278.85487    
 398420000  -293.34852      867.50577      574.15726      282.27954    
 398430000  -238.4121       812.68655      574.27445      264.4418     
 398440000  -271.29106      845.48288      574.19183      275.11347    
 398450000  -304.17216      878.42471      574.25255      285.83248    
 398460000  -301.45191      875.71702      574.26511      284.95142    
 398470000  -279.77286      854.05507      574.28221      277.90279    
 398480000  -265.84027      840.15064      574.31037      273.3784     
 398490000  -277.7272       852.00807      574.28087      277.23671    
 398500000  -272.61205      846.8925       574.28044      275.57215    
 398510000  -274.89655      849.18597      574.28942      276.31842    
 398520000  -297.1946       871.55529      574.36069      283.59722    
 398530000  -281.79165      856.08188      574.29023      278.5623     
 398540000  -302.20237      876.61957      574.4172       285.2451     
 398550000  -273.79009      848.29151      574.50142      276.02737    
 398560000  -280.88382      855.40753      574.52371      278.34287    
 398570000  -263.62615      838.19347      574.56733      272.74155    
 398580000  -263.66974      838.31013      574.6404       272.77951    
 398590000  -265.1954       839.85255      574.65716      273.2814     
 398600000  -288.79539      863.4435       574.64812      280.95771    
 398610000  -261.64007      836.32594      574.68587      272.13387    
 398620000  -259.75593      834.42641      574.67048      271.51578    
 398630000  -288.10873      862.832        574.72327      280.75874    
 398640000  -294.2729       869.03295      574.76005      282.77648    
 398650000  -300.8903       875.63341      574.74311      284.92421    
 398660000  -271.35772      846.14105      574.78333      275.32763    
 398670000  -309.50027      884.23276      574.73249      287.72237    
 398680000  -296.55395      871.24272      574.68877      283.49552    
 398690000  -273.08315      847.83008      574.74693      275.87723    
 398700000  -264.0803       838.82247      574.74218      272.94622    
 398710000  -275.99501      850.75279      574.75778      276.82825    
 398720000  -325.02878      899.76349      574.73471      292.77595    
 398730000  -298.46385      873.1561       574.69224      284.11811    
 398740000  -358.31043      933.0183       574.70787      303.5968     
 398750000  -276.33657      851.12898      574.79241      276.95066    
 398760000  -297.15142      871.94479      574.79337      283.72396    
 398770000  -284.17669      858.95555      574.77885      279.49737    
 398780000  -282.2107       857.02669      574.816        278.86973    
 398790000  -295.79135      870.59497      574.80362      283.28474    
 398800000  -269.31969      844.12488      574.80518      274.67158    
 398810000  -309.9992       884.7474       574.7482       287.88983    
 398820000  -303.6748       878.42528      574.75049      285.83267    
 398830000  -261.30182      836.16702      574.8652       272.08216    
 398840000  -282.14574      857.01806      574.87232      278.86692    
 398850000  -271.3231       846.20737      574.88427      275.34921    
 398860000  -264.77627      839.61559      574.83932      273.2043     
 398870000  -259.5963       834.51133      574.91503      271.54341    
 398880000  -293.61153      868.53838      574.92685      282.61555    
 398890000  -268.63626      843.51975      574.88348      274.47468    
 398900000  -298.19549      873.04145      574.84596      284.08081    
 398910000  -306.83374      881.77945      574.94571      286.92409    
 398920000  -288.517        863.46961      574.95261      280.96621    
 398930000  -299.33176      874.31593      574.98417      284.49552    
 398940000  -325.22319      900.15311      574.92992      292.90273    
 398950000  -289.95089      864.89349      574.9426       281.42953    
 398960000  -307.00748      881.89467      574.8872       286.96158    
 398970000  -300.56612      875.50889      574.94276      284.88369    
 398980000  -286.61527      861.63352      575.01824      280.36876    
 398990000  -296.7378       871.72091      574.9831       283.65111    
 399000000  -305.60473      880.62423      575.01951      286.54819    
 399010000  -247.19034      822.17697      574.98663      267.52991    
 399020000  -298.89861      873.8503       574.95169      284.344      
 399030000  -302.56367      877.59676      575.0331       285.56307    
 399040000  -286.22309      861.27526      575.05217      280.25218    
 399050000  -278.09974      853.18502      575.08528      277.61968    
 399060000  -297.76976      872.85397      575.08421      284.0198     
 399070000  -292.09705      867.20365      575.1066       282.18124    
 399080000  -295.57068      870.63966      575.06899      283.29929    
 399090000  -251.15848      826.28717      575.12869      268.86733    
 399100000  -281.55282      856.65702      575.1042       278.74945    
 399110000  -288.45293      863.58978      575.13685      281.00531    
 399120000  -281.94311      857.09528      575.15217      278.89205    
 399130000  -327.37238      902.51673      575.14434      293.67183    
 399140000  -296.37837      871.58391      575.20554      283.60654    
 399150000  -274.43952      849.62449      575.18498      276.46112    
 399160000  -296.8764       872.06696      575.19056      283.76372    
 399170000  -283.07074      858.31208      575.24134      279.28799    
 399180000  -312.06234      887.3001       575.23777      288.72046    
 399190000  -305.56505      880.79573      575.23068      286.60399    
 399200000  -289.54831      864.85066      575.30235      281.41559    
 399210000  -300.38852      875.65087      575.26235      284.9299     
 399220000  -296.47897      871.73015      575.25118      283.65412    
 399230000  -268.10261      843.32941      575.2268       274.41274    
 399240000  -308.6326       883.8083       575.1757       287.58426    
 399250000  -336.23571      911.34152      575.10581      296.54335    
 399260000  -261.44122      836.58156      575.14033      272.21705    
 399270000  -297.22573      872.33772      575.11199      283.85182    
 399280000  -295.28218      870.39628      575.11411      283.22009    
 399290000  -307.37142      882.49314      575.12172      287.15631    
 399300000  -300.44027      875.57414      575.13387      284.90493    
 399310000  -290.54807      865.7188       575.17073      281.69808    
 399320000  -260.87954      836.00427      575.12473      272.0292     
 399330000  -306.0323       881.2118       575.1795       286.73938    
 399340000  -254.30445      829.51969      575.21524      269.91917    
 399350000  -295.9241       871.13871      575.21461      283.46167    
 399360000  -293.404        868.64117      575.23717      282.64899    
 399370000  -294.12706      869.36502      575.23796      282.88453    
 399380000  -289.97685      865.2633       575.28645      281.54986    
 399390000  -267.17529      842.5267       575.35141      274.15155    
 399400000  -299.11058      874.46509      575.35451      284.54405    
 399410000  -286.71223      862.08469      575.37247      280.51557    
 399420000  -289.92935      865.31792      575.38856      281.56763    
 399430000  -278.97271      854.27833      575.30562      277.97544    
 399440000  -288.88759      864.22224      575.33465      281.21111    
 399450000  -262.34324      837.67817      575.33494      272.57388    
 399460000  -271.4507       846.61246      575.16177      275.48103    
 399470000  -261.13971      836.24099      575.10128      272.10623    
 399480000  -259.65073      834.67862      575.02789      271.59785    
 399490000  -265.15318      840.14928      574.9961       273.37796    
 399500000  -293.87006      868.88385      575.01379      282.72796    
 399510000  -283.40413      858.44771      575.04357      279.33212    
 399520000  -266.39457      841.4765       575.08193      273.80982    
 399530000  -309.14426      884.23651      575.09225      287.72359    
 399540000  -302.94281      877.97434      575.03154      285.68593    
 399550000  -306.64744      881.64873      575.00128      286.88155    
 399560000  -248.82987      823.89989      575.07003      268.09053    
 399570000  -256.59904      831.64785      575.04881      270.61166    
 399580000  -285.83509      860.85433      575.01925      280.11522    
 399590000  -266.53786      841.50347      574.96561      273.8186     
 399600000  -291.58423      866.53261      574.94838      281.96288    
 399610000  -279.55116      854.52563      574.97448      278.05591    
 399620000  -306.27549      881.19494      574.91946      286.73389    
 399630000  -292.46532      867.35499      574.88967      282.23048    
 399640000  -280.7094       855.60268      574.89328      278.40637    
 399650000  -293.74428      868.6785       574.93422      282.66114    
 399660000  -302.32872      877.21986      574.89114      285.44043    
 399670000  -259.55769      834.40353      574.84583      271.50833    
 399680000  -285.38505      860.22928      574.84423      279.91183    
 399690000  -288.07691      862.99893      574.92202      280.81305    
 399700000  -285.61518      860.54663      574.93145      280.01509    
 399710000  -241.70913      816.60088      574.89175      265.71549    
 399720000  -229.16709      804.1084       574.94131      261.65054    
 399730000  -308.29141      883.19302      574.9016       287.38405    
 399740000  -298.17064      873.04299      574.87235      284.08131    
 399750000  -280.51456      855.38065      574.86609      278.33413    
 399760000  -278.41809      853.31244      574.89435      277.66115    
 399770000  -301.02342      875.94715      574.92373      285.0263     
 399780000  -323.27312      898.14882      574.8757       292.25055    
 399790000  -265.04292      839.94809      574.90517      273.31249    
 399800000  -293.1324       868.113        574.9806       282.47713    
 399810000  -294.69995      869.67576      574.97581      282.98564    
 399820000  -263.35831      838.41364      575.05533      272.81319    
 399830000  -302.95845      878.01331      575.05485      285.69861    
 399840000  -257.31468      832.40969      575.09502      270.85956    
 399850000  -270.33936      845.41634      575.07698      275.09181    
 399860000  -293.06794      868.11514      575.0472       282.47783    
 399870000  -263.49725      838.60925      575.112        272.87684    
 399880000  -313.05307      888.19719      575.14412      289.01237    
 399890000  -325.58108      900.63825      575.05717      293.06059    
 399900000  -309.63531      884.75509      575.11977      287.89233    
 399910000  -269.7703       844.85628      575.08598      274.90958    
 399920000  -301.42934      876.54365      575.11431      285.2204     
 399930000  -327.35017      902.46812      575.11795      293.65602    
 399940000  -289.19105      864.32039      575.12934      281.24304    
 399950000  -256.86127      831.98592      575.12465      270.72166    
 399960000  -318.64894      893.788        575.13907      290.83157    
 399970000  -311.123        886.34471      575.22171      288.40958    
 399980000  -266.81249      841.99569      575.1832       273.97876    
 399990000  -282.6026       857.73041      575.12781      279.09872    
 400000000  -240.28245      815.44298      575.16053      265.33872    
Loop time of 29423.9 on 32 procs for 400000000 steps with 1032 atoms

Performance: 11745.572 ns/day, 0.002 hours/ns, 13594.412 timesteps/s, 14.029 Matom-step/s
99.3% CPU use with 32 MPI tasks x 1 OpenMP threads

MPI task timing breakdown:
Section |  min time  |  avg time  |  max time  |%varavg| %total
---------------------------------------------------------------
Pair    | 9396.2     | 10106      | 10773      | 306.6 | 34.35
Bond    | 441.89     | 460.71     | 481.11     |  43.6 |  1.57
Neigh   | 109.87     | 114.09     | 117.88     |  24.5 |  0.39
Comm    | 17530      | 18161      | 18849      | 229.2 | 61.72
Output  | 3.5735     | 5.8791     | 16.448     |  94.1 |  0.02
Modify  | 119.82     | 126.79     | 135.29     |  36.6 |  0.43
Other   |            | 450.1      |            |       |  1.53

Nlocal:          32.25 ave          59 max           5 min
Histogram: 2 3 2 4 3 8 2 4 2 2
Nghost:        374.938 ave         456 max         314 min
Histogram: 3 3 5 9 0 3 3 4 1 1
Neighs:        345.969 ave         918 max          17 min
Histogram: 4 6 4 8 2 2 1 2 2 1

Total # of neighbors = 11071
Ave neighs/atom = 10.727713
Ave special neighs/atom = 4.8255814
Neighbor list builds = 1396060
Dangerous builds = 0
System init for write_data ...
Generated 0 of 6 mixed pair_coeff terms from geometric mixing rule
Total wall time: 8:10:24
