
# ===============================
# FORCE FIELD (same as original)
# ===============================
bond_style harmonic
bond_coeff 1 7.5 5.9

angle_style harmonic
angle_coeff 1 5.0 150.0

pair_style hybrid/overlay lj/cut 10.0 base/rna 18.0
pair_modify shift yes
pair_coeff * * lj/cut 2.0 8.9089871814

pair_coeff 1 1 base/rna 0.00000 3.0 13.8 1.5 0.5 1.8326 0.9425 1.8326 1.1345
pair_coeff 1 2 base/rna 0.00000 3.0 13.8 1.5 0.5 1.8326 0.9425 1.8326 1.1345
pair_coeff 1 3 base/rna 0.00000 3.0 13.8 1.5 0.5 1.8326 0.9425 1.8326 1.1345
pair_coeff 1 4 base/rna 3.33333 3.0 13.8 1.5 0.5 1.8326 0.9425 1.8326 1.1345
pair_coeff 2 2 base/rna 0.00000 3.0 13.8 1.5 0.5 1.8326 0.9425 1.8326 1.1345
pair_coeff 2 3 base/rna 5.00000 3.0 13.8 1.5 0.5 1.8326 0.9425 1.8326 1.1345
pair_coeff 2 4 base/rna 0.00000 3.0 13.8 1.5 0.5 1.8326 0.9425 1.8326 1.1345
pair_coeff 3 3 base/rna 0.00000 3.0 13.8 1.5 0.5 1.8326 0.9425 1.8326 1.1345
pair_coeff 3 4 base/rna 3.33333 3.0 13.8 1.5 0.5 1.8326 0.9425 1.8326 1.1345
pair_coeff 4 4 base/rna 0.00000 3.0 13.8 1.5 0.5 1.8326 0.9425 1.8326 1.1345

special_bonds lj 0.0 0.0 1.0
Finding 1-2 1-3 1-4 neighbors ...
  special bond factors lj:    0        0        1       
  special bond factors coul:  0        0        0       
     2 = max # of 1-2 neighbors
     2 = max # of 1-3 neighbors
     4 = max # of 1-4 neighbors
     6 = max # of special neighbors
  special bonds CPU = 0.000 seconds
neighbor 15.0 bin
neigh_modify every 10 delay 0
comm_style tiled
timestep 10

# ===============================
# 1. MINIMIZATION
# ===============================
minimize 1.0e-4 1.0e-6 1000 10000

CITE-CITE-CITE-CITE-CITE-CITE-CITE-CITE-CITE-CITE-CITE-CITE-CITE

Your simulation uses code contributions which should be cited:

- Type Label Framework: https://doi.org/10.1021/acs.jpcb.3c08419

@Article{Gissinger24,
 author = {Jacob R. Gissinger, Ilia Nikiforov, Yaser Afshar, Brendon Waters, Moon-ki Choi, Daniel S. Karls, Alexander Stukowski, Wonpil Im, Hendrik Heinz, Axel Kohlmeyer, and Ellad B. Tadmor},
 title = {Type Label Framework for Bonded Force Fields in LAMMPS},
 journal = {J. Phys. Chem. B},
 year =    2024,
 volume =  128,
 number =  13,
 pages =   {3282–-3297}
}

CITE-CITE-CITE-CITE-CITE-CITE-CITE-CITE-CITE-CITE-CITE-CITE-CITE

Switching to 'neigh_modify every 1 delay 0 check yes' setting during minimization
Generated 0 of 6 mixed pair_coeff terms from geometric mixing rule
Neighbor list info ...
  update: every = 1 steps, delay = 0 steps, check = yes
  max neighbors/atom: 2000, page size: 100000
  master list distance cutoff = 33
  ghost atom cutoff = 33
  binsize = 16.5, bins = 10 10 10
  2 neighbor lists, perpetual/occasional/extra = 2 0 0
  (1) pair lj/cut, perpetual, trim from (2)
      attributes: half, newton on, cut 25
      pair build: trim
      stencil: none
      bin: none
  (2) pair base/rna, perpetual
      attributes: half, newton on
      pair build: half/bin/newton
      stencil: half/bin/3d
      bin: standard
Per MPI rank memory allocation (min/avg/max) = 8.423 | 8.424 | 8.424 Mbytes
   Step          Temp          E_pair         E_mol          TotEng         Press     
         0   0              3.2329363e+13  2470.137       3.2329363e+13  2.1648181e+12
      1000   0             -500.20328      20.827169     -479.37611     -0.94308338   
Loop time of 0.678907 on 4 procs for 1000 steps with 1032 atoms

96.4% CPU use with 4 MPI tasks x 1 OpenMP threads

Minimization stats:
  Stopping criterion = max iterations
  Energy initial, next-to-last, final = 
      32329362506849.8  -479.229408560644  -479.376110355224
  Force two-norm initial, final = 6.9147965e+14 2.7552651
  Force max component initial, final = 3.856429e+14 0.66697488
  Final line search alpha, max atom move = 0.10909022 0.072760434
  Iterations, force evaluations = 1000 1442

MPI task timing breakdown:
Section |  min time  |  avg time  |  max time  |%varavg| %total
---------------------------------------------------------------
Pair    | 0.30264    | 0.45993    | 0.58771    |  15.8 | 67.75
Bond    | 0.023985   | 0.030703   | 0.035295   |   2.4 |  4.52
Neigh   | 0.0028688  | 0.0028753  | 0.0028823  |   0.0 |  0.42
Comm    | 0.039827   | 0.17078    | 0.33401    |  26.9 | 25.16
Output  | 2.8547e-05 | 2.9376e-05 | 3.0604e-05 |   0.0 |  0.00
Modify  | 0          | 0          | 0          |   0.0 |  0.00
Other   |            | 0.01459    |            |       |  2.15

Nlocal:            258 ave         294 max         207 min
Histogram: 1 0 0 0 1 0 0 0 0 2
Nghost:            868 ave         906 max         837 min
Histogram: 1 0 0 1 1 0 0 0 0 1
Neighs:        2601.75 ave        3160 max        1680 min
Histogram: 1 0 0 0 1 0 0 0 0 2

Total # of neighbors = 10407
Ave neighs/atom = 10.084302
Ave special neighs/atom = 4.8255814
Neighbor list builds = 5
Dangerous builds = 0
reset_timestep 0

# ===============================
# 2. OUTPUTS
# ===============================
dump d1 all custom 50000 outputs/${tag}.lammpstrj id mol type q xu yu zu
dump d1 all custom 50000 outputs/100ASO_unmodified_AAtoCC.lammpstrj id mol type q xu yu zu
dump_modify d1 sort id

thermo_style custom step pe ke etotal temp press density
thermo 10000
thermo_modify flush yes

variable vpe equal pe
variable vke equal ke
variable vT  equal temp
variable vE  equal etotal
variable vRg equal gyration(all)

fix favg all ave/time 10000 10 100000 v_vpe v_vke v_vT v_vE v_vRg     file outputs/thermo_${tag}_averaged.dat
fix favg all ave/time 10000 10 100000 v_vpe v_vke v_vT v_vE v_vRg     file outputs/thermo_100ASO_unmodified_AAtoCC_averaged.dat

# ===============================
# 3. EQUILIBRATION (NVT)
# ===============================
velocity all create ${T_target} 31753 rot yes dist gaussian
velocity all create 300 31753 rot yes dist gaussian

# Langevin thermostat for equilibration
fix fxlang all langevin ${T_target} ${T_target} 1000.0 84839
fix fxlang all langevin 300 ${T_target} 1000.0 84839
fix fxlang all langevin 300 300 1000.0 84839
fix fxnve  all nve
fix recenter all momentum 1000 linear 1 1 1

# Equilibration run
run 5000000
Generated 0 of 6 mixed pair_coeff terms from geometric mixing rule
Per MPI rank memory allocation (min/avg/max) = 7.314 | 7.314 | 7.315 Mbytes
   Step         PotEng         KinEng         TotEng          Temp          Press         Density    
         0  -479.37611      921.96455      442.58844      300            9.3462473      0.13455854   
     10000   275.84131      938.46726      1214.3086      305.36985      5.7135337      0.13455854   
     20000   314.81742      883.60324      1198.4207      287.51753      4.4420641      0.13455854   
     30000   284.2097       962.68369      1246.8934      313.24969      1.9050987      0.13455854   
     40000   269.30333      949.91023      1219.2136      309.0933       2.8946275      0.13455854   
     50000   246.85352      925.67367      1172.5272      301.20692      5.1566461      0.13455854   
     60000   221.55522      946.1157       1167.6709      307.85859      2.1212988      0.13455854   
     70000   245.92209      907.14368      1153.0658      295.17741      1.8768866      0.13455854   
     80000   199.38569      930.6248       1130.0105      302.81798     -5.1265717      0.13455854   
     90000   138.72839      923.88003      1062.6084      300.62328      7.5149815      0.13455854   
    100000   189.28856      894.62101      1083.9096      291.10263      0.74645989     0.13455854   
    110000   152.55549      878.95525      1031.5107      286.00511      3.2538955      0.13455854   
    120000   109.71761      939.45056      1049.1682      305.68981      4.2955014      0.13455854   
    130000   95.102906      929.12535      1024.2283      302.33007      1.949954       0.13455854   
    140000   124.68316      869.15729      993.84045      282.81693      7.5908155      0.13455854   
    150000   84.890276      931.292        1016.1823      303.03508     -0.21202421     0.13455854   
    160000   63.744348      950.22966      1013.974       309.19725     -5.3158965      0.13455854   
    170000   73.246192      912.68942      985.93561      296.98195     -2.7738692      0.13455854   
    180000   16.383612      913.36982      929.75343      297.20334      3.3636837      0.13455854   
    190000   27.707461      903.06744      930.7749       293.85103     -0.25322367     0.13455854   
    200000   40.721862      884.37099      925.09286      287.76735      7.5229297      0.13455854   
    210000   5.602897       894.49471      900.09761      291.06153     -0.49296278     0.13455854   
    220000   71.461823      913.83174      985.29357      297.35365      3.8708272      0.13455854   
    230000   0.32071251     910.47501      910.79572      296.26139      2.0634684      0.13455854   
    240000   47.702302      915.48328      963.18558      297.89105     -2.3900028      0.13455854   
    250000   48.16439       909.46627      957.63066      295.93316      1.8638625      0.13455854   
    260000   78.53173       911.42458      989.95631      296.57038      13.656335      0.13455854   
    270000  -21.864778      955.08813      933.22335      310.77815      4.0935577      0.13455854   
    280000   4.7936544      924.17316      928.96682      300.71867     -2.4494381      0.13455854   
    290000   51.787525      920.12713      971.91465      299.40212      0.50416059     0.13455854   
    300000   76.047604      896.93478      972.98238      291.85551      9.2938008      0.13455854   
    310000  -69.943465      863.88337      793.9399       281.10084      2.444565       0.13455854   
    320000  -38.239014      870.12193      831.88291      283.13082      1.9081828      0.13455854   
    330000   16.571172      914.36962      930.94079      297.52867      2.6608033      0.13455854   
    340000   14.887624      903.37964      918.26726      293.95262     -1.4687558      0.13455854   
    350000  -42.653718      941.43332      898.7796       306.33498      6.5728311      0.13455854   
    360000  -26.382982      972.62374      946.24076      316.4841       1.850322       0.13455854   
    370000   0.068887338    872.33633      872.40521      283.85137     -1.8294778      0.13455854   
    380000  -2.1721052      918.8549       916.6828       298.98815     -1.5527752      0.13455854   
    390000  -67.947021      930.02582      862.0788       302.62307     -5.4432756      0.13455854   
    400000  -66.367423      915.68425      849.31683      297.95644      2.3760064      0.13455854   
    410000  -45.042681      935.03892      889.99623      304.2543      -1.9924558      0.13455854   
    420000  -40.704864      890.02041      849.31555      289.60563     -2.8171837      0.13455854   
    430000  -0.99649695     886.71435      885.71785      288.52986     -3.4406089      0.13455854   
    440000  -22.832833      959.52512      936.69228      312.22191      1.9166604      0.13455854   
    450000  -44.951503      949.45492      904.50341      308.94515      1.4503942      0.13455854   
    460000  -52.369103      933.78512      881.41602      303.84632      3.5427408      0.13455854   
    470000  -39.294225      921.64135      882.34713      299.89483     -0.55828706     0.13455854   
    480000  -76.005196      874.87759      798.8724       284.67828      0.1794745      0.13455854   
    490000  -79.421247      921.69299      842.27174      299.91164      3.3798624      0.13455854   
    500000  -58.783884      921.2465       862.46262      299.76635      0.74396346     0.13455854   
    510000  -56.438643      919.59291      863.15427      299.22829     -3.9737119      0.13455854   
    520000  -51.599609      929.73538      878.13577      302.52857     -4.0890893      0.13455854   
    530000  -67.365907      947.90894      880.54303      308.4421       12.752562      0.13455854   
    540000  -82.130706      912.11956      829.98885      296.79652      4.9108968      0.13455854   
    550000  -63.354232      917.60986      854.25563      298.58302      1.6367894      0.13455854   
    560000  -98.358634      889.28375      790.92512      289.36593      4.4287291      0.13455854   
    570000  -80.709253      949.18212      868.47287      308.85638      1.8302817      0.13455854   
    580000  -77.645013      953.68927      876.04426      310.32297     -1.4636655      0.13455854   
    590000  -92.964695      899.52392      806.55922      292.698       -3.2977693      0.13455854   
    600000  -36.413708      921.40076      884.98705      299.81655      4.4135054      0.13455854   
    610000  -72.21243       914.59159      842.37915      297.6009      -1.6268271      0.13455854   
    620000  -18.601755      888.06006      869.45831      288.96775      2.7911081      0.13455854   
    630000  -74.688098      935.39792      860.70982      304.37111      3.3817625      0.13455854   
    640000  -114.43629      901.86354      787.42725      293.45929     -4.8338277      0.13455854   
    650000  -80.604352      900.31026      819.70591      292.95386     -2.8295035      0.13455854   
    660000  -71.409809      931.33286      859.92306      303.04838      6.990638       0.13455854   
    670000  -84.723458      904.04032      819.31686      294.1676      -0.31560347     0.13455854   
    680000  -69.256798      919.3492       850.09241      299.14899      3.7783079      0.13455854   
    690000  -88.100651      932.18392      844.08327      303.3253       2.7018429      0.13455854   
    700000  -69.698744      897.64258      827.94383      292.08582     -1.994254       0.13455854   
    710000  -92.63696       889.52444      796.88748      289.44424      6.3048576      0.13455854   
    720000  -70.595669      960.24644      889.65077      312.45663      0.13689168     0.13455854   
    730000  -54.990962      943.06001      888.06905      306.8643      -2.2960457      0.13455854   
    740000  -40.481101      943.40202      902.92092      306.97558      5.2467204      0.13455854   
    750000  -107.90604      923.45927      815.55323      300.48637     -3.0742258      0.13455854   
    760000  -87.506846      889.94357      802.43672      289.58063     -8.8300094      0.13455854   
    770000  -131.57241      944.13478      812.56238      307.21402      0.31144337     0.13455854   
    780000  -89.834717      925.03383      835.19911      300.99872     -3.2501416      0.13455854   
    790000  -84.474666      911.43046      826.95579      296.57229     -1.9838776      0.13455854   
    800000  -59.559838      924.77952      865.21969      300.91597      1.6687817      0.13455854   
    810000  -88.431509      893.35542      804.92391      290.69082     -3.5761764      0.13455854   
    820000  -60.862744      893.37556      832.51281      290.69737      0.48684019     0.13455854   
    830000  -59.984633      974.27749      914.29285      317.02222      3.4130325      0.13455854   
    840000  -45.333671      933.41882      888.08515      303.72713      3.2301807      0.13455854   
    850000  -50.868659      955.82263      904.95397      311.01715     -3.623548       0.13455854   
    860000  -25.468523      901.76842      876.29989      293.42834     -2.6294593      0.13455854   
    870000  -132.49398      910.49796      778.00398      296.26886      1.7135809      0.13455854   
    880000  -147.01313      952.21904      805.20591      309.84457     -0.98262296     0.13455854   
    890000  -72.080767      934.23656      862.1558       303.99322      2.2783639      0.13455854   
    900000  -106.50035      920.32367      813.82332      299.46607     -2.6950189      0.13455854   
    910000  -49.336607      935.17857      885.84196      304.29974      6.201533       0.13455854   
    920000  -49.25525       888.89702      839.64177      289.24009     -6.2903465      0.13455854   
    930000  -70.324643      936.47448      866.14983      304.72142     -0.60282246     0.13455854   
    940000  -110.88715      936.43761      825.55046      304.70942      3.9059297      0.13455854   
    950000  -61.559302      895.60034      834.04103      291.42129     -0.7694543      0.13455854   
    960000  -100.5054       956.50559      856.0002       311.23938      2.05613        0.13455854   
    970000  -46.024919      909.75248      863.72757      296.02629     -1.950594       0.13455854   
    980000  -97.776462      903.83034      806.05388      294.09927      3.5390418      0.13455854   
    990000  -76.272836      905.44208      829.16925      294.62372     -1.2556787      0.13455854   
   1000000  -82.987007      930.99172      848.00471      302.93737      2.559139       0.13455854   
   1010000  -44.273349      939.62846      895.35511      305.7477       10.565573      0.13455854   
   1020000  -116.49622      877.06808      760.57185      285.39104      5.3573493      0.13455854   
   1030000  -119.91383      937.27443      817.3606       304.98171      4.3918916      0.13455854   
   1040000  -104.77248      899.8943       795.12182      292.81851      4.5247104      0.13455854   
   1050000  -88.371783      944.74053      856.36874      307.41112     -1.3202978      0.13455854   
   1060000  -90.07917       953.6506       863.57143      310.31039     -1.7128648      0.13455854   
   1070000  -78.791859      883.3656       804.57374      287.44021     -2.1488085      0.13455854   
   1080000  -79.307749      967.53525      888.2275       314.82835     -3.1669883      0.13455854   
   1090000  -73.748953      910.14976      836.40081      296.15556      6.0809155      0.13455854   
   1100000  -59.960171      871.22085      811.26068      283.4884       2.167294       0.13455854   
   1110000  -18.108976      873.23941      855.13043      284.14522      0.67567012     0.13455854   
   1120000  -91.425343      924.72553      833.30019      300.8984       15.663895      0.13455854   
   1130000  -91.44452       943.24085      851.79633      306.92314      0.0030365496   0.13455854   
   1140000  -99.236521      902.80471      803.56819      293.76554      0.95218318     0.13455854   
   1150000  -132.37263      936.06524      803.69261      304.58826      0.1216306      0.13455854   
   1160000  -83.340886      923.28935      839.94847      300.43108     -0.43495694     0.13455854   
   1170000  -78.714121      921.80004      843.08592      299.94647     -8.4046285      0.13455854   
   1180000  -91.938884      935.40174      843.46286      304.37236     -1.8576308      0.13455854   
   1190000  -91.162034      942.52528      851.36325      306.6903       6.7669871      0.13455854   
   1200000  -66.521823      950.66038      884.13855      309.3374      -5.0209029      0.13455854   
   1210000  -43.005554      922.25277      879.24722      300.09379      1.6551759      0.13455854   
   1220000  -59.220371      917.61879      858.39842      298.58592      2.2760119      0.13455854   
   1230000  -106.76956      953.36299      846.59343      310.2168       7.7880412      0.13455854   
   1240000  -106.86355      954.2038       847.34025      310.4904      -3.9614594      0.13455854   
   1250000  -88.275011      926.78852      838.51351      301.56968     -0.76254574     0.13455854   
   1260000  -52.682797      908.56221      855.87942      295.63899     -6.0372354      0.13455854   
   1270000  -52.074593      910.15552      858.08093      296.15744     -1.4154519      0.13455854   
   1280000  -45.092393      902.97125      857.87886      293.81973      2.7666048      0.13455854   
   1290000  -38.438877      895.29073      856.85185      291.32055     -13.220627      0.13455854   
   1300000  -63.383713      942.59943      879.21572      306.71443      6.5018775      0.13455854   
   1310000  -110.75493      910.44037      799.68544      296.25012      3.2418773      0.13455854   
   1320000  -119.4426       933.16141      813.71881      303.64337      0.28000863     0.13455854   
   1330000  -108.56642      946.22973      837.66332      307.8957       2.2786091      0.13455854   
   1340000  -110.71796      940.57669      829.85873      306.05624      5.8529719      0.13455854   
   1350000  -45.34263       933.82048      888.47785      303.85783      1.8498203      0.13455854   
   1360000  -118.73415      906.4138       787.67965      294.93991     -5.5055085      0.13455854   
   1370000  -57.113157      910.10202      852.98886      296.14003      9.8948006      0.13455854   
   1380000  -51.567902      913.32763      861.75972      297.18961      3.2402038      0.13455854   
   1390000  -94.123919      925.59191      831.46799      301.18031      5.1141944      0.13455854   
   1400000  -26.77799       916.94115      890.16316      298.36542     -11.175116      0.13455854   
   1410000  -53.464105      978.4925       925.02839      318.39375      4.1383291      0.13455854   
   1420000  -27.878923      876.59842      848.7195       285.23822     -0.90576409     0.13455854   
   1430000  -19.406518      911.26515      891.85863      296.5185       2.4041439      0.13455854   
   1440000  -37.087898      939.93776      902.84986      305.84834      1.8096618      0.13455854   
   1450000  -75.588556      907.35354      831.76498      295.24569     -1.7514958      0.13455854   
   1460000  -68.674722      905.73435      837.05962      294.71882     -6.3252666      0.13455854   
   1470000  -13.820532      911.54671      897.72618      296.61012     -1.9781322      0.13455854   
   1480000  -118.95617      956.30083      837.34466      311.17276      2.632495       0.13455854   
   1490000  -87.403291      912.57993      825.17664      296.94632      1.4504234      0.13455854   
   1500000  -25.726121      906.23673      880.51061      294.88229     -4.875346       0.13455854   
   1510000  -10.315083      914.18987      903.87479      297.47018      4.1332122      0.13455854   
   1520000  -38.733354      923.90396      885.1706       300.63107      7.528482       0.13455854   
   1530000  -39.092436      905.44156      866.34912      294.62355     -8.5024021      0.13455854   
   1540000  -24.385885      886.23054      861.84465      288.37243     -3.1675345      0.13455854   
   1550000  -40.038279      892.52714      852.48886      290.4213      -2.6227209      0.13455854   
   1560000  -92.616393      906.52292      813.90653      294.97542      3.5561313      0.13455854   
   1570000  -38.38538       897.30419      858.91881      291.97571     -0.26741445     0.13455854   
   1580000  -4.3496728      952.6035       948.25383      309.96967     -9.1420906      0.13455854   
   1590000  -58.493994      910.18862      851.69463      296.16821      5.5378476      0.13455854   
   1600000  -96.142273      947.98675      851.84448      308.46742      0.18925935     0.13455854   
   1610000  -39.521343      922.12881      882.60747      300.05345     -0.46175582     0.13455854   
   1620000  -59.156043      926.58169      867.42564      301.50238      7.72705        0.13455854   
   1630000  -58.771208      880.90325      822.13205      286.63898      2.4224341      0.13455854   
   1640000  -49.972343      928.66717      878.69482      302.18098      3.0785823      0.13455854   
   1650000  -16.791689      839.38171      822.59003      273.1282       2.871244       0.13455854   
   1660000  -25.443899      926.37109      900.92719      301.43386      6.4639609      0.13455854   
   1670000  -34.402981      933.20857      898.80559      303.65872     -2.1617682      0.13455854   
   1680000  -16.394692      891.87446      875.47977      290.20892     -1.1371503      0.13455854   
   1690000  -54.426295      887.65742      833.23113      288.83673      5.6851741      0.13455854   
   1700000  -68.23023       917.13883      848.9086       298.42975     -1.7170088      0.13455854   
   1710000  -45.580861      925.55922      879.97836      301.16968     -2.2825925      0.13455854   
   1720000  -88.585804      934.86627      846.28047      304.19812     -1.069597       0.13455854   
   1730000  -10.018368      899.62412      889.60575      292.7306       2.4908561      0.13455854   
   1740000  -47.891741      919.9926       872.10086      299.35834     -6.6463922      0.13455854   
   1750000  -88.002728      916.73719      828.73446      298.29906     -0.90498758     0.13455854   
   1760000  -40.851272      876.48089      835.62961      285.19997      0.48431412     0.13455854   
   1770000  -62.062909      928.91095      866.84804      302.26031      0.4131731      0.13455854   
   1780000  -27.913018      921.26643      893.35341      299.77284      0.52196903     0.13455854   
   1790000  -55.941309      954.55524      898.61393      310.60475     -3.6687171      0.13455854   
   1800000  -65.983332      908.73024      842.74691      295.69366     -1.9770411      0.13455854   
   1810000  -95.592823      929.21099      833.61816      302.35793      10.653021      0.13455854   
   1820000  -88.382547      938.94895      850.56641      305.52659     -0.85363676     0.13455854   
   1830000  -68.788865      949.16058      880.37172      308.84937      2.029028       0.13455854   
   1840000  -68.714008      875.76669      807.05268      284.96758     -2.3063634      0.13455854   
   1850000  -47.584085      893.9669       846.38282      290.88979      5.2786285      0.13455854   
   1860000  -71.124758      924.64512      853.52036      300.87224     -5.3211128      0.13455854   
   1870000  -33.986362      905.22618      871.23982      294.55347      5.3302202      0.13455854   
   1880000  -46.593815      926.02694      879.43312      301.32187     -4.1813107      0.13455854   
   1890000  -83.866779      898.32177      814.455        292.30683     -9.5119012      0.13455854   
   1900000  -68.543053      935.66035      867.1173       304.45651      1.3995907      0.13455854   
   1910000  -42.355119      967.22587      924.87075      314.72768      1.8655591      0.13455854   
   1920000  -86.955256      961.71421      874.75895      312.93423      1.4319171      0.13455854   
   1930000  -12.283988      892.54765      880.26367      290.42797     -6.5269136      0.13455854   
   1940000  -0.82158588     942.99122      942.16963      306.84191      4.543145       0.13455854   
   1950000  -61.978478      941.43506      879.45658      306.33555     -3.5072561      0.13455854   
   1960000  -39.095967      923.76626      884.6703       300.58626      5.6226435      0.13455854   
   1970000  -99.500491      907.88357      808.38308      295.41816      3.9717933      0.13455854   
   1980000  -90.574496      966.77778      876.20329      314.58187      3.1573145      0.13455854   
   1990000  -69.078281      894.2544       825.17612      290.98334     -0.011338601    0.13455854   
   2000000  -78.913057      933.86071      854.94765      303.87092      2.5890671      0.13455854   
   2010000  -85.009028      916.38747      831.37844      298.18526     -4.1009969      0.13455854   
   2020000  -53.522181      936.61595      883.09377      304.76745      5.3482806      0.13455854   
   2030000  -144.7326       920.37319      775.64058      299.48218      3.946103       0.13455854   
   2040000  -27.387803      944.95974      917.57193      307.48245      9.2027776      0.13455854   
   2050000  -134.91427      935.74375      800.82948      304.48364     -0.55220185     0.13455854   
   2060000  -93.948706      918.48068      824.53198      298.86638      8.9064519      0.13455854   
   2070000  -149.79659      900.21958      750.42299      292.92436      6.0741382      0.13455854   
   2080000  -65.651864      952.2451       886.59324      309.85305     -4.7820484      0.13455854   
   2090000  -95.686721      897.44017      801.75345      292.01996     -7.9637473      0.13455854   
   2100000  -88.638141      914.05551      825.41737      297.42646     -3.376484       0.13455854   
   2110000  -68.749275      909.82012      841.07084      296.0483      -2.591733       0.13455854   
   2120000  -85.915658      922.41216      836.4965       300.14565     -0.14291002     0.13455854   
   2130000  -128.82704      935.38511      806.55807      304.36695     -3.3473209      0.13455854   
   2140000  -137.05407      939.09703      802.04297      305.57478      5.9837027      0.13455854   
   2150000  -95.227163      948.77601      853.54884      308.72424      11.846537      0.13455854   
   2160000  -48.257816      920.81589      872.55808      299.62624     -4.1291407      0.13455854   
   2170000  -42.128644      913.38483      871.25619      297.20823     -7.024829       0.13455854   
   2180000  -123.13195      927.6003       804.46836      301.83383      2.7389024      0.13455854   
   2190000  -126.44097      873.80001      747.35904      284.32764      2.5982447      0.13455854   
   2200000  -121.79706      957.39082      835.59376      311.52743      1.1128162      0.13455854   
   2210000  -128.22479      968.4187       840.19391      315.11581      2.9445454      0.13455854   
   2220000  -130.73431      882.78106      752.04675      287.25         10.398017      0.13455854   
   2230000  -139.53193      932.11838      792.58644      303.30398      2.6357438      0.13455854   
   2240000  -87.833127      934.3421       846.50897      304.02756      0.59277438     0.13455854   
   2250000  -136.16005      894.87231      758.71225      291.1844      -3.6758146      0.13455854   
   2260000  -91.130647      927.84679      836.71614      301.91403      3.9811124      0.13455854   
   2270000  -110.44148      875.96551      765.52403      285.03227     -1.7462441      0.13455854   
   2280000  -99.267661      965.62331      866.35564      314.20622      1.0576591      0.13455854   
   2290000  -122.63063      891.49319      768.86256      290.08486      4.5421615      0.13455854   
   2300000  -60.630802      938.44311      877.81231      305.36199      6.3131089      0.13455854   
   2310000  -55.821783      933.03495      877.21317      303.60222      0.85493667     0.13455854   
   2320000  -35.614374      911.56547      875.9511       296.61622      3.3292513      0.13455854   
   2330000  -88.625307      869.44837      780.82306      282.91165      4.0299555      0.13455854   
   2340000  -63.775637      925.08961      861.31398      301.01687      3.0563776      0.13455854   
   2350000  -151.84542      900.35717      748.51174      292.96913     -1.0330089      0.13455854   
   2360000  -130.8522       915.91005      785.05785      298.02991     -1.0079149      0.13455854   
   2370000  -116.40334      917.9795       801.57616      298.7033       0.093568353    0.13455854   
   2380000  -147.52761      928.47974      780.95213      302.11999      6.3392651      0.13455854   
   2390000  -118.11473      955.77756      837.66283      311.00249     -5.3793118      0.13455854   
   2400000  -127.63568      911.9829       784.34723      296.75205      1.4792574      0.13455854   
   2410000  -180.95831      909.02888      728.07057      295.79083     -12.29248       0.13455854   
   2420000  -96.967561      906.04658      809.07902      294.82042      5.5843856      0.13455854   
   2430000  -133.21567      937.44029      804.22462      305.03568      2.1964757      0.13455854   
   2440000  -130.3972       993.16989      862.77269      323.16966      5.1967017      0.13455854   
   2450000  -113.17099      934.23934      821.06835      303.99412      4.262335       0.13455854   
   2460000  -73.112789      931.03926      857.92647      302.95284      2.4380442      0.13455854   
   2470000  -80.067074      876.89407      796.827        285.33442     -4.3527813      0.13455854   
   2480000  -121.52881      918.00236      796.47355      298.71073      1.5639112      0.13455854   
   2490000  -79.38968       944.75969      865.37001      307.41736     -3.3930055      0.13455854   
   2500000  -121.30511      943.15337      821.84826      306.89468      1.7047357      0.13455854   
   2510000  -135.69929      906.07363      770.37435      294.82922      3.1867097      0.13455854   
   2520000  -75.235481      913.80393      838.56845      297.3446      -2.5848086      0.13455854   
   2530000  -93.504753      964.84471      871.33996      313.95287      5.5363371      0.13455854   
   2540000  -68.938598      941.74564      872.80704      306.43661      4.1806807      0.13455854   
   2550000  -110.19996      914.19718      803.99722      297.47256      0.16326466     0.13455854   
   2560000  -94.735643      924.89539      830.15975      300.95367      5.3691294      0.13455854   
   2570000  -87.068519      932.92755      845.85903      303.56727     -2.0571117      0.13455854   
   2580000  -130.66901      908.34175      777.67274      295.56725     -1.2059238      0.13455854   
   2590000  -84.179784      927.16798      842.98819      301.69315      2.1099907      0.13455854   
   2600000  -71.968118      912.70894      840.74082      296.9883       6.1873389      0.13455854   
   2610000  -127.88452      946.73908      818.85457      308.06144     -1.9681313      0.13455854   
   2620000  -93.8344        910.52665      816.69225      296.2782      -0.35325087     0.13455854   
   2630000  -106.36391      918.00799      811.64408      298.71257      3.0161429      0.13455854   
   2640000  -154.89631      913.34017      758.44386      297.19369      3.6923521      0.13455854   
   2650000  -101.22463      929.37618      828.15155      302.41169      0.40313346     0.13455854   
   2660000  -75.09076       917.11102      842.02026      298.4207      -1.3572831      0.13455854   
   2670000  -93.189971      996.54852      903.35855      324.26904     -1.5303676      0.13455854   
   2680000  -123.53181      930.57319      807.04138      302.80118      3.0212536      0.13455854   
   2690000  -68.287016      917.01377      848.72676      298.38906      5.7122359      0.13455854   
   2700000  -113.03989      929.06537      816.02548      302.31055     -5.3079877      0.13455854   
   2710000  -57.406025      939.62999      882.22397      305.7482      -3.5517146      0.13455854   
   2720000  -67.291678      962.60438      895.3127       313.22388     -5.2616293      0.13455854   
   2730000  -93.651313      971.12861      877.4773       315.9976       3.4756051      0.13455854   
   2740000  -68.488056      903.32052      834.83247      293.93338      5.5034348      0.13455854   
   2750000  -71.946388      944.53977      872.59338      307.3458      -2.7445709      0.13455854   
   2760000  -116.97298      893.96058      776.98759      290.88773      5.5377895      0.13455854   
   2770000  -13.752996      916.76012      903.00712      298.30652     -0.052822128    0.13455854   
   2780000  -39.759132      936.53224      896.77311      304.74021      6.5838712      0.13455854   
   2790000  -58.612515      910.38672      851.77421      296.23267      2.6425194      0.13455854   
   2800000  -56.723127      909.82461      853.10149      296.04976      4.6391085      0.13455854   
   2810000  -101.02888      926.6175       825.58862      301.51403      1.315347       0.13455854   
   2820000  -40.63917       911.20962      870.57045      296.50043      7.1553481      0.13455854   
   2830000  -98.832465      951.63532      852.80285      309.65463     -7.6974247      0.13455854   
   2840000  -116.91366      939.3827       822.46904      305.66773      9.8667913      0.13455854   
   2850000  -94.110849      897.06412      802.95327      291.8976       1.768869       0.13455854   
   2860000  -87.729502      888.85142      801.12192      289.22525     -0.60482452     0.13455854   
   2870000  -86.506939      936.80064      850.2937       304.82755      1.8662867      0.13455854   
   2880000  -86.140673      938.72336      852.58269      305.45319     -3.816313       0.13455854   
   2890000  -57.589766      906.29908      848.70931      294.90258      0.75791069     0.13455854   
   2900000  -59.250861      957.15356      897.9027       311.45023      8.0608167      0.13455854   
   2910000  -63.039732      915.16978      852.13005      297.78904     -2.1337014      0.13455854   
   2920000  -95.433842      945.98951      850.55566      307.81753     -4.8020295      0.13455854   
   2930000  -50.792212      958.3543       907.56209      311.84094      1.4669987      0.13455854   
   2940000  -111.90403      854.71575      742.81172      278.11777     -9.4302334      0.13455854   
   2950000  -132.41246      911.23007      778.81761      296.50708      2.4587039      0.13455854   
   2960000  -128.93667      886.49252      757.55585      288.45768     -0.90206586     0.13455854   
   2970000  -114.36618      918.7249       804.35872      298.94585      0.65593825     0.13455854   
   2980000  -43.767462      885.35391      841.58645      288.08719      3.0703982      0.13455854   
   2990000  -80.827806      929.30438      848.47657      302.38832      1.5475484      0.13455854   
   3000000  -84.422134      954.27924      869.8571       310.51494     -4.5457334      0.13455854   
   3010000  -59.119598      922.20715      863.08756      300.07894      3.5210678      0.13455854   
   3020000  -153.86722      916.773        762.90578      298.31071      5.9926605      0.13455854   
   3030000  -36.114447      911.93585      875.82141      296.73674      1.3070012      0.13455854   
   3040000  -17.249038      882.59078      865.34175      287.18809     -3.0825018      0.13455854   
   3050000  -125.15136      950.55496      825.4036       309.30309      2.3009827      0.13455854   
   3060000  -104.04329      943.35301      839.30972      306.95964     -0.01447166     0.13455854   
   3070000  -88.974983      897.91641      808.94143      292.17493      3.4040635      0.13455854   
   3080000  -88.090258      927.49179      839.40153      301.79852     -2.6041781      0.13455854   
   3090000  -125.67769      937.41266      811.73497      305.0267       0.18474624     0.13455854   
   3100000  -102.17641      913.55714      811.38073      297.2643      -3.1649801      0.13455854   
   3110000  -117.59002      940.61224      823.02222      306.06781     -4.9005003      0.13455854   
   3120000  -62.963768      934.46827      871.5045       304.06861      3.1016947      0.13455854   
   3130000  -8.1043217      937.67074      929.56642      305.11067      0.43655715     0.13455854   
   3140000  -87.422808      966.12771      878.7049       314.37035      4.3543851      0.13455854   
   3150000  -70.550674      961.21194      890.66126      312.77079      4.3450489      0.13455854   
   3160000  -40.839878      939.21319      898.37331      305.61257     -5.112978       0.13455854   
   3170000  -44.914632      908.73383      863.8192       295.69483      5.9742671      0.13455854   
   3180000  -38.236302      919.25509      881.01879      299.11836      1.6704096      0.13455854   
   3190000  -63.802944      902.04694      838.244        293.51897     -1.8611731      0.13455854   
   3200000  -77.159006      931.48903      854.33002      303.09919     -0.22594143     0.13455854   
   3210000  -82.720938      926.07595      843.35501      301.33782      2.4678211      0.13455854   
   3220000  -70.325522      948.28427      877.95875      308.56423      6.5447628      0.13455854   
   3230000  -93.904078      918.94777      825.04369      299.01836      1.7956721      0.13455854   
   3240000  -65.395847      930.38474      864.98889      302.73986      2.972887       0.13455854   
   3250000  -89.361659      962.41913      873.05747      313.1636       6.3490252      0.13455854   
   3260000  -68.895908      902.60539      833.70948      293.70068     -0.89073533     0.13455854   
   3270000  -104.04331      928.40268      824.35937      302.09492      8.6965812      0.13455854   
   3280000  -66.098535      967.65881      901.56028      314.86855      3.2521454      0.13455854   
   3290000  -24.783404      972.18567      947.40226      316.34156      5.0002303      0.13455854   
   3300000  -29.340379      940.09384      910.75346      305.89913      2.2051342      0.13455854   
   3310000  -38.964145      948.26098      909.29684      308.55665      8.4086382      0.13455854   
   3320000  -26.227062      965.60969      939.38263      314.20179      3.5632092      0.13455854   
   3330000  -66.263823      917.82303      851.55921      298.65238      3.7203552      0.13455854   
   3340000  -131.97001      903.49571      771.5257       293.99039      4.7010034      0.13455854   
   3350000  -89.960788      919.43295      829.47217      299.17624      0.53851055     0.13455854   
   3360000  -98.842034      974.937        876.09497      317.23682      8.6318382      0.13455854   
   3370000  -98.959825      904.20096      805.24114      294.21987      7.5490078      0.13455854   
   3380000  -70.900088      925.98951      855.08942      301.30969      1.6697946      0.13455854   
   3390000  -108.85232      926.27749      817.42517      301.4034       4.5887107      0.13455854   
   3400000  -133.58459      929.72144      796.13685      302.52403      0.53541806     0.13455854   
   3410000  -85.766471      929.52573      843.75926      302.46035      3.2764642      0.13455854   
   3420000  -101.06128      926.95536      825.89409      301.62397     -0.55309168     0.13455854   
   3430000  -45.086678      961.12259      916.03591      312.74172      5.3302479      0.13455854   
   3440000  -148.19396      927.66803      779.47407      301.85587      9.4876404      0.13455854   
   3450000  -97.207715      940.60618      843.39847      306.06584     -3.2311549      0.13455854   
   3460000  -119.03705      925.07822      806.04116      301.01316      1.8807267      0.13455854   
   3470000  -74.674727      907.69813      833.0234       295.35782     -2.003353       0.13455854   
   3480000  -96.526578      981.04639      884.51981      319.22477     -4.5659312      0.13455854   
   3490000  -83.639363      948.56061      864.92125      308.65415      5.7256571      0.13455854   
   3500000  -84.848332      891.30207      806.45374      290.02267     -0.60353516     0.13455854   
   3510000  -62.29258       915.94435      853.65177      298.04107      3.8344946      0.13455854   
   3520000  -12.671152      903.20382      890.53267      293.89541      8.483397       0.13455854   
   3530000  -71.948739      920.95073      849.00199      299.67011     -0.62483498     0.13455854   
   3540000  -24.97774       912.71048      887.73274      296.9888       2.9107405      0.13455854   
   3550000  -71.763827      941.73239      869.96856      306.4323       8.6570487      0.13455854   
   3560000  -47.240014      903.01955      855.77954      293.83545      2.5503541      0.13455854   
   3570000  -55.143291      942.02025      886.87695      306.52597      0.29063172     0.13455854   
   3580000  -11.763348      955.62067      943.85732      310.95144      2.2307771      0.13455854   
   3590000  -50.119224      938.88322      888.76399      305.5052       5.0693028      0.13455854   
   3600000  -73.582218      873.83465      800.25243      284.33891     -0.81568219     0.13455854   
   3610000  -79.181695      912.4386       833.25691      296.90033      1.6784242      0.13455854   
   3620000  -67.104923      879.49593      812.39101      286.18105     -5.5207002      0.13455854   
   3630000  -77.356537      938.58294      861.2264       305.40749      1.0451267      0.13455854   
   3640000  -96.56973       964.65028      868.08055      313.8896       0.8597357      0.13455854   
   3650000  -77.356852      886.85881      809.50196      288.57687     -1.6411568      0.13455854   
   3660000  -106.66127      938.09319      831.43192      305.24813      2.1025603      0.13455854   
   3670000  -99.609181      923.415        823.80582      300.47197     -4.3124862      0.13455854   
   3680000  -38.624049      937.763        899.13895      305.14069      5.0975914      0.13455854   
   3690000  -74.894573      934.77833      859.88375      304.1695      -3.4869119      0.13455854   
   3700000  -93.921659      945.00526      851.0836       307.49727      2.9514979      0.13455854   
   3710000  -77.249173      949.69198      872.44281      309.02229      3.3478427      0.13455854   
   3720000  -57.669886      926.01394      868.34405      301.31764     -3.5638308      0.13455854   
   3730000  -57.360862      944.74061      887.37975      307.41115      0.67517411     0.13455854   
   3740000  -50.923025      930.03327      879.11024      302.6255      -5.9380356      0.13455854   
   3750000  -107.44858      916.15549      808.70691      298.10978     -6.7019961      0.13455854   
   3760000  -101.68968      963.80274      862.11306      313.61382     -4.9949522      0.13455854   
   3770000  -73.077589      969.47392      896.39634      315.45918      5.3349214      0.13455854   
   3780000  -31.599477      939.91318      908.3137       305.84034     -6.6573984      0.13455854   
   3790000  -54.451073      937.76961      883.31854      305.14284      1.0916265      0.13455854   
   3800000  -128.38322      940.08046      811.69724      305.89477     -1.9752541      0.13455854   
   3810000  -62.311173      880.38516      818.07398      286.47039     -2.9181881      0.13455854   
   3820000  -128.94803      936.91241      807.96438      304.86392      11.502968      0.13455854   
   3830000  -62.949458      941.66708      878.71762      306.41105     -3.35557        0.13455854   
   3840000  -25.048824      927.89373      902.8449       301.92931      0.81506947     0.13455854   
   3850000  -80.648589      947.34662      866.69803      308.25913     -1.1252401      0.13455854   
   3860000  -90.186022      955.49332      865.3073       310.91         0.9773737      0.13455854   
   3870000  -73.587505      860.52094      786.93344      280.00673      4.4274162      0.13455854   
   3880000  -119.09812      918.96943      799.87131      299.02541      1.5101129      0.13455854   
   3890000  -91.491316      896.14114      804.64982      291.59726     -0.49170081     0.13455854   
   3900000  -140.40315      918.69068      778.28753      298.93471     -6.2131657      0.13455854   
   3910000  -143.76745      951.23339      807.46594      309.52385      1.183889       0.13455854   
   3920000  -111.08302      959.47667      848.39365      312.20615      0.35937429     0.13455854   
   3930000  -114.46484      912.2254       797.76056      296.83096      0.12110395     0.13455854   
   3940000  -95.878685      886.08576      790.20708      288.32533      3.6959048      0.13455854   
   3950000  -119.63405      961.95455      842.3205       313.01243     -4.5533444      0.13455854   
   3960000  -154.22806      897.70386      743.47579      292.10576     -5.1544289      0.13455854   
   3970000  -130.03395      924.96969      794.93574      300.97785      4.042676       0.13455854   
   3980000  -125.93005      951.75579      825.82573      309.69383     -2.8457929      0.13455854   
   3990000  -45.910706      939.97681      894.0661       305.86105      1.256324       0.13455854   
   4000000  -57.703124      859.42593      801.72281      279.65043      1.6732845      0.13455854   
   4010000  -36.410494      931.11685      894.70636      302.97809      2.4207747      0.13455854   
   4020000  -95.122148      944.25801      849.13586      307.25412      3.9065156      0.13455854   
   4030000  -129.31066      928.62741      799.31675      302.16804      3.5023269      0.13455854   
   4040000  -30.808548      953.62739      922.81884      310.30284      9.9073808      0.13455854   
   4050000  -74.937447      892.42245      817.485        290.38723      0.53888826     0.13455854   
   4060000  -100.01556      916.58549      816.56993      298.2497       9.0712943      0.13455854   
   4070000  -130.77189      919.86292      789.09103      299.31615     -2.2304242      0.13455854   
   4080000  -154.10232      893.04163      738.93931      290.58871      0.53906222     0.13455854   
   4090000  -35.963552      904.79107      868.82752      294.41189     -2.2156567      0.13455854   
   4100000  -160.38862      922.06034      761.67173      300.03117      1.9933534      0.13455854   
   4110000  -109.83089      897.45793      787.62704      292.02574     -8.3960945      0.13455854   
   4120000  -123.147        924.47452      801.32752      300.81673     -10.343908      0.13455854   
   4130000  -109.34375      931.49836      822.1546       303.10223      0.93396162     0.13455854   
   4140000  -95.797411      931.69499      835.89758      303.16621     -5.6061922      0.13455854   
   4150000  -99.817977      906.03654      806.21856      294.81715     -0.12440334     0.13455854   
   4160000  -113.77635      882.26868      768.49233      287.08328     -1.2102917      0.13455854   
   4170000  -90.342205      985.4795       895.13729      320.66726     -3.548693       0.13455854   
   4180000  -101.27732      931.08415      829.80683      302.96745     -0.47156196     0.13455854   
   4190000  -67.951006      953.66004      885.70903      310.31346     -2.6377642      0.13455854   
   4200000  -100.78472      924.93657      824.15185      300.96707      3.7386662      0.13455854   
   4210000  -89.041966      977.05813      888.01617      317.92702     -2.707958       0.13455854   
   4220000  -104.00801      868.30954      764.30152      282.54108     -5.5157036      0.13455854   
   4230000  -81.491844      940.95431      859.46246      306.17912      14.430868      0.13455854   
   4240000  -79.788003      936.17064      856.38263      304.62255      5.0437026      0.13455854   
   4250000  -123.50275      898.35376      774.85101      292.31724      11.503318      0.13455854   
   4260000  -68.697965      906.93426      838.23629      295.10926      1.2351769      0.13455854   
   4270000  -42.950435      865.53909      822.58866      281.6396      -5.687485       0.13455854   
   4280000  -61.041606      939.47737      878.43577      305.69854      5.6189731      0.13455854   
   4290000  -76.302394      923.91882      847.61642      300.6359       1.9630022      0.13455854   
   4300000  -60.513516      911.43557      850.92205      296.57395     -5.9430166      0.13455854   
   4310000  -35.496158      936.17465      900.67849      304.62386      5.3300147      0.13455854   
   4320000  -33.267036      913.18488      879.91785      297.14317     -8.0197142      0.13455854   
   4330000  -100.02825      933.84469      833.81644      303.8657       7.4347739      0.13455854   
   4340000  -73.964413      901.78726      827.82284      293.43447      2.6253736      0.13455854   
   4350000  -103.38995      916.48799      813.09805      298.21797      0.74445531     0.13455854   
   4360000  -66.748365      906.9208       840.17244      295.10488      2.692579       0.13455854   
   4370000  -91.119074      904.0344       812.91533      294.16567     -0.95221448     0.13455854   
   4380000  -95.726451      916.29372      820.56727      298.15476      3.8449013      0.13455854   
   4390000  -60.099537      935.48585      875.38631      304.39972      3.3964292      0.13455854   
   4400000  -52.923124      904.56064      851.63751      294.3369       3.3134691      0.13455854   
   4410000  -99.946264      898.81606      798.8698       292.46766      0.35002103     0.13455854   
   4420000  -67.409489      903.04679      835.6373       293.84431      0.18061658     0.13455854   
   4430000  -131.82509      941.5595       809.73441      306.37604      9.4595691      0.13455854   
   4440000  -106.69194      923.66679      816.97486      300.5539       5.1697237      0.13455854   
   4450000  -105.8232       917.12011      811.29691      298.42366     -1.0915987      0.13455854   
   4460000  -80.19118       918.51366      838.32248      298.87711      1.4466121      0.13455854   
   4470000  -101.41725      935.69793      834.28069      304.46873      2.0371987      0.13455854   
   4480000  -73.787827      951.81429      878.02647      309.71287      0.365088       0.13455854   
   4490000  -92.076287      902.35496      810.27867      293.61919     -6.1894234      0.13455854   
   4500000  -100.83855      912.54213      811.70358      296.93402      4.0066099      0.13455854   
   4510000  -144.72858      920.6849       775.95631      299.58361     -3.4438912      0.13455854   
   4520000  -115.76417      956.37092      840.60675      311.19556      5.895716       0.13455854   
   4530000  -97.455357      899.05811      801.60275      292.54643      8.3006824      0.13455854   
   4540000  -69.607794      903.46053      833.85273      293.97894      2.0962443      0.13455854   
   4550000  -101.06602      867.60421      766.53819      282.31157     -3.9051921      0.13455854   
   4560000  -91.805922      905.02369      813.21777      294.48758     -2.1174105      0.13455854   
   4570000  -77.369236      900.73816      823.36892      293.0931      -8.6556511      0.13455854   
   4580000  -62.456635      904.75261      842.29597      294.39937      6.017706       0.13455854   
   4590000  -38.832927      916.40987      877.57695      298.19255     -2.2495147      0.13455854   
   4600000  -77.958727      928.25417      850.29544      302.04659      1.3302637      0.13455854   
   4610000  -87.738951      928.84832      841.10937      302.23993     -1.9113473      0.13455854   
   4620000  -114.35725      903.19064      788.83338      293.89112      0.53563734     0.13455854   
   4630000  -69.775853      941.3587       871.58285      306.3107       0.20984164     0.13455854   
   4640000  -76.000003      921.18963      845.18963      299.74785     -1.3996602      0.13455854   
   4650000  -92.512177      914.81134      822.29916      297.6724      -1.3504729      0.13455854   
   4660000  -92.552188      952.22936      859.67718      309.84793     -9.8398001      0.13455854   
   4670000  -59.471066      894.80889      835.33783      291.16376     -3.3020699      0.13455854   
   4680000  -131.27139      953.89627      822.62488      310.39033      0.74931123     0.13455854   
   4690000  -57.739968      936.76213      879.02216      304.81502     -3.7077927      0.13455854   
   4700000  -58.666001      965.27133      906.60532      314.09168      2.2409328      0.13455854   
   4710000  -127.11354      900.687        773.57346      293.07645      9.4299924      0.13455854   
   4720000  -95.203771      897.79141      802.58764      292.13425      6.3360936      0.13455854   
   4730000  -60.714125      893.30488      832.59076      290.67437     -2.4389774      0.13455854   
   4740000  -76.385231      895.61305      819.22782      291.42543     -2.7812648      0.13455854   
   4750000  -50.992274      910.93947      859.9472       296.41253     -0.21453217     0.13455854   
   4760000  -62.884858      910.96671      848.08185      296.42139      6.6720062      0.13455854   
   4770000  -147.73469      880.13964      732.40494      286.3905       0.26367932     0.13455854   
   4780000  -92.713162      881.54548      788.83232      286.84795     -4.1704458      0.13455854   
   4790000  -74.252271      943.15754      868.90527      306.89603      1.8493907      0.13455854   
   4800000  -4.31453        894.28565      889.97112      290.99351     -1.4242953      0.13455854   
   4810000  -55.736026      944.93987      889.20385      307.47599      5.0855559      0.13455854   
   4820000  -25.666626      922.15243      896.4858       300.06114     -2.2094207      0.13455854   
   4830000  -32.781108      894.8819       862.1008       291.18752     -0.32320983     0.13455854   
   4840000  -13.752727      938.17582      924.42309      305.27502      3.0241849      0.13455854   
   4850000  -52.621394      894.76852      842.14713      291.15063      2.2623831      0.13455854   
   4860000  -47.314781      902.38211      855.06733      293.62803     -2.7180521      0.13455854   
   4870000  -36.932092      936.0233       899.09121      304.57461      1.318386       0.13455854   
   4880000  -67.104604      932.13537      865.03077      303.30951     -3.5450422      0.13455854   
   4890000  -62.702319      957.0483       894.34598      311.41598      1.2753544      0.13455854   
   4900000  -82.196966      951.83104      869.63407      309.71832      7.3273721      0.13455854   
   4910000  -62.58001       943.53142      880.95141      307.01769     -1.9632592      0.13455854   
   4920000  -16.280742      909.4337       893.15296      295.92256      6.7530061      0.13455854   
   4930000  -78.566423      898.41571      819.84929      292.33739     -5.9064687      0.13455854   
   4940000   4.1213305      917.38722      921.50855      298.51057      1.9963295      0.13455854   
   4950000  -85.892931      913.35463      827.4617       297.1984       3.8174267      0.13455854   
   4960000  -63.22259       878.2596       815.03701      285.77875      5.3551725      0.13455854   
   4970000  -107.66017      919.38872      811.72855      299.16185      0.75068641     0.13455854   
   4980000  -72.524111      921.67566      849.15155      299.906       -7.6997106      0.13455854   
   4990000  -61.450619      906.17644      844.72582      294.86268     -4.2154758      0.13455854   
   5000000  -64.917161      873.42478      808.50761      284.20554      2.8681887      0.13455854   
Loop time of 2175.64 on 4 procs for 5000000 steps with 1032 atoms

Performance: 1985.621 ns/day, 0.012 hours/ns, 2298.172 timesteps/s, 2.372 Matom-step/s
93.3% CPU use with 4 MPI tasks x 1 OpenMP threads

MPI task timing breakdown:
Section |  min time  |  avg time  |  max time  |%varavg| %total
---------------------------------------------------------------
Pair    | 1223.2     | 1523.5     | 1771.6     | 501.3 | 70.03
Bond    | 70.035     | 81.548     | 90.584     |  90.9 |  3.75
Neigh   | 5.0867     | 5.1304     | 5.1699     |   1.7 |  0.24
Comm    | 265.2      | 523.26     | 839.86     | 897.5 | 24.05
Output  | 0.3886     | 0.66217    | 1.0762     |  31.7 |  0.03
Modify  | 30.253     | 35.501     | 40.06      |  63.5 |  1.63
Other   |            | 6.018      |            |       |  0.28

Nlocal:            258 ave         293 max         230 min
Histogram: 1 0 0 1 1 0 0 0 0 1
Nghost:          930.5 ave         967 max         895 min
Histogram: 1 0 0 0 1 1 0 0 0 1
Neighs:        2564.75 ave        2870 max        2240 min
Histogram: 1 0 0 1 0 0 1 0 0 1

Total # of neighbors = 10259
Ave neighs/atom = 9.9408915
Ave special neighs/atom = 4.8255814
Neighbor list builds = 10295
Dangerous builds = 0

# ===============================
# 4. PRODUCTION
# ===============================
# Reset averages for production
unfix favg
fix favg all ave/time 10000 10 100000 v_vpe v_vke v_vT v_vE v_vRg     file outputs/thermo_${tag}_production.dat
fix favg all ave/time 10000 10 100000 v_vpe v_vke v_vT v_vE v_vRg     file outputs/thermo_100ASO_unmodified_AAtoCC_production.dat

restart 10000000 outputs/backup_${tag}.*.restart
restart 10000000 outputs/backup_100ASO_unmodified_AAtoCC.*.restart
run 100000000
Generated 0 of 6 mixed pair_coeff terms from geometric mixing rule
Per MPI rank memory allocation (min/avg/max) = 8.612 | 8.613 | 8.614 Mbytes
   Step         PotEng         KinEng         TotEng          Temp          Press         Density    
   5000000  -64.917161      873.42478      808.50761      284.20554      2.8681887      0.13455854   
   5010000  -106.53938      936.27578      829.7364       304.65676      7.4798983      0.13455854   
   5020000  -59.985708      925.60956      865.62385      301.18606     -0.98360877     0.13455854   
   5030000  -89.998741      902.9058       812.90706      293.79843      2.6699131      0.13455854   
   5040000  -66.667758      925.41232      858.74456      301.12188     -8.9361646      0.13455854   
   5050000  -85.989753      937.44187      851.45212      305.0362       0.90933735     0.13455854   
   5060000  -96.192422      943.75606      847.56364      307.09079     -0.61390979     0.13455854   
   5070000  -104.1932       934.92083      830.72763      304.21587      1.2764358      0.13455854   
   5080000  -76.517702      890.03507      813.51737      289.6104       3.9048903      0.13455854   
   5090000  -125.24961      924.7758       799.52618      300.91476      4.0864638      0.13455854   
   5100000  -67.669265      934.61253      866.94327      304.11555     -1.0631506      0.13455854   
   5110000  -77.882339      933.37094      855.4886       303.71155     -4.6922276      0.13455854   
   5120000  -64.945361      892.24432      827.29895      290.32927     -6.7843615      0.13455854   
   5130000  -106.51206      913.98244      807.47039      297.40269     -2.7984788      0.13455854   
   5140000  -100.6963       930.44877      829.75247      302.7607       1.3838322      0.13455854   
   5150000  -169.34743      920.75044      751.40301      299.60494      0.49738348     0.13455854   
   5160000  -99.269599      885.93486      786.66526      288.27622      2.3566305      0.13455854   
   5170000  -44.495958      963.59439      919.09844      313.54602     -0.22268192     0.13455854   
   5180000  -87.464464      931.78305      844.31858      303.19486      5.6239555      0.13455854   
   5190000  -74.494725      932.20365      857.70893      303.33172      2.4843963      0.13455854   
   5200000  -115.48902      916.29195      800.80293      298.15418      8.5428136      0.13455854   
   5210000  -139.31586      883.55568      744.23982      287.50206      5.5742261      0.13455854   
   5220000  -96.429355      958.57115      862.14179      311.9115       2.8227328      0.13455854   
   5230000  -153.07873      922.11098      769.03225      300.04765      2.6727576      0.13455854   
   5240000  -78.694755      936.00417      857.30941      304.56838     -1.0938248      0.13455854   
   5250000  -129.57064      933.64414      804.0735       303.80045     -0.098586176    0.13455854   
   5260000  -118.34654      933.32019      814.97365      303.69504     -3.0112638      0.13455854   
   5270000  -190.42533      925.21773      734.7924       301.05856      4.1686758      0.13455854   
   5280000  -163.56368      924.8482       761.28453      300.93832      0.85312692     0.13455854   
   5290000  -100.13473      925.35255      825.21782      301.10243      1.5519784      0.13455854   
   5300000  -140.17176      925.46419      785.29243      301.13876      4.7785549      0.13455854   
   5310000  -95.058064      913.49023      818.43217      297.24252     -3.1811448      0.13455854   
   5320000  -101.07147      946.72332      845.65185      308.05631      7.9693497      0.13455854   
   5330000  -138.16273      958.37177      820.20904      311.84662      0.28420777     0.13455854   
   5340000  -145.6688       930.84537      785.17658      302.88975     -4.5841424      0.13455854   
   5350000  -168.14208      941.3363       773.19422      306.30342     -3.7393196      0.13455854   
   5360000  -106.61592      923.36233      816.7464       300.45483      0.53923302     0.13455854   
   5370000  -153.98462      934.19465      780.21004      303.97958      11.54828       0.13455854   
   5380000  -163.32366      870.55508      707.23142      283.27176      8.1162289      0.13455854   
   5390000  -135.80259      885.07995      749.27736      287.99804      3.689912       0.13455854   
   5400000  -108.71534      903.30133      794.58599      293.92714      5.2963668      0.13455854   
   5410000  -166.24802      886.73377      720.48575      288.53618      4.6105218      0.13455854   
   5420000  -116.3177       915.45957      799.14187      297.88333      4.2734719      0.13455854   
   5430000  -89.517842      882.36484      792.847        287.11457      2.9274867      0.13455854   
   5440000  -183.77522      925.54297      741.76775      301.16439     -0.80351286     0.13455854   
   5450000  -171.97583      912.43035      740.45452      296.89765     -5.4845202      0.13455854   
   5460000  -149.68829      903.69654      754.00826      294.05574     -4.3611342      0.13455854   
   5470000  -160.60578      924.70112      764.09534      300.89046     -2.8572893      0.13455854   
   5480000  -160.51387      950.24415      789.73029      309.20196      0.52012941     0.13455854   
   5490000  -111.20313      924.30566      813.10253      300.76178     -0.73812092     0.13455854   
   5500000  -58.085154      908.02017      849.93502      295.46261      0.97665294     0.13455854   
   5510000  -82.707892      928.64365      845.93576      302.17333      4.165759       0.13455854   
   5520000  -148.89435      921.50373      772.60939      299.85005     -1.8111754      0.13455854   
   5530000  -109.53651      925.85435      816.31784      301.26571      3.6334679      0.13455854   
   5540000  -120.6548       913.13003      792.47523      297.12532     -4.4373778      0.13455854   
   5550000  -192.00443      956.66214      764.65771      311.29032     -2.4885931      0.13455854   
   5560000  -172.72155      861.91101      689.18946      280.45905     -3.3114555      0.13455854   
   5570000  -178.15211      955.1909       777.03879      310.81159     -1.6035664      0.13455854   
   5580000  -157.99679      893.59889      735.6021       290.77004     -0.0080341001   0.13455854   
   5590000  -121.95441      940.52651      818.5721       306.03992     -2.1363534      0.13455854   
   5600000  -129.9113       911.91689      782.00559      296.73057     -4.2159166      0.13455854   
   5610000  -140.9397       932.62334      791.68363      303.46829     -5.1240021      0.13455854   
   5620000  -127.24877      911.28254      784.03377      296.52416     -5.1507387      0.13455854   
   5630000  -100.118        936.2202       836.1022       304.63868      0.0071920694   0.13455854   
   5640000  -174.15595      941.78122      767.62527      306.44819     -1.0527716      0.13455854   
   5650000  -151.70346      928.41465      776.71119      302.09881      3.1213437      0.13455854   
   5660000  -149.10756      905.55626      756.44869      294.66087      12.680188      0.13455854   
   5670000  -135.12947      933.22144      798.09197      303.6629      -3.3464421      0.13455854   
   5680000  -103.72436      910.4134       806.68904      296.24135     -1.3073886      0.13455854   
   5690000  -150.64082      891.83973      741.1989       290.19762      1.7651403      0.13455854   
   5700000  -116.84285      886.93436      770.09151      288.60145      8.4092963      0.13455854   
   5710000  -118.01794      892.07233      774.05439      290.27331      3.8687522      0.13455854   
   5720000  -146.69526      922.41217      775.71691      300.14565     -1.8253064      0.13455854   
   5730000  -108.74797      868.88281      760.13484      282.72762      6.9194769      0.13455854   
   5740000  -81.989219      936.6492       854.65998      304.77827      2.405003       0.13455854   
   5750000  -129.23968      939.88845      810.64877      305.8323       2.1099316      0.13455854   
   5760000  -89.757589      893.92027      804.16268      290.87461      5.9731766      0.13455854   
   5770000  -140.78474      925.41741      784.63267      301.12353      1.5991703      0.13455854   
   5780000  -179.39088      908.15071      728.75983      295.50509     -0.97157523     0.13455854   
   5790000  -108.94006      925.47376      816.5337       301.14187      0.89585851     0.13455854   
   5800000  -168.75487      913.94468      745.18981      297.3904       1.618857       0.13455854   
   5810000  -101.79954      912.54736      810.74782      296.93572     -3.9618684      0.13455854   
   5820000  -63.969078      968.3883       904.41922      315.10592      4.7979808      0.13455854   
   5830000  -78.258869      867.99393      789.73506      282.43839     -5.1658759      0.13455854   
   5840000  -74.655323      928.36625      853.71093      302.08306     -3.4057604      0.13455854   
   5850000  -97.160309      888.65961      791.49931      289.16284      1.1295365      0.13455854   
   5860000  -70.096842      939.89689      869.80005      305.83504      5.2087659      0.13455854   
   5870000  -101.25568      925.11009      823.85442      301.02354      1.7249674      0.13455854   
   5880000  -86.899594      923.28378      836.38418      300.42927     -2.1368628      0.13455854   
   5890000  -100.10356      959.92535      859.82179      312.35215      5.9585902      0.13455854   
   5900000  -86.481058      871.39841      784.91735      283.54618     -1.0949121      0.13455854   
   5910000  -124.99873      946.49253      821.4938       307.98121      3.46112        0.13455854   
   5920000  -79.746714      956.96096      877.21425      311.38756      5.777418       0.13455854   
   5930000  -56.497348      897.05658      840.55924      291.89514     -2.234418       0.13455854   
   5940000  -96.350376      979.89446      883.54409      318.84994      6.8759823      0.13455854   
   5950000  -89.459946      886.89633      797.43638      288.58908      3.1540662      0.13455854   
   5960000  -83.001799      938.67788      855.67608      305.43839      4.8149337      0.13455854   
   5970000  -117.63888      945.57393      827.93505      307.68231     -1.7243379      0.13455854   
   5980000  -79.042347      907.21093      828.16858      295.19929     -1.1512007      0.13455854   
   5990000  -37.615969      919.14096      881.52499      299.08123     -1.7728087      0.13455854   
   6000000  -54.410521      901.41085      847.00033      293.31199     -1.3199403      0.13455854   
   6010000  -63.43477       930.03306      866.59829      302.62543      3.9307981      0.13455854   
   6020000  -113.97657      921.45544      807.47887      299.83434      1.762905       0.13455854   
   6030000  -59.117499      932.31456      873.19706      303.36781     -0.98130906     0.13455854   
   6040000  -127.54706      923.2274       795.68033      300.41092      2.8507291      0.13455854   
   6050000  -50.64684       907.22822      856.58138      295.20491     -0.70916803     0.13455854   
   6060000  -89.723384      895.56451      805.84112      291.40963      3.7467507      0.13455854   
   6070000  -64.022992      923.61019      859.5872       300.53548     -5.0549316      0.13455854   
   6080000   5.6141302      897.81567      903.4298       292.14215      2.8584946      0.13455854   
   6090000  -46.626931      891.10501      844.47808      289.95855     -2.915592       0.13455854   
   6100000  -72.82049       952.44492      879.62443      309.91807      3.1206077      0.13455854   
   6110000  -68.424436      923.49049      855.06605      300.49653      3.0785831      0.13455854   
   6120000  -70.902541      925.86992      854.96738      301.27078      4.3162516      0.13455854   
   6130000  -114.29175      942.43588      828.14413      306.66121      2.1396917      0.13455854   
   6140000  -90.65053       905.37515      814.72462      294.60194     -1.8105277      0.13455854   
   6150000  -63.987545      901.49445      837.50691      293.33919      0.43730973     0.13455854   
   6160000  -112.33886      915.09447      802.75562      297.76453      10.630282      0.13455854   
   6170000  -43.499143      933.376        889.87686      303.7132      -4.8895991      0.13455854   
   6180000  -39.527897      901.56371      862.03581      293.36173     -1.8922622      0.13455854   
   6190000  -57.744101      892.84571      835.10161      290.52496     -2.0628145      0.13455854   
   6200000  -112.46751      936.12199      823.65447      304.60672     -3.3548292      0.13455854   
   6210000  -90.235601      912.11149      821.87589      296.79389     -3.635317       0.13455854   
   6220000  -107.39756      934.52216      827.1246       304.08615      5.4142421      0.13455854   
   6230000  -77.121401      912.33499      835.21359      296.86662      2.0216918      0.13455854   
   6240000  -75.414171      936.71259      861.29842      304.7989       1.5808124      0.13455854   
   6250000  -102.2138       911.03223      808.81844      296.44271      3.5963755      0.13455854   
   6260000  -122.64339      933.00049      810.3571       303.59101      9.6748018      0.13455854   
   6270000  -136.93272      931.8495       794.91679      303.21649      6.8242661      0.13455854   
   6280000  -149.55921      907.28403      757.72482      295.22308     -1.5489509      0.13455854   
   6290000  -114.07116      907.59363      793.52248      295.32382     -3.8259239      0.13455854   
   6300000  -61.679953      947.57719      885.89724      308.33415      3.1162289      0.13455854   
   6310000  -90.936752      909.3693       818.43254      295.9016       1.0775936      0.13455854   
   6320000  -129.4708       944.82463      815.35383      307.43849     -0.47620004     0.13455854   
   6330000  -110.6343       928.81013      818.17582      302.2275       8.2988436      0.13455854   
   6340000  -88.085118      903.64641      815.5613       294.03942     -1.5977659      0.13455854   
   6350000  -79.899371      900.50487      820.6055       293.01719     -2.0143444      0.13455854   
   6360000  -103.09709      981.16727      878.07017      319.2641      -6.0881934      0.13455854   
   6370000  -148.05491      935.47568      787.42077      304.39641     -0.50387666     0.13455854   
   6380000  -100.34281      927.04303      826.70022      301.6525      -4.6001457      0.13455854   
   6390000  -57.085385      897.97198      840.8866       292.19301     -0.56486108     0.13455854   
   6400000  -133.78716      896.36769      762.58053      291.67098      1.1588862      0.13455854   
   6410000  -170.29134      902.3184       732.02706      293.6073       3.3366295      0.13455854   
   6420000  -133.51372      918.23976      784.72604      298.78798     -2.0198774      0.13455854   
   6430000  -165.46562      953.42167      787.95605      310.2359      -7.5670461      0.13455854   
   6440000  -124.2282       948.84606      824.61786      308.74703      2.7809382      0.13455854   
   6450000  -51.059204      967.86373      916.80452      314.93523      6.461269       0.13455854   
   6460000  -192.46345      942.62852      750.16507      306.72389      1.1859744      0.13455854   
   6470000  -151.65447      917.1634       765.50893      298.43774      0.62024329     0.13455854   
   6480000  -146.96959      928.76008      781.7905       302.21121     -0.74297883     0.13455854   
   6490000  -144.25763      943.73041      799.47278      307.08244     -2.8033037      0.13455854   
   6500000  -92.683665      952.79091      860.10725      310.03066     -4.7768193      0.13455854   
   6510000  -156.53598      903.94088      747.4049       294.13524      3.0024989      0.13455854   
   6520000  -134.79036      866.40566      731.6153       281.92158      3.7660372      0.13455854   
   6530000  -114.02974      968.73353      854.70379      315.21826     -1.690549       0.13455854   
   6540000  -81.749782      896.29846      814.54867      291.64846     -1.6378094      0.13455854   
   6550000  -164.48224      920.62321      756.14097      299.56354     -8.630158       0.13455854   
   6560000  -146.90476      925.0646       778.15984      301.00873     -4.4571895      0.13455854   
   6570000  -111.53191      921.42447      809.89256      299.82426     -0.033353001    0.13455854   
   6580000  -80.4591        918.34304      837.88394      298.82159      1.6995805      0.13455854   
   6590000  -122.67423      921.09347      798.41924      299.71656     -2.3161432      0.13455854   
   6600000  -105.18672      946.39768      841.21096      307.95035     -3.0179818      0.13455854   
   6610000  -124.31388      928.48422      804.17033      302.12145     -0.9363966      0.13455854   
   6620000  -32.864807      947.52317      914.65836      308.31657     -0.42626395     0.13455854   
   6630000  -117.60377      897.99089      780.38713      292.19916     -5.1890982      0.13455854   
   6640000  -132.93842      956.58448      823.64606      311.26505      1.9292023      0.13455854   
   6650000  -96.196152      943.9187       847.72255      307.14371      0.71939246     0.13455854   
   6660000  -116.74843      967.19191      850.44348      314.71663      6.5014514      0.13455854   
   6670000  -105.21323      917.83466      812.62143      298.65617     -3.0878384      0.13455854   
   6680000  -112.72729      917.6702       804.94291      298.60265      3.3687377      0.13455854   
   6690000  -125.32709      906.19158      780.86449      294.8676       5.7528843      0.13455854   
   6700000  -81.434218      900.70638      819.27216      293.08276     -1.9790361      0.13455854   
   6710000  -134.9193       904.8038       769.8845       294.41603      0.22889611     0.13455854   
   6720000  -107.91348      905.31046      797.39697      294.58089     -7.139165       0.13455854   
   6730000  -131.96475      919.79834      787.83359      299.29513     -1.4542863      0.13455854   
   6740000  -98.406738      871.08527      772.67853      283.44428     -5.7941203      0.13455854   
   6750000  -45.062126      916.27079      871.20867      298.1473      -0.23008759     0.13455854   
   6760000  -105.14383      967.27913      862.1353       314.74501      1.9588606      0.13455854   
   6770000  -106.89638      910.986        804.08962      296.42767      1.7153036      0.13455854   
   6780000  -106.45556      918.62636      812.1708       298.91378     -1.4054251      0.13455854   
   6790000  -81.897989      923.83244      841.93445      300.6078      -3.6617631      0.13455854   
   6800000  -134.81861      962.05453      827.23592      313.04496      8.856773       0.13455854   
   6810000  -166.60649      911.7498       745.1433       296.6762      -0.93835048     0.13455854   
   6820000  -94.797928      894.77421      799.97628      291.15248      0.76087689     0.13455854   
   6830000  -113.92791      919.30591      805.378        299.1349      -9.2625961      0.13455854   
   6840000  -104.10661      921.01377      816.90717      299.69063     -0.35243164     0.13455854   
   6850000  -115.48521      963.68086      848.19564      313.57416      10.889743      0.13455854   
   6860000  -104.49062      931.4499       826.95929      303.08646      0.58716617     0.13455854   
   6870000  -95.970787      888.43496      792.46417      289.08974     -0.12196576     0.13455854   
   6880000  -162.83759      957.54504      794.70744      311.57761     -2.7499892      0.13455854   
   6890000  -132.29517      925.11074      792.81556      301.02375     -7.8224749      0.13455854   
   6900000  -153.59153      904.59474      751.00321      294.348       -6.518148       0.13455854   
   6910000  -153.24972      940.57346      787.32374      306.05519      0.79869196     0.13455854   
   6920000  -80.041571      911.06821      831.02663      296.45442      0.18203004     0.13455854   
   6930000  -132.73083      942.55447      809.82364      306.6998       2.5771268      0.13455854   
   6940000  -103.91441      874.49864      770.58423      284.55497     -5.2850099      0.13455854   
   6950000  -118.82264      896.97903      778.15639      291.86991      4.6253182      0.13455854   
   6960000  -88.391419      942.22198      853.83056      306.59161     -1.1653748      0.13455854   
   6970000  -91.615862      931.04954      839.43368      302.95619      1.3612826      0.13455854   
   6980000  -85.810551      899.35499      813.54444      292.64303     -1.9361382      0.13455854   
   6990000  -108.17119      907.88278      799.7116       295.4179      -5.1680753      0.13455854   
   7000000  -91.637093      916.13015      824.49306      298.10153     -2.4916696      0.13455854   
   7010000  -82.533225      918.09892      835.5657       298.74215      6.3755972      0.13455854   
[...]
  32890000  -83.085268      915.16782      832.08255      297.7884       7.5430248      0.13455854   
  32900000  -140.6379       918.45307      777.81517      298.85739      2.6769205      0.13455854   
  32910000  -89.299746      951.908        862.60825      309.74336      3.8230141      0.13455854   
  32920000  -108.2905       902.14018      793.84968      293.54931     -5.0879237      0.13455854   
  32930000  -101.75478      932.483        830.72821      303.42262     -5.5522579      0.13455854   
  32940000  -114.03756      939.46865      825.43109      305.6957       2.6257849      0.13455854   
  32950000  -101.55466      914.42446      812.8698       297.54651      8.4119514      0.13455854   
  32960000  -94.218363      929.63798      835.41962      302.49688      5.7264714      0.13455854   
  32970000  -130.92411      919.25382      788.32971      299.11795      4.4785905      0.13455854   
  32980000  -101.74157      923.83038      822.08881      300.60713      6.3037778      0.13455854   
  32990000  -146.51636      954.05916      807.5428       310.44333     -0.59840923     0.13455854   
  33000000  -107.11603      950.05708      842.94105      309.14109      4.1169364      0.13455854   
  33010000  -61.127804      928.94147      867.81367      302.27024      1.4561267      0.13455854   
  33020000  -155.49342      913.58343      758.09001      297.27285      3.4532473      0.13455854   
  33030000  -102.06829      913.31046      811.24217      297.18403      3.7262916      0.13455854   
  33040000  -104.791        908.33442      803.54342      295.56486     -0.041704619    0.13455854   
  33050000  -87.861346      894.0048       806.14346      290.90212      5.9020819      0.13455854   
  33060000  -107.66366      951.6244       843.96074      309.65108     -1.5749661      0.13455854   
  33070000  -87.586408      947.17719      859.59079      308.204        1.0437103      0.13455854   
  33080000  -63.958953      956.59503      892.63608      311.26849      2.4876193      0.13455854   
  33090000  -117.95265      922.14428      804.19163      300.05848      1.947476       0.13455854   
  33100000  -147.81031      924.55332      776.74302      300.84237      0.7326611      0.13455854   
  33110000  -95.719274      889.11717      793.3979       289.31172      2.226711       0.13455854   
  33120000  -73.816547      921.93565      848.1191       299.9906       3.3150606      0.13455854   
  33130000  -85.982607      964.27046      878.28786      313.76601     -2.7018062      0.13455854   
  33140000  -102.97721      894.82645      791.84925      291.16948     -6.5860873      0.13455854   
  33150000  -139.32652      924.66492      785.3384       300.87868      0.67291084     0.13455854   
  33160000  -200.13258      977.40126      777.26869      318.03867     -0.10778906     0.13455854   
  33170000  -130.43848      940.64843      810.20995      306.07959     -4.2935095      0.13455854   
  33180000  -111.7059       952.53752      840.83162      309.9482      -1.5107146      0.13455854   
  33190000  -131.01384      936.38541      805.37157      304.69244     -0.50002121     0.13455854   
  33200000  -152.31994      916.9909       764.67095      298.38161      6.8969506      0.13455854   
  33210000  -147.9505       959.4847       811.5342       312.20876      6.6377877      0.13455854   
  33220000  -135.0375       948.38914      813.35165      308.59835     -1.1282552      0.13455854   
  33230000  -196.89156      900.52582      703.63426      293.02401      1.0470736      0.13455854   
  33240000  -152.37773      911.56325      759.18553      296.6155      -0.21874301     0.13455854   
  33250000  -125.45576      950.90414      825.44838      309.41671     -2.9283699      0.13455854   
  33260000  -116.58006      933.02193      816.44186      303.59798     -2.8756492      0.13455854   
  33270000  -164.2034       883.48944      719.28603      287.4805      -3.8307551      0.13455854   
  33280000  -158.59815      920.09717      761.49902      299.39237     -5.5044926      0.13455854   
  33290000  -182.44206      910.58299      728.14093      296.29653     -2.7113891      0.13455854   
  33300000  -113.47124      938.98656      825.51533      305.53883     -0.73461698     0.13455854   
  33310000  -105.84268      920.95919      815.11652      299.67286      1.9988262      0.13455854   
  33320000  -121.87665      916.29053      794.41388      298.15372      6.6480045      0.13455854   
  33330000  -113.52301      972.55515      859.03214      316.46178      0.88900305     0.13455854   
  33340000  -71.954652      934.42317      862.46852      304.05394     -1.9958309      0.13455854   
  33350000  -75.749118      919.01275      843.26363      299.03951     -4.0170784      0.13455854   
  33360000  -127.13482      895.40194      768.26712      291.35674     -1.1171973      0.13455854   
  33370000  -140.15282      955.13029      814.97747      310.79187      0.85562808     0.13455854   
  33380000  -133.74757      922.96208      789.21451      300.32459      7.6962694      0.13455854   
  33390000  -162.60462      943.13616      780.53154      306.88908      2.9502023      0.13455854   
  33400000  -174.83029      975.95712      801.12682      317.56876     -0.35948888     0.13455854   
  33410000  -148.65775      933.70556      785.04782      303.82043     -1.430549       0.13455854   
  33420000  -168.74185      966.37783      797.63598      314.45173      5.3967935      0.13455854   
  33430000  -143.10629      915.09882      771.99254      297.76595      8.4441499      0.13455854   
  33440000  -145.37165      925.64808      780.27644      301.19859     -5.9650112      0.13455854   
  33450000  -186.83565      927.10966      740.27402      301.67418      10.74238       0.13455854   
  33460000  -155.57557      890.34683      734.77126      289.71184     -1.8216395      0.13455854   
  33470000  -84.272912      890.75749      806.48458      289.84547      0.72088031     0.13455854   
  33480000  -142.39566      955.74179      813.34614      310.99085      3.3398724      0.13455854   
  33490000  -99.853021      906.04748      806.19445      294.82071      1.9323266      0.13455854   
  33500000  -80.279956      893.50643      813.22648      290.73995      3.6657876      0.13455854   
  33510000  -82.537603      925.6162       843.0786       301.18822      2.9175818      0.13455854   
  33520000  -61.617454      957.27581      895.65836      311.49001     -0.90521407     0.13455854   
  33530000  -93.988803      916.10682      822.11802      298.09394      1.7585064      0.13455854   
  33540000  -98.467259      908.88345      810.41619      295.74351     -6.3998446      0.13455854   
  33550000  -66.303327      941.06013      874.7568       306.21355     -0.46535862     0.13455854   
  33560000  -97.736862      927.58461      829.84775      301.82872     -2.8207279      0.13455854   
  33570000  -61.214773      958.90009      897.68531      312.01853      4.3635829      0.13455854   
  33580000  -81.768028      910.66178      828.89375      296.32217     -0.71106745     0.13455854   
  33590000  -64.260446      923.15015      858.8897       300.38579     -1.2868537      0.13455854   
  33600000  -60.913144      931.28956      870.37642      303.03429      1.4013968      0.13455854   
  33610000  -59.988138      897.02264      837.0345       291.8841      -8.6298665      0.13455854   
  33620000  -57.819737      941.17302      883.35329      306.25029      6.2947048      0.13455854   
  33630000  -78.527304      895.491        816.96369      291.38572      0.82890005     0.13455854   
  33640000  -28.264448      905.75295      877.48851      294.72487     -3.4293762      0.13455854   
  33650000  -50.984142      910.21893      859.23479      296.17807      5.8505152      0.13455854   
  33660000  -70.900467      927.12125      856.22078      301.67795     -3.5726404      0.13455854   
  33670000  -123.07681      906.51055      783.43374      294.97139      4.1280373      0.13455854   
  33680000  -72.378805      950.19196      877.81315      309.18498     -3.5257212      0.13455854   
  33690000  -129.11706      908.01492      778.89786      295.4609       6.8786008      0.13455854   
  33700000  -94.094752      968.95412      874.85937      315.29004      0.11363716     0.13455854   
  33710000  -124.8521       969.72473      844.87262      315.54079      0.3062518      0.13455854   
  33720000  -96.875772      944.92769      848.05191      307.47202     -2.4418657      0.13455854   
  33730000  -96.10414       925.44023      829.33609      301.13096     -4.1004908      0.13455854   
  33740000  -53.462323      925.22817      871.76584      301.06196      9.2158067      0.13455854   
  33750000  -21.370057      924.40676      903.03671      300.79468      2.8742821      0.13455854   
  33760000  -62.031037      923.63536      861.60432      300.54367      0.00076229351  0.13455854   
  33770000  -94.61292       915.30407      820.69115      297.83273     -4.1161811      0.13455854   
  33780000  -106.32125      915.40805      809.08679      297.86657      1.9612091      0.13455854   
  33790000  -145.96699      929.33967      783.37268      302.39981     -0.0641592      0.13455854   
  33800000  -112.15799      930.25913      818.10114      302.69899      2.1671146      0.13455854   
  33810000  -77.3082        925.1158       847.8076       301.02539      3.3807478      0.13455854   
  33820000  -142.26613      948.00588      805.73975      308.47365     -0.42624935     0.13455854   
  33830000  -143.68476      924.32878      780.64402      300.7693       2.1033846      0.13455854   
  33840000  -102.15818      893.34373      791.18554      290.68701     -7.2006239      0.13455854   
  33850000  -101.78424      923.6704       821.88616      300.55507      1.4569422      0.13455854   
  33860000  -102.46247      927.07439      824.61192      301.6627      -3.5846565      0.13455854   
  33870000  -117.91729      916.45281      798.53552      298.20652     -0.98361269     0.13455854   
  33880000  -122.99343      967.89456      844.90113      314.94526     -0.35125968     0.13455854   
  33890000  -114.33958      905.35907      791.01949      294.59671     -1.8349321      0.13455854   
  33900000  -120.6592       914.67671      794.01751      297.62859      7.7053291      0.13455854   
  33910000  -139.8745       931.60379      791.72929      303.13653      1.7279224      0.13455854   
  33920000  -144.80698      935.72742      790.92044      304.47833      0.11986255     0.13455854   
  33930000  -112.93839      903.4579       790.51951      293.97808      9.7181385      0.13455854   
  33940000  -52.055232      958.6757       906.62047      311.94552      2.5672945      0.13455854   
  33950000  -128.61371      899.79424      771.18053      292.78596      5.7678263      0.13455854   
  33960000  -97.578809      921.75934      824.18053      299.93323     -1.5994271      0.13455854   
  33970000  -90.540842      922.98575      832.44491      300.33229     -4.5343632      0.13455854   
  33980000  -77.086916      895.00414      817.91722      291.22729     -0.78821236     0.13455854   
  33990000  -112.80105      930.31422      817.51317      302.71692      0.48581561     0.13455854   
  34000000  -107.82929      939.9085       832.07921      305.83882      4.1788283      0.13455854   
  34010000  -125.52614      922.74467      797.21853      300.25385      6.1541488      0.13455854   
  34020000  -146.66226      887.83306      741.1708       288.89388      0.56826675     0.13455854   
  34030000  -75.887122      975.36367      899.47655      317.37565     -0.66617033     0.13455854   
  34040000  -86.15445       911.43428      825.27983      296.57353     -5.4291583      0.13455854   
  34050000  -150.9098       918.56534      767.65554      298.89392     -3.4660052      0.13455854   
  34060000  -113.55955      927.73288      814.17333      301.87697      1.0199777      0.13455854   
  34070000  -48.526931      930.0581       881.53117      302.63358      5.7953556      0.13455854   
  34080000  -89.458151      906.62903      817.17088      295.00994     -1.7434637      0.13455854   
  34090000  -126.37829      932.18702      805.80873      303.32631      6.8867188      0.13455854   
  34100000  -70.100663      932.55218      862.45152      303.44513     -4.1714512      0.13455854   
  34110000  -76.051035      930.90044      854.84941      302.90767      1.1109845      0.13455854   
  34120000  -135.52491      900.58014      765.05523      293.04168     -3.2908315      0.13455854   
  34130000  -105.64441      935.29906      829.65465      304.33894     -3.3987864      0.13455854   
  34140000  -88.97392       920.5312       831.55728      299.5336       6.5838261      0.13455854   
  34150000  -89.026176      895.32819      806.30201      291.33274      3.786724       0.13455854   
  34160000  -136.74335      869.40193      732.65859      282.89654     -1.6046343      0.13455854   
  34170000  -88.974186      940.18067      851.20648      305.92738      1.5627565      0.13455854   
  34180000  -96.229857      941.85699      845.62713      306.47284      1.7874549      0.13455854   
  34190000  -95.394398      921.10506      825.71066      299.72033      2.67568        0.13455854   
  34200000  -79.338639      919.81813      840.47949      299.30157     -6.0096654      0.13455854   
  34210000  -89.942519      902.63981      812.69729      293.71188      4.6182117      0.13455854   
  34220000  -84.452884      949.48764      865.03476      308.9558       1.242441       0.13455854   
  34230000  -76.576977      920.91258      844.3356       299.6577      -1.0702559      0.13455854   
  34240000  -50.523253      918.88299      868.35973      298.99728      3.3721542      0.13455854   
  34250000  -103.96969      914.24404      810.27434      297.48781      0.32410104     0.13455854   
  34260000  -26.390107      957.20892      930.81881      311.46824     -5.4807596      0.13455854   
  34270000  -34.526653      884.78959      850.26293      287.90356      4.2715852      0.13455854   
  34280000  -67.778671      943.30873      875.53006      306.94523      6.2492933      0.13455854   
  34290000  -91.531535      892.2825       800.75097      290.3417       4.3426644      0.13455854   
  34300000   4.5095147      942.71496      947.22447      306.75202      8.5080042      0.13455854   
  34310000  -38.068232      902.43488      864.36665      293.6452      -0.82349751     0.13455854   
  34320000  -36.21673       953.59567      917.37894      310.29252      8.273223       0.13455854   
  34330000  -75.75621       913.46287      837.70667      297.23362      1.2846715      0.13455854   
  34340000  -76.587092      886.90421      810.31712      288.59164     -9.4416547      0.13455854   
  34350000  -81.103379      955.84783      874.74445      311.02535     -5.2209559      0.13455854   
  34360000  -76.887994      867.07228      790.18429      282.13849      1.7836672      0.13455854   
  34370000  -65.522379      861.10715      795.58477      280.19748     -5.0698664      0.13455854   
  34380000  -86.907128      908.11795      821.21082      295.49442     -0.42467277     0.13455854   
  34390000  -16.414277      894.84669      878.43242      291.17606     -3.1374237      0.13455854   
  34400000   8.164124       963.54204      971.70617      313.52899     -2.8237745      0.13455854   
  34410000  -41.917272      884.15498      842.2377       287.69706     -1.542413       0.13455854   
  34420000  -35.082253      925.56705      890.48479      301.17222      0.428428       0.13455854   
  34430000   16.580166      899.78038      916.36055      292.78145     -1.6867611      0.13455854   
  34440000  -7.1340099      897.9208       890.78679      292.17635      1.7550367      0.13455854   
  34450000  -12.033576      901.87479      889.84121      293.46295      4.5608519      0.13455854   
  34460000  -2.6831825      933.16472      930.48154      303.64445      4.3467733      0.13455854   
  34470000  -24.351281      919.28215      894.93087      299.12717     -0.49428943     0.13455854   
  34480000  -21.234682      940.5919       919.35722      306.06119      2.8945955      0.13455854   
  34490000  -32.463972      919.66819      887.20422      299.25278      0.62650977     0.13455854   
  34500000   14.973064      902.1106       917.08366      293.53968     -1.0476322      0.13455854   
  34510000  -36.148884      924.46747      888.31859      300.81443      2.3621437      0.13455854   
  34520000  -11.963522      959.33321      947.36969      312.15947      0.47463566     0.13455854   
  34530000  -61.740187      927.71397      865.97379      301.87082      2.4027825      0.13455854   
  34540000  -51.152221      928.94675      877.79452      302.27195      0.40038321     0.13455854   
  34550000  -88.970031      925.17517      836.20514      301.04471     -5.3430143      0.13455854   
  34560000  -64.150798      925.73897      861.58817      301.22817      0.83823643     0.13455854   
  34570000  -84.723538      911.89581      827.17227      296.72371      3.4425158      0.13455854   
  34580000  -81.187866      927.61714      846.42927      301.83931      4.2241549      0.13455854   
  34590000  -59.377113      912.19815      852.82103      296.82209     -2.2549313      0.13455854   
  34600000  -62.032262      972.01912      909.98686      316.28736     -2.5406341      0.13455854   
  34610000  -85.754472      933.11692      847.36245      303.6289       3.1566988      0.13455854   
  34620000  -75.938901      922.39806      846.45916      300.14106     -1.5018748      0.13455854   
  34630000  -60.366157      953.77742      893.41127      310.35166      0.041565586    0.13455854   
  34640000  -48.556965      914.12671      865.56975      297.44963     -4.2766674      0.13455854   
  34650000  -84.729008      889.23826      804.50926      289.35112     -3.4821429      0.13455854   
  34660000  -75.252325      961.30149      886.04917      312.79993      4.0248669      0.13455854   
  34670000  -82.337052      945.11065      862.7736       307.53156     -6.5773778      0.13455854   
  34680000  -84.822389      963.64926      878.82687      313.56388      3.0766929      0.13455854   
  34690000  -99.898416      963.96955      864.07113      313.66809      8.7114442      0.13455854   
  34700000  -43.508257      948.40452      904.89627      308.60336      1.6738017      0.13455854   
  34710000  -117.05875      957.21712      840.15837      311.47091      2.391039       0.13455854   
  34720000  -128.08294      917.41395      789.33101      298.51927      0.75506523     0.13455854   
  34730000  -145.98868      930.8146       784.82592      302.87974     -3.5138439      0.13455854   
  34740000  -158.72041      931.75559      773.03517      303.18593      2.2955904      0.13455854   
  34750000  -111.11579      919.2737       808.15791      299.12442      2.6617938      0.13455854   
  34760000  -96.559495      958.3506       861.7911       311.83973      2.6645115      0.13455854   
  34770000  -103.95189      943.45298      839.50109      306.99217     -1.5565526      0.13455854   
  34780000  -119.99865      951.27309      831.27443      309.53677     -7.2111978      0.13455854   
  34790000  -121.83679      934.41534      812.57855      304.05139      7.0995855      0.13455854   
  34800000  -176.46709      908.11372      731.64663      295.49305      7.6108563      0.13455854   
  34810000  -113.56796      925.6107       812.04273      301.18643      1.8929948      0.13455854   
  34820000  -141.87896      946.5699       804.69094      308.00639      0.066338339    0.13455854   
  34830000  -73.852654      972.03308      898.18043      316.29191     -5.7368148      0.13455854   
  34840000  -142.66418      941.47966      798.81548      306.35006      3.7886945      0.13455854   
