
# ===============================
# FORCE FIELD (same as original)
# ===============================
bond_style harmonic
bond_coeff 1 7.5 5.9

angle_style harmonic
angle_coeff 1 5.0 150.0

pair_style hybrid/overlay lj/cut 10.0 base/rna 18.0
pair_modify shift yes
pair_coeff * * lj/cut 2.0 8.9089871814

pair_coeff 1 1 base/rna 0.00000 3.0 13.8 1.5 0.5 1.8326 0.9425 1.8326 1.1345
pair_coeff 1 2 base/rna 0.00000 3.0 13.8 1.5 0.5 1.8326 0.9425 1.8326 1.1345
pair_coeff 1 3 base/rna 0.00000 3.0 13.8 1.5 0.5 1.8326 0.9425 1.8326 1.1345
pair_coeff 1 4 base/rna 3.33333 3.0 13.8 1.5 0.5 1.8326 0.9425 1.8326 1.1345
pair_coeff 2 2 base/rna 0.00000 3.0 13.8 1.5 0.5 1.8326 0.9425 1.8326 1.1345
pair_coeff 2 3 base/rna 5.00000 3.0 13.8 1.5 0.5 1.8326 0.9425 1.8326 1.1345
pair_coeff 2 4 base/rna 0.00000 3.0 13.8 1.5 0.5 1.8326 0.9425 1.8326 1.1345
pair_coeff 3 3 base/rna 0.00000 3.0 13.8 1.5 0.5 1.8326 0.9425 1.8326 1.1345
pair_coeff 3 4 base/rna 3.33333 3.0 13.8 1.5 0.5 1.8326 0.9425 1.8326 1.1345
pair_coeff 4 4 base/rna 0.00000 3.0 13.8 1.5 0.5 1.8326 0.9425 1.8326 1.1345

special_bonds lj 0.0 0.0 1.0
Finding 1-2 1-3 1-4 neighbors ...
  special bond factors lj:    0        0        1       
  special bond factors coul:  0        0        0       
     2 = max # of 1-2 neighbors
     2 = max # of 1-3 neighbors
     4 = max # of 1-4 neighbors
     6 = max # of special neighbors
  special bonds CPU = 0.000 seconds
neighbor 15.0 bin
neigh_modify every 10 delay 0
comm_style tiled
timestep 10

# ===============================
# 1. MINIMIZATION
# ===============================
minimize 1.0e-4 1.0e-6 1000 10000

CITE-CITE-CITE-CITE-CITE-CITE-CITE-CITE-CITE-CITE-CITE-CITE-CITE

Your simulation uses code contributions which should be cited:

- Type Label Framework: https://doi.org/10.1021/acs.jpcb.3c08419

@Article{Gissinger24,
 author = {Jacob R. Gissinger, Ilia Nikiforov, Yaser Afshar, Brendon Waters, Moon-ki Choi, Daniel S. Karls, Alexander Stukowski, Wonpil Im, Hendrik Heinz, Axel Kohlmeyer, and Ellad B. Tadmor},
 title = {Type Label Framework for Bonded Force Fields in LAMMPS},
 journal = {J. Phys. Chem. B},
 year =    2024,
 volume =  128,
 number =  13,
 pages =   {3282–-3297}
}

CITE-CITE-CITE-CITE-CITE-CITE-CITE-CITE-CITE-CITE-CITE-CITE-CITE

Switching to 'neigh_modify every 1 delay 0 check yes' setting during minimization
Generated 0 of 6 mixed pair_coeff terms from geometric mixing rule
Neighbor list info ...
  update: every = 1 steps, delay = 0 steps, check = yes
  max neighbors/atom: 2000, page size: 100000
  master list distance cutoff = 33
  ghost atom cutoff = 33
  binsize = 16.5, bins = 10 10 10
  2 neighbor lists, perpetual/occasional/extra = 2 0 0
  (1) pair lj/cut, perpetual, trim from (2)
      attributes: half, newton on, cut 25
      pair build: trim
      stencil: none
      bin: none
  (2) pair base/rna, perpetual
      attributes: half, newton on
      pair build: half/bin/newton
      stencil: half/bin/3d
      bin: standard
Per MPI rank memory allocation (min/avg/max) = 8.423 | 8.424 | 8.424 Mbytes
   Step          Temp          E_pair         E_mol          TotEng         Press     
         0   0              5.6674537e+11  2470.137       5.6674537e+11  3.7950134e+10
       396   0             -63.649303      2.8309376     -60.818365     -0.0300088    
Loop time of 0.196546 on 4 procs for 396 steps with 1032 atoms

98.1% CPU use with 4 MPI tasks x 1 OpenMP threads

Minimization stats:
  Stopping criterion = energy tolerance
  Energy initial, next-to-last, final = 
      566745370127.442  -60.8124235966166  -60.8183650943916
  Force two-norm initial, final = 6.7606361e+12 0.4736888
  Force max component initial, final = 4.1046422e+12 0.13146035
  Final line search alpha, max atom move = 0.13074548 0.017187846
  Iterations, force evaluations = 396 610

MPI task timing breakdown:
Section |  min time  |  avg time  |  max time  |%varavg| %total
---------------------------------------------------------------
Pair    | 0.083169   | 0.1254     | 0.15806    |   7.7 | 63.80
Bond    | 0.0098229  | 0.012817   | 0.014376   |   1.6 |  6.52
Neigh   | 0.00060425 | 0.00060619 | 0.00060835 |   0.0 |  0.31
Comm    | 0.017311   | 0.051815   | 0.096272   |  12.6 | 26.36
Output  | 0          | 0          | 0          |   0.0 |  0.00
Modify  | 0          | 0          | 0          |   0.0 |  0.00
Other   |            | 0.005906   |            |       |  3.01

Nlocal:            258 ave         298 max         196 min
Histogram: 1 0 0 0 0 0 1 1 0 1
Nghost:          842.5 ave         902 max         813 min
Histogram: 2 0 1 0 0 0 0 0 0 1
Neighs:        2459.75 ave        3344 max        1522 min
Histogram: 1 0 0 0 0 2 0 0 0 1

Total # of neighbors = 9839
Ave neighs/atom = 9.5339147
Ave special neighs/atom = 4.8255814
Neighbor list builds = 1
Dangerous builds = 0
reset_timestep 0

# ===============================
# 2. OUTPUTS
# ===============================
dump d1 all custom 50000 outputs/${tag}.lammpstrj id mol type q xu yu zu
dump d1 all custom 50000 outputs/100ASO_all_purine_unmodified.lammpstrj id mol type q xu yu zu
dump_modify d1 sort id

thermo_style custom step pe ke etotal temp press density
thermo 10000
thermo_modify flush yes

variable vpe equal pe
variable vke equal ke
variable vT  equal temp
variable vE  equal etotal
variable vRg equal gyration(all)

fix favg all ave/time 10000 10 100000 v_vpe v_vke v_vT v_vE v_vRg     file outputs/thermo_${tag}_averaged.dat
fix favg all ave/time 10000 10 100000 v_vpe v_vke v_vT v_vE v_vRg     file outputs/thermo_100ASO_all_purine_unmodified_averaged.dat

# ===============================
# 3. EQUILIBRATION (NVT)
# ===============================
velocity all create ${T_target} 51383 rot yes dist gaussian
velocity all create 300 51383 rot yes dist gaussian

# Langevin thermostat for equilibration
fix fxlang all langevin ${T_target} ${T_target} 1000.0 64057
fix fxlang all langevin 300 ${T_target} 1000.0 64057
fix fxlang all langevin 300 300 1000.0 64057
fix fxnve  all nve
fix recenter all momentum 1000 linear 1 1 1

# Equilibration run
run 5000000
Generated 0 of 6 mixed pair_coeff terms from geometric mixing rule
Per MPI rank memory allocation (min/avg/max) = 7.314 | 7.314 | 7.315 Mbytes
   Step         PotEng         KinEng         TotEng          Temp          Press         Density    
         0  -60.818365      921.96455      861.14618      300            10.259322      0.14086178   
     10000   500.00409      894.30414      1394.3082      290.99952      6.9987075      0.14086178   
     20000   487.23031      916.51648      1403.7468      298.22724      7.925139       0.14086178   
     30000   477.35523      956.63777      1433.993       311.28239      1.2546554      0.14086178   
     40000   496.57326      921.33651      1417.9098      299.79564      3.5616165      0.14086178   
     50000   518.36752      956.54299      1474.9105      311.25155     -2.0328507      0.14086178   
     60000   485.54815      895.87341      1381.4216      291.51015      2.6837531      0.14086178   
     70000   497.42018      916.90807      1414.3282      298.35466      10.184396      0.14086178   
     80000   504.80077      915.41222      1420.213       297.86792      8.37523        0.14086178   
     90000   519.75613      939.4966       1459.2527      305.70479      2.8289873      0.14086178   
    100000   503.86098      963.86437      1467.7254      313.63387      1.8289159      0.14086178   
    110000   510.76515      911.07115      1421.8363      296.45537     -0.81384317     0.14086178   
    120000   497.70535      887.15503      1384.8604      288.67326     -3.9370257      0.14086178   
    130000   502.06566      939.15927      1441.2249      305.59503      4.4827899      0.14086178   
    140000   518.19298      927.24893      1445.4419      301.71949      4.3703677      0.14086178   
    150000   521.43922      921.39571      1442.8349      299.8149      -0.75093457     0.14086178   
    160000   500.53845      905.94716      1406.4856      294.78807      3.691423       0.14086178   
    170000   499.00163      940.38903      1439.3907      305.99518      1.1267931      0.14086178   
    180000   521.50859      912.18003      1433.6886      296.8162       4.9418837      0.14086178   
    190000   519.06513      914.76435      1433.8295      297.65711     -1.251657       0.14086178   
    200000   509.09756      913.53339      1422.631       297.25657      5.6295146      0.14086178   
    210000   485.61009      955.69312      1441.3032      310.97501      2.3820294      0.14086178   
    220000   448.45141      914.21631      1362.6677      297.47878      5.3034276      0.14086178   
    230000   461.31895      918.72314      1380.0421      298.94527      4.6830375      0.14086178   
    240000   450.60528      928.63671      1379.242       302.17107      2.3811816      0.14086178   
    250000   484.17156      893.87636      1378.0479      290.86033      1.5265654      0.14086178   
    260000   468.12261      918.2966       1386.4192      298.80648      0.71640864     0.14086178   
    270000   470.29007      922.81285      1393.1029      300.27603      2.0887567      0.14086178   
    280000   537.77607      879.53486      1417.3109      286.19371      1.0690333      0.14086178   
    290000   488.93676      937.22769      1426.1644      304.96651      8.97634        0.14086178   
    300000   497.02757      892.21187      1389.2394      290.31871     -0.73099933     0.14086178   
    310000   452.46105      901.10953      1353.5706      293.21394     -1.9893396      0.14086178   
    320000   448.34341      895.20292      1343.5463      291.29198      0.50844537     0.14086178   
    330000   445.84516      889.82257      1335.6677      289.54125      1.8671987      0.14086178   
    340000   471.1686       939.26667      1410.4353      305.62998      4.9143764      0.14086178   
    350000   453.35768      924.86976      1378.2274      300.94533      2.7314759      0.14086178   
    360000   478.6836       904.16396      1382.8476      294.20783      3.6375397      0.14086178   
    370000   471.25898      914.17476      1385.4337      297.46526     -2.6722183      0.14086178   
    380000   466.93558      967.06384      1433.9994      314.67495     -0.55689325     0.14086178   
    390000   503.30847      902.29389      1405.6024      293.59932      3.1360076      0.14086178   
    400000   463.64391      905.88099      1369.5249      294.76654      2.6282758      0.14086178   
    410000   455.04302      895.03606      1350.0791      291.23768     -1.960799       0.14086178   
    420000   463.10472      900.22223      1363.327       292.92522      0.069708001    0.14086178   
    430000   484.71686      914.74703      1399.4639      297.65148      4.0381952      0.14086178   
    440000   458.56067      869.37342      1327.9341      282.88726      1.564688       0.14086178   
    450000   474.49638      893.78383      1368.2802      290.83022      0.6600117      0.14086178   
    460000   493.86898      916.09686      1409.9658      298.0907      -1.4555961      0.14086178   
    470000   461.22487      947.72855      1408.9534      308.3834       7.4106996      0.14086178   
    480000   475.01513      878.9263       1353.9414      285.99569      0.32972838     0.14086178   
    490000   476.95782      937.6873       1414.6451      305.11606      1.326596       0.14086178   
    500000   468.80118      936.67125      1405.4724      304.78545      1.2958533      0.14086178   
    510000   464.24738      951.18915      1415.4365      309.50945      3.3068139      0.14086178   
    520000   466.16105      884.17461      1350.3357      287.70345      1.5552342      0.14086178   
    530000   483.62472      904.92979      1388.5545      294.45702      1.4267115      0.14086178   
    540000   456.99007      965.61541      1422.6055      314.20365      4.0090085      0.14086178   
    550000   478.38947      915.65905      1394.0485      297.94824      2.5859348      0.14086178   
    560000   476.2986       955.77468      1432.0733      311.00155      1.3095232      0.14086178   
    570000   423.82504      909.31949      1333.1445      295.8854       3.3239474      0.14086178   
    580000   509.11463      902.17834      1411.293       293.56172      0.046711132    0.14086178   
    590000   491.21286      935.58476      1426.7976      304.43191      5.0347418      0.14086178   
    600000   458.34576      919.89783      1378.2436      299.32751     -1.2875105      0.14086178   
    610000   466.82862      888.32985      1355.1585      289.05554      0.81853036     0.14086178   
    620000   435.66179      917.49023      1353.152       298.54409     -0.11632286     0.14086178   
    630000   458.27257      919.447        1377.7196      299.18081      1.9149492      0.14086178   
    640000   494.40408      909.48641      1403.8905      295.93971      2.1034595      0.14086178   
    650000   465.34563      936.38725      1401.7329      304.69303      5.9030188      0.14086178   
    660000   477.72145      879.96373      1357.6852      286.33326      3.8700614      0.14086178   
    670000   460.62407      880.09001      1340.7141      286.37435      0.21783623     0.14086178   
    680000   469.82288      963.05429      1432.8772      313.37028      4.4167338      0.14086178   
    690000   447.44578      947.66983      1395.1156      308.3643      -3.0484224      0.14086178   
    700000   505.70219      914.93478      1420.637       297.71257      2.2180217      0.14086178   
    710000   467.1985       958.56646      1425.765       311.90997      4.63888        0.14086178   
    720000   475.12645      928.84561      1403.9721      302.23904      1.6137957      0.14086178   
    730000   511.0787       905.32587      1416.4046      294.58591      5.0270835      0.14086178   
    740000   457.20959      902.35284      1359.5624      293.61851     -2.5783432      0.14086178   
    750000   484.24678      915.13806      1399.3848      297.77872     -1.2620456      0.14086178   
    760000   517.32358      965.03666      1482.3602      314.01533      4.1456631      0.14086178   
    770000   476.77502      925.14548      1401.9205      301.03505      4.8937838      0.14086178   
    780000   489.05718      965.61582      1454.673       314.20378      3.9223705      0.14086178   
    790000   462.79249      914.33723      1377.1297      297.51813      4.4929671      0.14086178   
    800000   479.54512      872.84025      1352.3854      284.01534      2.2839679      0.14086178   
    810000   473.27964      925.02902      1398.3087      300.99716     -0.86594584     0.14086178   
    820000   478.42807      910.95914      1389.3872      296.41893     -3.3078221      0.14086178   
    830000   476.30196      905.68363      1381.9856      294.70232     -0.2977582      0.14086178   
    840000   487.8205       913.44806      1401.2686      297.2288       5.2962617      0.14086178   
    850000   447.31984      923.73572      1371.0556      300.57632      4.1120471      0.14086178   
    860000   466.84068      914.14235      1380.983       297.45472      1.7269439      0.14086178   
    870000   444.21743      924.46722      1368.6846      300.81435      1.6694683      0.14086178   
    880000   466.25185      936.75052      1403.0024      304.81124      4.2672069      0.14086178   
    890000   447.50544      900.29528      1347.8007      292.94899      2.4053536      0.14086178   
    900000   459.37433      923.29226      1382.6666      300.43203     -3.2585395      0.14086178   
    910000   473.03018      915.32011      1388.3503      297.83795      6.3727104      0.14086178   
    920000   432.72615      892.93102      1325.6572      290.55272     -0.16586297     0.14086178   
    930000   472.08885      886.35228      1358.4411      288.41205      0.65523451     0.14086178   
    940000   464.85257      908.33807      1373.1906      295.56605      2.8479412      0.14086178   
    950000   483.16906      912.50548      1395.6745      296.92209      2.6565961      0.14086178   
    960000   441.65178      890.93404      1332.5858      289.90292      3.8893083      0.14086178   
    970000   461.07577      962.93201      1424.0078      313.33049      0.64612792     0.14086178   
    980000   447.61951      905.21357      1352.8331      294.54936      0.81055879     0.14086178   
    990000   504.77712      892.66919      1397.4463      290.46752      9.3557152      0.14086178   
   1000000   509.6281       922.70214      1432.3302      300.24001     -0.19462605     0.14086178   
   1010000   455.33497      893.438        1348.773       290.71769      2.9239877      0.14086178   
   1020000   437.24379      931.64373      1368.8875      303.14953     -0.48295012     0.14086178   
   1030000   452.7464       937.37184      1390.1182      305.01341     -4.2657276      0.14086178   
   1040000   457.24854      923.91424      1381.1628      300.63442     -1.9227381      0.14086178   
   1050000   432.10797      913.62125      1345.7292      297.28516      6.7746908      0.14086178   
   1060000   468.07661      943.52793      1411.6045      307.01656      5.8414991      0.14086178   
   1070000   493.59682      891.47594      1385.0728      290.07925      4.5206785      0.14086178   
   1080000   469.38274      926.49292      1395.8757      301.47349     -5.0086177      0.14086178   
   1090000   457.62535      902.58025      1360.2056      293.6925      -1.3691959      0.14086178   
   1100000   472.79903      964.54292      1437.342       313.85467     -2.6808274      0.14086178   
   1110000   484.60859      902.83973      1387.4483      293.77693      1.0115269      0.14086178   
   1120000   484.49481      909.82757      1394.3224      296.05072      4.8482504      0.14086178   
   1130000   498.09128      935.57628      1433.6676      304.42915      5.2871766      0.14086178   
   1140000   460.42804      917.84864      1378.2767      298.66072      3.4879414      0.14086178   
   1150000   468.63703      933.16779      1401.8048      303.64545      5.5797623      0.14086178   
   1160000   452.04453      963.65764      1415.7022      313.5666       2.7142166      0.14086178   
   1170000   441.98434      925.20952      1367.1939      301.05589      0.72766241     0.14086178   
   1180000   472.82048      940.24979      1413.0703      305.94987      3.8813685      0.14086178   
   1190000   473.43311      919.72946      1393.1626      299.27272      1.282839       0.14086178   
   1200000   467.1558       920.23837      1387.3942      299.43831      0.16853819     0.14086178   
   1210000   470.9049       879.53427      1350.4392      286.19352     -1.7405415      0.14086178   
   1220000   457.71663      906.07943      1363.7961      294.83111      2.6792686      0.14086178   
   1230000   459.91101      921.60403      1381.515       299.88269      0.58691087     0.14086178   
   1240000   471.8774       924.15856      1396.036       300.71391      1.551551       0.14086178   
   1250000   460.01011      897.23819      1357.2483      291.95424      9.738868       0.14086178   
   1260000   483.45105      919.1173       1402.5683      299.07353      1.6003419      0.14086178   
   1270000   465.12746      927.00605      1392.1335      301.64046     -2.0720261      0.14086178   
   1280000   482.93469      908.97023      1391.9049      295.77175     -3.0327336      0.14086178   
   1290000   449.20964      882.94239      1332.152       287.3025       1.8160105      0.14086178   
   1300000   460.91791      895.03404      1355.952       291.23703      0.98247745     0.14086178   
   1310000   463.37816      941.04544      1404.4236      306.20877      1.8130867      0.14086178   
   1320000   468.43719      920.08963      1388.5268      299.38992     -1.7450395      0.14086178   
   1330000   487.81689      932.06597      1419.8829      303.28692      1.3040341      0.14086178   
   1340000   472.56908      934.66743      1407.2365      304.13342     -0.15010509     0.14086178   
   1350000   484.71387      928.28147      1412.9953      302.05548     -0.17509922     0.14086178   
   1360000   471.20549      879.62868      1350.8342      286.22424      7.8021804      0.14086178   
   1370000   466.16309      924.57212      1390.7352      300.84848      0.77606554     0.14086178   
   1380000   444.57715      930.67765      1375.2548      302.83517      3.0970091      0.14086178   
   1390000   486.03179      921.10327      1407.1351      299.71975      9.1232896      0.14086178   
   1400000   502.35097      905.84718      1408.1981      294.75554      4.8274329      0.14086178   
   1410000   479.99833      933.28675      1413.2851      303.68416     -0.60307803     0.14086178   
   1420000   454.90865      956.46095      1411.3696      311.22486     -0.28465884     0.14086178   
   1430000   479.29681      948.19144      1427.4883      308.53402      6.3000078      0.14086178   
   1440000   484.35841      893.20643      1377.5648      290.64234     -0.88765561     0.14086178   
   1450000   488.17823      908.32458      1396.5028      295.56166      8.245576       0.14086178   
   1460000   468.59604      896.91519      1365.5112      291.84914     -1.07352        0.14086178   
   1470000   462.34162      917.52486      1379.8665      298.55536      1.3016782      0.14086178   
   1480000   479.15185      929.08061      1408.2325      302.31551      5.9984428      0.14086178   
   1490000   457.51204      946.10471      1403.6168      307.85502     -1.1958342      0.14086178   
   1500000   457.7545       917.03405      1374.7885      298.39565      3.6394865      0.14086178   
   1510000   475.52491      969.56039      1445.0853      315.48731     -1.793173       0.14086178   
   1520000   487.6631       913.0752       1400.7383      297.10748      5.5318912      0.14086178   
   1530000   484.7695       948.71222      1433.4817      308.70348      0.024844826    0.14086178   
   1540000   477.56581      887.59161      1365.1574      288.81532     -0.6900305      0.14086178   
   1550000   444.79032      912.46427      1357.2546      296.90869      7.9057433      0.14086178   
   1560000   466.9715       940.943        1407.9145      306.17544     -1.1852773      0.14086178   
   1570000   436.05876      899.81575      1335.8745      292.79295      1.2229688      0.14086178   
   1580000   460.07558      938.31551      1398.3911      305.32047      2.2037968      0.14086178   
   1590000   434.85507      908.35936      1343.2144      295.57298      1.1947206      0.14086178   
   1600000   452.52927      872.60512      1325.1344      283.93883      6.5935628      0.14086178   
   1610000   458.39204      904.22873      1362.6208      294.22891      7.5492052      0.14086178   
   1620000   441.49094      933.49549      1374.9864      303.75208      5.4106279      0.14086178   
   1630000   467.97609      940.84919      1408.8253      306.14491      4.6402349      0.14086178   
   1640000   480.47959      897.71918      1378.1988      292.11075     -1.6212215      0.14086178   
   1650000   452.77755      898.40344      1351.181       292.3334       6.235326       0.14086178   
   1660000   453.431        893.54798      1346.979       290.75347      0.78878513     0.14086178   
   1670000   485.69693      942.1627       1427.8596      306.57232      6.9401129      0.14086178   
   1680000   438.29677      906.38176      1344.6785      294.92948      2.3964413      0.14086178   
   1690000   469.11871      951.50727      1420.626       309.61297      11.746932      0.14086178   
   1700000   472.50411      925.47545      1397.9796      301.14242      0.68256964     0.14086178   
   1710000   475.18145      961.85715      1437.0386      312.98074      5.4750242      0.14086178   
   1720000   469.89643      927.13314      1397.0296      301.68182      2.2629169      0.14086178   
   1730000   450.51917      936.94886      1387.468       304.87578     -2.5974157      0.14086178   
   1740000   479.79047      944.3597       1424.1502      307.2872       3.8970324      0.14086178   
   1750000   456.85272      924.52587      1381.3786      300.83343      5.0851884      0.14086178   
   1760000   445.20333      910.26146      1355.4648      296.19191      0.84337638     0.14086178   
   1770000   472.23635      920.42584      1392.6622      299.49932      3.2804276      0.14086178   
   1780000   444.01832      935.41398      1379.4323      304.37634      0.69420991     0.14086178   
   1790000   452.31176      944.16809      1396.4799      307.22486      6.7103673      0.14086178   
   1800000   473.44356      923.26622      1396.7098      300.42355     -0.36057306     0.14086178   
   1810000   460.49847      914.23681      1374.7353      297.48545      0.4610867      0.14086178   
   1820000   456.98086      940.16171      1397.1426      305.92121     -0.44651074     0.14086178   
   1830000   447.8466       913.06526      1360.9119      297.10424      3.131721       0.14086178   
   1840000   483.34798      916.14643      1399.4944      298.10683      1.7406019      0.14086178   
   1850000   510.08025      907.81034      1417.8906      295.39433     -1.3397842      0.14086178   
   1860000   471.58205      901.19281      1372.7749      293.24104      5.9581292      0.14086178   
   1870000   465.77052      919.54904      1385.3196      299.21401      3.5467252      0.14086178   
   1880000   459.47353      944.67819      1404.1517      307.39084     -1.1297103      0.14086178   
   1890000   481.52582      910.65041      1392.1762      296.31847     -2.7612531      0.14086178   
   1900000   454.24165      918.31821      1372.5599      298.81351      3.1909392      0.14086178   
   1910000   465.66373      946.87198      1412.5357      308.10468      3.7669448      0.14086178   
   1920000   504.75622      908.23743      1412.9936      295.5333      -5.3013822      0.14086178   
   1930000   475.41511      924.76549      1400.1806      300.9114       5.3746563      0.14086178   
   1940000   449.50132      963.29292      1412.7942      313.44793      2.3608678      0.14086178   
   1950000   479.44593      893.4708       1372.9167      290.72836     -2.9501496      0.14086178   
   1960000   482.90248      894.25121      1377.1537      290.9823       7.09014        0.14086178   
   1970000   479.38603      922.62709      1402.0131      300.21559      1.8318143      0.14086178   
   1980000   482.46254      900.16309      1382.6256      292.90598     -1.722302       0.14086178   
   1990000   490.10676      941.40736      1431.5141      306.32654      0.21216102     0.14086178   
   2000000   496.92647      924.67972      1421.6062      300.8835       1.3825898      0.14086178   
   2010000   481.16674      971.49974      1452.6665      316.11836      4.6444251      0.14086178   
   2020000   467.9797       898.51682      1366.4965      292.37029     -4.1794621      0.14086178   
   2030000   495.85374      889.34861      1385.2023      289.38703      3.4193967      0.14086178   
   2040000   461.90709      928.4858       1390.3929      302.12196     -0.56559789     0.14086178   
   2050000   507.4042       935.48996      1442.8942      304.40106     -5.4432962      0.14086178   
   2060000   486.89427      908.47109      1395.3654      295.60933      4.1800444      0.14086178   
   2070000   484.26227      930.06654      1414.3288      302.63632     -0.8357784      0.14086178   
   2080000   472.24015      960.14749      1432.3876      312.42443      2.7118648      0.14086178   
   2090000   475.67698      918.94671      1394.6237      299.01802      4.7261602      0.14086178   
   2100000   477.41782      901.2355       1378.6533      293.25493      5.3092538      0.14086178   
   2110000   500.78474      906.93388      1407.7186      295.10914      2.4179213      0.14086178   
   2120000   505.23382      943.27465      1448.5085      306.93414      3.4873658      0.14086178   
   2130000   500.94453      928.10268      1429.0472      301.9973      -0.27916375     0.14086178   
   2140000   490.74514      942.28056      1433.0257      306.61067      4.7821875      0.14086178   
   2150000   505.83956      909.96799      1415.8075      296.09641      4.2174936      0.14086178   
   2160000   452.97975      933.51235      1386.4921      303.75756      4.1945171      0.14086178   
   2170000   471.13073      926.91665      1398.0474      301.61138      4.0254758      0.14086178   
   2180000   473.9877       906.20506      1380.1928      294.87199      3.7002759      0.14086178   
   2190000   472.1613       895.70425      1367.8655      291.4551      -2.8112405      0.14086178   
   2200000   465.00541      942.33994      1407.3454      306.62999      6.3609283      0.14086178   
   2210000   479.03528      937.94747      1416.9828      305.20072     -2.4310704      0.14086178   
   2220000   477.7504       918.8828       1396.6332      298.99722      10.839093      0.14086178   
   2230000   485.54402      914.09856      1399.6426      297.44047      5.6251233      0.14086178   
   2240000   489.36234      911.05761      1400.4199      296.45097      3.072634       0.14086178   
   2250000   477.85501      894.29781      1372.1528      290.99746      3.1024134      0.14086178   
   2260000   493.75353      913.49414      1407.2477      297.2438      -0.20867334     0.14086178   
   2270000   455.12829      899.67241      1354.8007      292.74631      3.8672         0.14086178   
   2280000   466.64006      937.96371      1404.6038      305.206       -0.12606384     0.14086178   
   2290000   425.77946      929.94757      1355.727       302.59761     -0.27820387     0.14086178   
   2300000   518.32536      926.87798      1445.2033      301.59879      6.0216287      0.14086178   
   2310000   458.60882      933.86014      1392.469       303.87073      5.5810068      0.14086178   
   2320000   476.84311      938.89366      1415.7368      305.5086       3.1327455      0.14086178   
   2330000   474.08251      948.26658      1422.3491      308.55847      4.3754837      0.14086178   
   2340000   480.48519      936.42099      1416.9062      304.70401      7.106791       0.14086178   
   2350000   459.88842      925.18547      1385.0739      301.04806     -0.63588754     0.14086178   
   2360000   462.19976      929.81291      1392.0127      302.55379      2.506379       0.14086178   
   2370000   476.45294      895.45788      1371.9108      291.37494      2.395478       0.14086178   
   2380000   465.72979      911.81373      1377.5435      296.697        3.3495438      0.14086178   
   2390000   455.00697      923.36215      1378.3691      300.45477      6.5714078      0.14086178   
   2400000   444.62723      925.3667       1369.9939      301.10703     -0.27748995     0.14086178   
   2410000   448.46815      971.52898      1419.9971      316.12788      2.3513487      0.14086178   
   2420000   509.56451      886.79246      1396.357       288.55528     -3.2936239      0.14086178   
   2430000   465.95352      890.87144      1356.825       289.88255      3.7257121      0.14086178   
   2440000   464.32485      920.75596      1385.0808      299.60673     -0.051066266    0.14086178   
   2450000   441.51111      932.35152      1373.8626      303.37984      10.603475      0.14086178   
   2460000   466.18264      911.19237      1377.375       296.49482      3.7897628      0.14086178   
   2470000   475.43091      945.18744      1420.6184      307.55655      0.28057305     0.14086178   
   2480000   522.50594      932.93241      1455.4384      303.56885     -1.1057903      0.14086178   
   2490000   527.27848      905.99022      1433.2687      294.80208      1.4373505      0.14086178   
   2500000   476.73302      883.27586      1360.0089      287.41101     -0.19249144     0.14086178   
   2510000   492.36513      946.27438      1438.6395      307.91023      1.920914       0.14086178   
   2520000   476.34905      952.71122      1429.0603      310.00472     -6.1760328      0.14086178   
   2530000   466.89461      872.21921      1339.1138      283.81326     -1.7519478      0.14086178   
   2540000   466.65046      916.90692      1383.5574      298.35429      2.345516       0.14086178   
   2550000   491.72393      945.81589      1437.5398      307.76104      0.10639661     0.14086178   
   2560000   464.93865      933.78142      1398.7201      303.84512      2.0671911      0.14086178   
   2570000   479.12534      917.20702      1396.3324      298.45194      5.3763922      0.14086178   
   2580000   474.09641      939.55555      1413.652       305.72397      0.77702506     0.14086178   
   2590000   484.30621      989.50324      1473.8095      321.97656     -3.7602469      0.14086178   
   2600000   431.10275      944.49986      1375.6026      307.33281     -0.29790291     0.14086178   
   2610000   487.08375      921.06238      1408.1461      299.70644      6.6612712      0.14086178   
   2620000   464.40518      906.68284      1371.088       295.02745      2.2905146      0.14086178   
   2630000   473.74154      933.14836      1406.8899      303.63912      1.7005449      0.14086178   
   2640000   450.46357      910.06616      1360.5297      296.12836      6.6983538      0.14086178   
   2650000   468.58316      932.09662      1400.6798      303.2969       4.9287598      0.14086178   
   2660000   491.72628      895.4742       1387.2005      291.38025      2.5510288      0.14086178   
   2670000   446.18106      952.99585      1399.1769      310.09734      2.0315371      0.14086178   
   2680000   428.55477      930.51657      1359.0713      302.78276      1.4312645      0.14086178   
   2690000   472.37822      940.27327      1412.6515      305.95751     -5.2850217      0.14086178   
   2700000   451.68533      919.52977      1371.2151      299.20774     -0.85974354     0.14086178   
   2710000   451.33976      920.85545      1372.1952      299.63911      5.7926611      0.14086178   
   2720000   437.44776      951.69417      1389.1419      309.67379      0.72720263     0.14086178   
   2730000   453.6043       941.48893      1395.0932      306.35308      3.1229621      0.14086178   
   2740000   440.08727      896.67405      1336.7613      291.77067     -3.0715932      0.14086178   
   2750000   477.64732      891.91917      1369.5665      290.22347      1.1888232      0.14086178   
   2760000   447.7182       928.24511      1375.9633      302.04364      0.95171349     0.14086178   
   2770000   449.89089      931.46163      1381.3525      303.09027      8.2643579      0.14086178   
   2780000   459.72709      931.99389      1391.721       303.26347      5.3944964      0.14086178   
   2790000   462.93844      883.04364      1345.9821      287.33544      0.36812039     0.14086178   
   2800000   449.63993      973.49875      1423.1387      316.76882      6.2705539      0.14086178   
   2810000   467.97634      897.58524      1365.5616      292.06717      3.4933563      0.14086178   
   2820000   494.13551      937.27831      1431.4138      304.98298     -1.6191971      0.14086178   
   2830000   463.52484      929.52464      1393.0495      302.46        -1.186572       0.14086178   
   2840000   449.831        897.81569      1347.6467      292.14215     -0.72329135     0.14086178   
   2850000   459.90168      896.72372      1356.6254      291.78683      5.0008327      0.14086178   
   2860000   428.82418      888.37326      1317.1974      289.06966      5.6241125      0.14086178   
   2870000   474.26941      889.56817      1363.8376      289.45847      3.2421683      0.14086178   
   2880000   462.82988      901.21011      1364.04        293.24667     -2.3605508      0.14086178   
   2890000   477.67667      880.34322      1358.0199      286.45675      3.9770281      0.14086178   
   2900000   497.94741      928.2448       1426.1922      302.04355     -2.3728278      0.14086178   
   2910000   469.93767      949.58968      1419.5273      308.989        4.0898922      0.14086178   
   2920000   441.58397      918.34268      1359.9267      298.82147      4.8121441      0.14086178   
   2930000   438.85875      930.35859      1369.2173      302.73136      8.1759304      0.14086178   
   2940000   455.63362      911.7228       1367.3564      296.66742     -2.8162496      0.14086178   
   2950000   475.1418       880.16691      1355.3087      286.39938      0.065703062    0.14086178   
   2960000   503.42743      934.24238      1437.6698      303.99511      0.71939253     0.14086178   
   2970000   503.54865      939.31342      1442.8621      305.64518      0.2334499      0.14086178   
   2980000   482.88029      925.36423      1408.2445      301.10623      4.6626006      0.14086178   
   2990000   470.88146      925.5242       1396.4057      301.15828     -0.57347196     0.14086178   
   3000000   466.53201      895.6597       1362.1917      291.44061      5.1252137      0.14086178   
   3010000   496.86341      894.71093      1391.5743      291.13189      2.701438       0.14086178   
   3020000   455.52664      943.05252      1398.5792      306.86186      1.731838       0.14086178   
   3030000   468.42464      932.64224      1401.0669      303.47444     -2.1244669      0.14086178   
   3040000   446.59749      941.97278      1388.5703      306.51052      7.5655949      0.14086178   
   3050000   421.81065      891.95242      1313.7631      290.23429      3.660617       0.14086178   
   3060000   485.69434      946.73259      1432.4269      308.05933      5.7313087      0.14086178   
   3070000   465.37083      900.93956      1366.3104      293.15863     -0.94151263     0.14086178   
   3080000   495.85401      898.84102      1394.695       292.47579     -0.93816091     0.14086178   
   3090000   460.17208      932.25297      1392.4251      303.34777     -0.44269382     0.14086178   
   3100000   471.72915      915.03018      1386.7593      297.74361      3.0523561      0.14086178   
   3110000   482.51393      973.69939      1456.2133      316.83411      1.7234095      0.14086178   
   3120000   453.27803      931.46941      1384.7474      303.09281     -3.5430385      0.14086178   
   3130000   460.97527      952.03861      1413.0139      309.78586      6.0825539      0.14086178   
   3140000   486.31419      908.79816      1395.1123      295.71576      0.88389768     0.14086178   
   3150000   438.7116       920.82215      1359.5338      299.62827      6.7860877      0.14086178   
   3160000   469.67191      938.34392      1408.0158      305.32972      1.1862307      0.14086178   
   3170000   465.33834      885.33075      1350.6691      288.07965      2.8736541      0.14086178   
   3180000   449.83566      908.36191      1358.1976      295.57381      0.84932383     0.14086178   
   3190000   498.99848      908.4412       1407.4397      295.59961      4.7171454      0.14086178   
   3200000   472.56986      942.49753      1415.0674      306.68127      2.684302       0.14086178   
   3210000   470.28807      910.19078      1380.4789      296.16891      2.3279645      0.14086178   
   3220000   468.30403      934.89807      1403.2021      304.20847     -0.20960578     0.14086178   
   3230000   441.46891      887.01425      1328.4832      288.62745      5.0541905      0.14086178   
   3240000   478.57604      905.50754      1384.0836      294.64502      0.72937843     0.14086178   
   3250000   493.5924       883.6178       1377.2102      287.52227      2.9770956      0.14086178   
   3260000   491.0508       937.89342      1428.9442      305.18313      3.5095747      0.14086178   
   3270000   485.57653      878.86122      1364.4378      285.97452      4.2283828      0.14086178   
   3280000   466.1972       914.14502      1380.3422      297.45559      2.8420837      0.14086178   
   3290000   437.23839      934.17424      1371.4126      303.97294     -0.84943575     0.14086178   
   3300000   471.09086      950.16563      1421.2565      309.17641      0.48743228     0.14086178   
   3310000   429.44033      902.33439      1331.7747      293.6125       7.493712       0.14086178   
   3320000   467.0621       928.82073      1395.8828      302.23095     -3.824154       0.14086178   
   3330000   442.06512      920.71905      1362.7842      299.59472      7.0533773      0.14086178   
   3340000   446.38587      933.33454      1379.7204      303.69971     -2.5290473      0.14086178   
   3350000   466.21689      940.23182      1406.4487      305.94403     -1.4830307      0.14086178   
   3360000   419.17012      955.64657      1374.8167      310.95986      2.2789207      0.14086178   
   3370000   452.86203      893.68625      1346.5483      290.79846      1.5576712      0.14086178   
   3380000   439.54381      888.84809      1328.3919      289.22416      0.15505112     0.14086178   
   3390000   493.81875      895.62767      1389.4464      291.43019     -2.3922822      0.14086178   
   3400000   458.98263      923.43477      1382.4174      300.4784       5.5089393      0.14086178   
   3410000   460.72848      903.27201      1364.0005      293.91759     -2.0391918      0.14086178   
   3420000   490.33224      927.01715      1417.3494      301.64408     -2.0034292      0.14086178   
   3430000   434.69376      896.85368      1331.5474      291.82912     -0.71607943     0.14086178   
   3440000   473.85262      940.81601      1414.6686      306.13412      7.1542416      0.14086178   
   3450000   489.44501      949.39661      1438.8416      308.92618      6.8160321      0.14086178   
   3460000   437.6785       917.35301      1355.0315      298.49944     -0.74610454     0.14086178   
   3470000   444.42736      956.9406       1401.368       311.38093     -4.256042       0.14086178   
   3480000   463.11594      974.2332       1437.3491      317.00781      1.6049584      0.14086178   
   3490000   442.54786      944.78572      1387.3336      307.42583     -1.1284826      0.14086178   
   3500000   434.86978      912.2958       1347.1656      296.85386      7.7257881      0.14086178   
   3510000   464.35432      912.61875      1376.9731      296.95895      3.8313945      0.14086178   
   3520000   452.8363       907.00794      1359.8442      295.13324      0.81568157     0.14086178   
   3530000   470.39695      941.38527      1411.7822      306.31935      3.5830956      0.14086178   
   3540000   471.45086      940.71374      1412.1646      306.10084     -0.46342471     0.14086178   
   3550000   455.47902      920.79176      1376.2708      299.61839      8.4492099      0.14086178   
   3560000   471.94733      953.34682      1425.2941      310.21154      13.941383      0.14086178   
   3570000   450.05454      897.31942      1347.374       291.98067     -1.9143027      0.14086178   
   3580000   506.28961      933.62376      1439.9134      303.79382     -1.8972864      0.14086178   
   3590000   458.44281      945.88395      1404.3268      307.78319      4.0646106      0.14086178   
   3600000   471.69431      923.90416      1395.5985      300.63114      2.7320513      0.14086178   
   3610000   473.96724      911.20528      1385.1725      296.49902      0.17041425     0.14086178   
   3620000   458.89337      897.57626      1356.4696      292.06424      4.017225       0.14086178   
   3630000   487.74288      870.05815      1357.801       283.11007      6.7638258      0.14086178   
   3640000   480.36856      925.25894      1405.6275      301.07197     -0.47229168     0.14086178   
   3650000   436.10467      924.60504      1360.7097      300.85919     -2.2594598      0.14086178   
   3660000   499.68281      923.03247      1422.7153      300.34749      1.5985607      0.14086178   
   3670000   421.58207      925.60485      1347.1869      301.18453      3.5206644      0.14086178   
   3680000   471.06062      935.5631       1406.6237      304.42486      1.896199       0.14086178   
   3690000   450.65409      922.57043      1373.2245      300.19715      0.86147905     0.14086178   
   3700000   474.05155      951.42638      1425.4779      309.58665      1.0057367      0.14086178   
   3710000   424.74949      938.54769      1363.2972      305.39602      1.128756       0.14086178   
   3720000   476.52181      946.15727      1422.6791      307.87212      4.1374462      0.14086178   
   3730000   478.99797      901.1175       1380.1155      293.21654      2.6328963      0.14086178   
   3740000   506.57832      911.45658      1418.0349      296.58079      4.8486197      0.14086178   
   3750000   438.47533      932.31106      1370.7864      303.36667      2.3902108      0.14086178   
   3760000   461.18807      920.41454      1381.6026      299.49564     -1.5911616      0.14086178   
   3770000   458.16564      967.9051       1426.0707      314.94869      6.7616855      0.14086178   
   3780000   461.9905       913.57517      1375.5657      297.27016     -3.4913393      0.14086178   
   3790000   472.797        916.00111      1388.7981      298.05955      1.0566953      0.14086178   
   3800000   458.65168      915.6247       1374.2764      297.93706      1.6819258      0.14086178   
   3810000   459.49482      916.79853      1376.2934      298.31902     -2.0443519      0.14086178   
   3820000   470.69959      914.46794      1385.1675      297.56066     -0.61877312     0.14086178   
   3830000   443.2649       926.46291      1369.7278      301.46373      7.1987234      0.14086178   
   3840000   463.20584      900.7516       1363.9574      293.09747     -1.1493923      0.14086178   
   3850000   445.19298      919.56949      1364.7625      299.22067      4.6061668      0.14086178   
   3860000   467.06424      946.65642      1413.7207      308.03454      4.9240375      0.14086178   
   3870000   452.84786      945.13303      1397.9809      307.53884      0.92579426     0.14086178   
   3880000   463.14053      934.48103      1397.6216      304.07276      6.0746223      0.14086178   
   3890000   473.15684      908.99258      1382.1494      295.77902     -2.4866719      0.14086178   
   3900000   423.96305      899.45525      1323.4183      292.67565     -1.2490985      0.14086178   
   3910000   462.16475      928.19896      1390.3637      302.02863      2.4877087      0.14086178   
   3920000   452.88975      932.4037       1385.2934      303.39682      6.7479831      0.14086178   
   3930000   486.71997      926.78742      1413.5074      301.56932      4.7792545      0.14086178   
   3940000   494.16587      916.7733       1410.9392      298.31081     -0.36143012     0.14086178   
   3950000   478.97941      928.11757      1407.097       302.00215      2.825467       0.14086178   
   3960000   466.29709      887.48244      1353.7795      288.77979     -1.3585151      0.14086178   
   3970000   459.71571      923.7405       1383.4562      300.57788      11.389534      0.14086178   
   3980000   455.29149      918.21122      1373.5027      298.7787       5.7046803      0.14086178   
   3990000   476.89829      925.17856      1402.0769      301.04581      5.5047627      0.14086178   
   4000000   480.61294      945.43098      1426.0439      307.63579      2.0543535      0.14086178   
   4010000   439.22017      945.22648      1384.4467      307.56925      4.8208085      0.14086178   
   4020000   480.66918      948.27603      1428.9452      308.56155      1.4385871      0.14086178   
   4030000   490.87883      939.19597      1430.0748      305.60697      2.2773935      0.14086178   
   4040000   463.10384      929.36006      1392.4639      302.40644      4.2325015      0.14086178   
   4050000   476.41795      901.78303      1378.201       293.43309      1.0619828      0.14086178   
   4060000   462.8226       919.64995      1382.4725      299.24685      0.70871882     0.14086178   
   4070000   453.06292      957.03472      1410.0976      311.41156     -4.4805371      0.14086178   
   4080000   460.61332      966.77942      1427.3927      314.5824       5.4405831      0.14086178   
   4090000   450.94063      923.58039      1374.521       300.52578      8.0110203      0.14086178   
   4100000   435.02977      917.098        1352.1278      298.41646      3.7188472      0.14086178   
   4110000   474.27812      913.28317      1387.5613      297.17515     -0.030212429    0.14086178   
   4120000   452.69521      875.12784      1327.823       284.7597      -1.8473953      0.14086178   
   4130000   438.92049      909.63717      1348.5577      295.98877      6.4711826      0.14086178   
   4140000   503.13982      950.31307      1453.4529      309.22439      2.7231675      0.14086178   
   4150000   478.34621      961.18907      1439.5353      312.76335      3.3865351      0.14086178   
   4160000   491.97123      930.02966      1422.0009      302.62432     -5.8268103      0.14086178   
   4170000   480.74508      910.70751      1391.4526      296.33705      3.2451473      0.14086178   
   4180000   462.67117      958.18662      1420.8578      311.78638      6.9725856      0.14086178   
   4190000   461.04942      958.90593      1419.9554      312.02044      1.2593484      0.14086178   
   4200000   462.81392      893.29699      1356.1109      290.6718      -3.2613827      0.14086178   
   4210000   438.00933      923.76154      1361.7709      300.58473      4.4242298      0.14086178   
   4220000   474.63063      888.52379      1363.1544      289.11864     -0.8464788      0.14086178   
   4230000   460.58018      937.88445      1398.4646      305.18021      4.5252796      0.14086178   
   4240000   469.01447      942.07588      1411.0904      306.54407      5.2667996      0.14086178   
   4250000   433.79647      952.95213      1386.7486      310.08312      5.6290348      0.14086178   
   4260000   471.45529      930.73691      1402.1922      302.85446      0.66616559     0.14086178   
   4270000   454.13689      932.91431      1387.0512      303.56297      4.6165344      0.14086178   
   4280000   477.70063      924.82321      1402.5238      300.93018      2.1596922      0.14086178   
   4290000   472.38464      962.86691      1435.2516      313.30931     -3.7847666      0.14086178   
   4300000   440.5726       896.82429      1337.3969      291.81956     -1.9128204      0.14086178   
   4310000   467.67251      849.52138      1317.1939      276.42756      0.21940314     0.14086178   
   4320000   488.10743      965.16316      1453.2706      314.05649      3.4494449      0.14086178   
   4330000   460.48343      905.9448       1366.4282      294.7873       1.1605243      0.14086178   
   4340000   471.11084      938.45669      1409.5675      305.36641      3.8014163      0.14086178   
   4350000   465.10015      928.47776      1393.5779      302.11935     -1.6680224      0.14086178   
   4360000   479.52496      877.13375      1356.6587      285.41241     -0.097789727    0.14086178   
   4370000   500.39588      916.35212      1416.748       298.17376      6.5767103      0.14086178   
   4380000   456.65487      956.57018      1413.2251      311.2604      -3.1084794      0.14086178   
   4390000   486.67001      926.7517       1413.4217      301.5577       4.6041116      0.14086178   
   4400000   472.43098      918.31364      1390.7446      298.81202     -1.0816442      0.14086178   
   4410000   523.02724      930.37445      1453.4017      302.73651      1.6329012      0.14086178   
   4420000   464.56228      918.03831      1382.6006      298.72243     -3.2411644      0.14086178   
   4430000   492.4099       932.74237      1425.1523      303.50702      0.87480365     0.14086178   
   4440000   464.24091      888.8          1353.0409      289.20852     -0.026030136    0.14086178   
   4450000   485.54342      914.69004      1400.2335      297.63293     -1.4693198      0.14086178   
   4460000   449.29102      905.95432      1355.2453      294.7904      -0.90118923     0.14086178   
   4470000   454.7065       945.98288      1400.6894      307.81538      7.2868684      0.14086178   
   4480000   449.20022      916.73041      1365.9306      298.29685      3.2346361      0.14086178   
   4490000   476.245        935.08039      1411.3254      304.26779      0.098932841    0.14086178   
   4500000   459.28825      907.67151      1366.9598      295.34916      2.6014604      0.14086178   
   4510000   470.88307      954.69378      1425.5768      310.64983      3.4045706      0.14086178   
   4520000   460.27375      944.43552      1404.7093      307.31188      5.7749737      0.14086178   
   4530000   489.32815      896.55273      1385.8809      291.73119      1.7159513      0.14086178   
   4540000   492.03828      892.2116       1384.2499      290.31862      4.2456463      0.14086178   
   4550000   505.70989      927.34856      1433.0585      301.75192      3.3712779      0.14086178   
   4560000   479.17987      908.56076      1387.7406      295.63851      2.8492814      0.14086178   
   4570000   498.36617      923.34438      1421.7106      300.44899      4.984947       0.14086178   
   4580000   446.21023      955.39022      1401.6005      310.87645      3.8023801      0.14086178   
   4590000   491.95763      892.02683      1383.9845      290.2585      -0.15231018     0.14086178   
   4600000   492.05738      952.93226      1444.9896      310.07665     -0.98639116     0.14086178   
   4610000   446.57142      938.47694      1385.0484      305.373       -2.4125329      0.14086178   
   4620000   442.78377      925.95005      1368.7338      301.29685      5.0187967      0.14086178   
   4630000   477.93914      900.60545      1378.5446      293.04992      2.2315545      0.14086178   
   4640000   469.29785      889.18438      1358.4822      289.33359      1.3352901      0.14086178   
   4650000   475.5232       935.96933      1411.4925      304.55705     -1.7201484      0.14086178   
   4660000   450.1318       939.93075      1390.0626      305.84606      0.37303226     0.14086178   
   4670000   501.19377      921.63833      1422.8321      299.89385     -0.6605669      0.14086178   
   4680000   441.00647      983.32972      1424.3362      319.96774      1.6443397      0.14086178   
   4690000   518.34426      907.05096      1425.3952      295.14723      1.812205       0.14086178   
   4700000   455.5575       915.01089      1370.5684      297.73733      5.8502891      0.14086178   
   4710000   504.29442      902.48161      1406.776       293.66041      5.3223702      0.14086178   
   4720000   509.24668      946.72819      1455.9749      308.05789     -1.3073791      0.14086178   
   4730000   487.38713      922.2548       1409.6419      300.09445      2.2876208      0.14086178   
   4740000   453.55874      911.22697      1364.7857      296.50608      3.8840136      0.14086178   
   4750000   493.55419      919.04341      1412.5976      299.04948      5.2771573      0.14086178   
   4760000   518.94736      914.64102      1433.5884      297.61698      6.2399533      0.14086178   
   4770000   450.95616      927.73238      1378.6885      301.87681      4.8490251      0.14086178   
   4780000   456.91896      928.546        1385.465       302.14155      1.3957338      0.14086178   
   4790000   511.29563      934.87639      1446.172       304.20141     -0.73475323     0.14086178   
   4800000   477.5286       950.97792      1428.5065      309.44072      3.3541096      0.14086178   
   4810000   485.39949      934.52756      1419.927       304.0879       1.1410064      0.14086178   
   4820000   472.87869      900.85113      1373.7298      293.12986     -0.92371064     0.14086178   
   4830000   471.75949      931.6671       1403.4266      303.15713      4.2889234      0.14086178   
   4840000   442.89288      917.42136      1360.3142      298.52168      0.85867535     0.14086178   
   4850000   486.97733      952.70279      1439.6801      310.00198     -3.3659256      0.14086178   
   4860000   462.54635      905.06699      1367.6133      294.50167     -4.7470493      0.14086178   
   4870000   474.45425      896.45538      1370.9096      291.69952      1.9425633      0.14086178   
   4880000   479.71443      933.47499      1413.1894      303.74541      1.9120888      0.14086178   
   4890000   457.9879       925.84718      1383.8351      301.26338      3.6320296      0.14086178   
   4900000   481.53739      947.30747      1428.8449      308.24639     -4.0621531      0.14086178   
   4910000   449.70766      882.01969      1331.7274      287.00226      4.2721295      0.14086178   
   4920000   494.65314      929.87694      1424.5301      302.57463      4.9303661      0.14086178   
   4930000   465.61225      947.53328      1413.1455      308.31986      0.91089659     0.14086178   
   4940000   473.65364      927.79902      1401.4527      301.89849      5.5814908      0.14086178   
   4950000   502.49634      916.4546       1418.9509      298.20711      1.1713077      0.14086178   
   4960000   448.50076      938.30532      1386.8061      305.31716      4.621252       0.14086178   
   4970000   517.2326       884.51295      1401.7456      287.81355     -0.23776237     0.14086178   
   4980000   447.43219      959.67786      1407.11        312.27161     -0.72964356     0.14086178   
   4990000   442.69496      894.2781       1336.9731      290.99105      0.66826733     0.14086178   
   5000000   461.11001      929.78604      1390.8961      302.54505      1.9288524      0.14086178   
Loop time of 1169.05 on 4 procs for 5000000 steps with 1032 atoms

Performance: 3695.301 ns/day, 0.006 hours/ns, 4276.969 timesteps/s, 4.414 Matom-step/s
99.4% CPU use with 4 MPI tasks x 1 OpenMP threads

MPI task timing breakdown:
Section |  min time  |  avg time  |  max time  |%varavg| %total
---------------------------------------------------------------
Pair    | 593.05     | 703.25     | 914.14     | 469.7 | 60.16
Bond    | 74.467     | 77.996     | 83.472     |  41.9 |  6.67
Neigh   | 4.5449     | 4.5488     | 4.554      |   0.2 |  0.39
Comm    | 126.49     | 344.66     | 454.88     | 691.8 | 29.48
Output  | 0.24601    | 0.44264    | 0.72271    |  26.7 |  0.04
Modify  | 32.517     | 34.045     | 36.315     |  24.7 |  2.91
Other   |            | 4.109      |            |       |  0.35

Nlocal:            258 ave         298 max         225 min
Histogram: 1 0 1 0 0 1 0 0 0 1
Nghost:         959.25 ave        1011 max         930 min
Histogram: 2 0 0 0 1 0 0 0 0 1
Neighs:         1936.5 ave        2514 max        1634 min
Histogram: 1 1 1 0 0 0 0 0 0 1

Total # of neighbors = 7746
Ave neighs/atom = 7.505814
Ave special neighs/atom = 4.8255814
Neighbor list builds = 10282
Dangerous builds = 0

# ===============================
# 4. PRODUCTION
# ===============================
# Reset averages for production
unfix favg
fix favg all ave/time 10000 10 100000 v_vpe v_vke v_vT v_vE v_vRg     file outputs/thermo_${tag}_production.dat
fix favg all ave/time 10000 10 100000 v_vpe v_vke v_vT v_vE v_vRg     file outputs/thermo_100ASO_all_purine_unmodified_production.dat

restart 10000000 outputs/backup_${tag}.*.restart
restart 10000000 outputs/backup_100ASO_all_purine_unmodified.*.restart
run 100000000
Generated 0 of 6 mixed pair_coeff terms from geometric mixing rule
Per MPI rank memory allocation (min/avg/max) = 8.608 | 8.611 | 8.612 Mbytes
   Step         PotEng         KinEng         TotEng          Temp          Press         Density    
   5000000   461.11001      929.78604      1390.8961      302.54505      1.9288524      0.14086178   
   5010000   490.05727      849.15471      1339.212       276.30825     -0.60811537     0.14086178   
   5020000   429.82315      902.97261      1332.7958      293.82017      4.7971432      0.14086178   
   5030000   446.57343      940.11194      1386.6854      305.90502      0.72670416     0.14086178   
   5040000   429.64113      958.9812       1388.6223      312.04493      1.9112299      0.14086178   
   5050000   449.11588      889.20963      1338.3255      289.34181     -5.6846122      0.14086178   
   5060000   477.42356      976.32005      1453.7436      317.68685      0.44985424     0.14086178   
   5070000   465.15123      970.65858      1435.8098      315.84466     -2.3133962      0.14086178   
   5080000   467.75496      934.62869      1402.3837      304.12081      7.9962464      0.14086178   
   5090000   456.15649      913.06382      1369.2203      297.10377      6.6752352      0.14086178   
   5100000   460.47681      955.65203      1416.1288      310.96164     -1.7763483      0.14086178   
   5110000   433.08825      910.50099      1343.5892      296.26985      2.653486       0.14086178   
   5120000   458.72024      981.91094      1440.6312      319.50608      3.1376898      0.14086178   
   5130000   474.92437      934.82773      1409.7521      304.18558      3.3223907      0.14086178   
   5140000   446.77693      940.21915      1386.9961      305.9399       6.660777       0.14086178   
   5150000   432.21692      950.51004      1382.727       309.28848      3.0782868      0.14086178   
   5160000   443.87847      952.15485      1396.0333      309.82369      10.34512       0.14086178   
   5170000   464.59312      930.39292      1394.986       302.74253      4.8436581      0.14086178   
   5180000   453.3702       938.90321      1392.2734      305.51171     -0.77258128     0.14086178   
   5190000   430.98013      912.78893      1343.7691      297.01433      6.9893031      0.14086178   
   5200000   446.68932      943.9182       1390.6075      307.14355      6.6884966      0.14086178   
   5210000   467.18324      929.94576      1397.129       302.59702      2.7452215      0.14086178   
   5220000   464.52566      885.70875      1350.2344      288.20265      1.8466677      0.14086178   
   5230000   472.90369      931.96331      1404.867       303.25352      2.9028678      0.14086178   
   5240000   420.29946      970.52429      1390.8237      315.80096      2.5824437      0.14086178   
   5250000   489.42078      951.7517       1441.1725      309.6925       2.9298961      0.14086178   
   5260000   466.73262      936.77074      1403.5034      304.81782      5.0235228      0.14086178   
   5270000   453.0916       953.63161      1406.7232      310.30421      0.51930332     0.14086178   
   5280000   450.19631      938.15538      1388.3517      305.26837      3.4074906      0.14086178   
   5290000   469.79885      881.11066      1350.9095      286.70647      3.1027107      0.14086178   
   5300000   447.34079      976.36524      1423.706       317.70155      5.0509299      0.14086178   
   5310000   483.11726      926.88906      1410.0063      301.6024      -3.424211       0.14086178   
   5320000   502.29552      904.05732      1406.3528      294.17313      1.6778139      0.14086178   
   5330000   446.8454       874.63302      1321.4784      284.59869      1.8210955      0.14086178   
   5340000   438.00353      918.53631      1356.5398      298.88448     -3.128321       0.14086178   
   5350000   433.01761      900.53464      1333.5523      293.02688     -3.370591       0.14086178   
   5360000   461.70778      957.26232      1418.9701      311.48562      10.498573      0.14086178   
   5370000   465.10876      911.02834      1376.1371      296.44144     -5.1495125      0.14086178   
   5380000   470.23874      968.50633      1438.7451      315.14433     -0.070149598    0.14086178   
   5390000   468.84782      947.89037      1416.7382      308.43606      1.7640844      0.14086178   
   5400000   470.46506      884.13452      1354.5996      287.69041      0.81529239     0.14086178   
   5410000   468.69702      896.3989       1365.0959      291.68114      1.9418469      0.14086178   
   5420000   452.11573      890.76907      1342.8848      289.84924      4.4288544      0.14086178   
   5430000   449.54407      918.98415      1368.5282      299.0302       4.2138771      0.14086178   
   5440000   470.89621      929.89748      1400.7937      302.58131     -0.18768157     0.14086178   
   5450000   438.73294      910.70374      1349.4367      296.33582     -0.92520461     0.14086178   
   5460000   488.72465      929.87057      1418.5952      302.57256      0.9384276      0.14086178   
   5470000   485.8265       945.56742      1431.3939      307.68019      2.9369516      0.14086178   
   5480000   469.64347      919.66678      1389.3103      299.25232      0.73294247     0.14086178   
   5490000   474.36646      947.14599      1421.5125      308.19384      6.4567129      0.14086178   
   5500000   465.48139      915.70189      1381.1833      297.96218      0.12347672     0.14086178   
   5510000   461.57724      910.55539      1372.1326      296.28755     -1.7999575      0.14086178   
   5520000   460.22953      914.47115      1374.7007      297.56171      2.6355358      0.14086178   
   5530000   468.41746      918.25936      1386.6768      298.79436      1.9431427      0.14086178   
   5540000   460.47384      913.12244      1373.5963      297.12285     -1.7589953      0.14086178   
   5550000   479.91031      887.34935      1367.2597      288.73649      6.1217689      0.14086178   
   5560000   522.34554      907.73216      1430.0777      295.36889     -6.2842114      0.14086178   
   5570000   522.71568      931.92192      1454.6376      303.24005     -0.55864414     0.14086178   
   5580000   461.10788      940.62587      1401.7337      306.07225      5.8855824      0.14086178   
   5590000   438.49046      885.8263       1324.3168      288.2409       7.1995467      0.14086178   
   5600000   478.1173       916.32045      1394.4377      298.16345      4.8881407      0.14086178   
   5610000   489.23105      937.9772       1427.2082      305.21039     -1.6945913      0.14086178   
   5620000   463.37282      913.40614      1376.779       297.21516     -1.9489722      0.14086178   
   5630000   476.56367      885.76741      1362.3311      288.22174      2.9852414      0.14086178   
   5640000   474.50827      921.61351      1396.1218      299.88577      1.9369891      0.14086178   
   5650000   456.83557      939.36178      1396.1973      305.66092     -0.18995312     0.14086178   
   5660000   461.62635      943.96088      1405.5872      307.15743      4.9126717      0.14086178   
   5670000   500.23451      891.22496      1391.4595      289.99758      8.2005792      0.14086178   
   5680000   476.53535      959.88474      1436.4201      312.33893      9.1283458      0.14086178   
   5690000   460.70609      907.62476      1368.3309      295.33395      2.7766417      0.14086178   
   5700000   470.97529      949.60837      1420.5837      308.99508      2.091639       0.14086178   
   5710000   449.65414      929.23427      1378.8884      302.36551      2.9749626      0.14086178   
   5720000   486.08981      956.82999      1442.9198      311.34494      2.8750444      0.14086178   
   5730000   453.27935      899.04019      1352.3195      292.54059     -1.254945       0.14086178   
   5740000   479.43219      941.31244      1420.7446      306.29565      6.5111462      0.14086178   
   5750000   456.78108      893.45585      1350.2369      290.72349      0.35414109     0.14086178   
   5760000   428.89924      943.86263      1372.7619      307.12546      1.3977729      0.14086178   
   5770000   472.57404      920.68921      1393.2633      299.58502      1.5728734      0.14086178   
   5780000   473.35175      872.30682      1345.6586      283.84177     -0.28842688     0.14086178   
   5790000   471.76695      928.69021      1400.4572      302.18848      5.5803268      0.14086178   
   5800000   485.93549      983.74841      1469.6839      320.10398      11.894073      0.14086178   
   5810000   472.37692      898.0503       1370.4272      292.21849      0.52406065     0.14086178   
   5820000   452.5474       932.56197      1385.1094      303.44832      0.14800242     0.14086178   
   5830000   512.79396      930.2864       1443.0804      302.70787      6.2484775      0.14086178   
   5840000   461.02961      940.53257      1401.5622      306.04189     -0.0062348221   0.14086178   
   5850000   471.40189      924.41843      1395.8203      300.79847     -0.56651704     0.14086178   
   5860000   468.75909      908.20807      1376.9672      295.52375      9.6390864      0.14086178   
   5870000   447.06361      923.882        1370.9456      300.62392      0.34035831     0.14086178   
   5880000   470.58343      938.67778      1409.2612      305.43835      0.91427092     0.14086178   
   5890000   482.18265      950.87439      1433.057       309.40703      1.6129053      0.14086178   
   5900000   480.96369      960.68199      1441.6457      312.59835     -1.5239447      0.14086178   
   5910000   480.25032      949.5182       1429.7685      308.96574     -0.99772113     0.14086178   
   5920000   495.64645      955.90998      1451.5564      311.04558      0.75462866     0.14086178   
   5930000   427.92238      936.98317      1364.9055      304.88694      2.6651183      0.14086178   
   5940000   498.59736      918.31298      1416.9103      298.81181      0.74237518     0.14086178   
   5950000   477.99213      931.14906      1409.1412      302.98857     -0.23363464     0.14086178   
   5960000   465.27193      921.19859      1386.4705      299.75076     -2.8765009      0.14086178   
   5970000   492.19635      912.75745      1404.9538      297.00408      1.5500609      0.14086178   
   5980000   464.9726       930.34766      1395.3203      302.7278      -1.1431879      0.14086178   
   5990000   478.30859      931.33613      1409.6447      303.04944      4.9825713      0.14086178   
   6000000   500.26423      890.09731      1390.3615      289.63065      0.07630529     0.14086178   
   6010000   484.00222      972.61811      1456.6203      316.48227      1.1049146      0.14086178   
   6020000   468.22237      915.27472      1383.4971      297.82318      5.1790439      0.14086178   
   6030000   468.57983      914.61506      1383.1949      297.60854      3.6194983      0.14086178   
   6040000   464.58116      961.64848      1426.2296      312.91284      0.70317675     0.14086178   
   6050000   512.86073      910.92453      1423.7853      296.40767     -3.7600211      0.14086178   
   6060000   475.292        968.98815      1444.2801      315.30111      4.8071115      0.14086178   
   6070000   487.67324      922.17375      1409.847       300.06807      4.4363847      0.14086178   
   6080000   492.44613      912.88394      1405.3301      297.04524     -2.2071103      0.14086178   
   6090000   488.31329      898.48092      1386.7942      292.35861      7.2598307      0.14086178   
   6100000   472.49283      901.14925      1373.6421      293.22687      2.8928491      0.14086178   
   6110000   490.20711      956.74187      1446.949       311.31627      2.1430974      0.14086178   
   6120000   474.70558      905.04645      1379.752       294.49498     -0.41008807     0.14086178   
   6130000   471.97162      925.35674      1397.3284      301.10379     -0.97258272     0.14086178   
   6140000   511.15825      911.24401      1422.4023      296.51162      0.19108011     0.14086178   
   6150000   417.45853      907.97182      1325.4303      295.44688      3.3830566      0.14086178   
   6160000   460.56136      894.93577      1355.4971      291.20505     -0.35527562     0.14086178   
   6170000   464.99573      913.24584      1378.2416      297.163       -3.9282936      0.14086178   
   6180000   476.50901      895.84321      1372.3522      291.50032      1.6207373      0.14086178   
   6190000   434.27474      892.2336       1326.5083      290.32578      3.6665744      0.14086178   
   6200000   469.93028      939.40279      1409.3331      305.67427      2.159001       0.14086178   
   6210000   472.60414      912.22836      1384.8325      296.83192      5.9170771      0.14086178   
   6220000   433.5511       916.55204      1350.1031      298.23881      7.4428593      0.14086178   
   6230000   483.85951      971.05475      1454.9143      315.97356      0.55950581     0.14086178   
   6240000   474.86522      891.37592      1366.2411      290.0467      -2.6123873      0.14086178   
   6250000   460.88985      936.12955      1397.0194      304.60918      3.3445261      0.14086178   
   6260000   479.9217       968.42412      1448.3458      315.11758      4.2462002      0.14086178   
   6270000   458.34849      935.09342      1393.4419      304.27203     -2.4765183      0.14086178   
   6280000   474.75933      961.04887      1435.8082      312.71773      1.0638839      0.14086178   
   6290000   492.06673      917.67469      1409.7414      298.60411     -3.0350305      0.14086178   
   6300000   445.16277      929.34075      1374.5035      302.40016      9.118198       0.14086178   
   6310000   438.92351      882.87896      1321.8025      287.28186     -0.56549903     0.14086178   
   6320000   476.3452       915.43844      1391.7836      297.87646      0.98400519     0.14086178   
   6330000   464.5209       914.865        1379.3859      297.68986      4.6676205      0.14086178   
   6340000   479.58011      942.0431       1421.6232      306.5334       3.6561471      0.14086178   
   6350000   479.96161      904.05006      1384.0117      294.17077      4.7212917      0.14086178   
   6360000   462.00599      932.21952      1394.2255      303.33689      2.9159371      0.14086178   
   6370000   475.24255      888.69277      1363.9353      289.17362     -0.61340348     0.14086178   
   6380000   484.7217       910.3529       1395.0746      296.22166      4.2632133      0.14086178   
   6390000   474.31293      956.32309      1430.636       311.18        -0.39190998     0.14086178   
   6400000   452.70633      929.19513      1381.9015      302.35277      3.1703261      0.14086178   
   6410000   493.68886      891.05535      1384.7442      289.94239     -1.309344       0.14086178   
   6420000   458.93627      912.90075      1371.837       297.05071      6.6630725      0.14086178   
   6430000   447.28312      909.683        1356.9661      296.00368      4.7375756      0.14086178   
   6440000   482.42938      923.13963      1405.569       300.38236      1.7117395      0.14086178   
   6450000   494.99793      943.82228      1438.8202      307.11233      0.67121102     0.14086178   
   6460000   478.27798      874.70938      1352.9874      284.62354      0.088167029    0.14086178   
   6470000   492.72834      936.67656      1429.4049      304.78717      1.2004146      0.14086178   
   6480000   484.14396      930.86986      1415.0138      302.89772     -1.7044134      0.14086178   
   6490000   482.95886      914.93209      1397.891       297.71169      2.35344        0.14086178   
   6500000   507.90426      878.11711      1386.0214      285.73239     -3.5626917      0.14086178   
   6510000   514.02845      951.07618      1465.1046      309.4727       6.1971482      0.14086178   
   6520000   496.65784      903.25397      1399.9118      293.91172      3.3526493      0.14086178   
   6530000   475.81023      906.56827      1382.3785      294.99017      2.2910369      0.14086178   
   6540000   489.39913      867.32101      1356.7201      282.21942      3.1193615      0.14086178   
   6550000   505.6861       914.46288      1420.149       297.55902      9.7114784      0.14086178   
   6560000   498.62489      947.89165      1446.5165      308.43647      0.47888643     0.14086178   
   6570000   496.7644       899.39665      1396.1611      292.65658      1.8888797      0.14086178   
   6580000   482.9653       982.21059      1465.1759      319.60359      5.7211506      0.14086178   
   6590000   480.94553      959.20802      1440.1535      312.11873      4.1075729      0.14086178   
   6600000   478.0572       873.19183      1351.249       284.12974      0.39330297     0.14086178   
   6610000   515.79058      944.99966      1460.7902      307.49544      2.5146966      0.14086178   
   6620000   479.20592      930.65864      1409.8646      302.82899      2.533164       0.14086178   
   6630000   482.71184      978.7171       1461.4289      318.46683      3.8242188      0.14086178   
   6640000   485.6258       875.99476      1361.6206      285.04179      2.7508523      0.14086178   
   6650000   474.60192      903.55064      1378.1526      294.00826      3.7967692      0.14086178   
   6660000   470.36599      936.48792      1406.8539      304.72579      4.1254229      0.14086178   
   6670000   509.76854      931.67013      1441.4387      303.15812      5.0264505      0.14086178   
   6680000   488.09997      882.936        1371.036       287.30042      2.0515473      0.14086178   
   6690000   498.5705       909.61585      1408.1863      295.98183      0.72896212     0.14086178   
   6700000   508.49703      909.71155      1418.2086      296.01297      1.5434831      0.14086178   
   6710000   477.94017      900.72741      1378.6676      293.0896       3.2894718      0.14086178   
   6720000   499.41176      883.64787      1383.0596      287.53205      1.489003       0.14086178   
   6730000   489.22606      933.5106       1422.7367      303.75699     -0.33697108     0.14086178   
   6740000   494.57465      923.27635      1417.851       300.42685     -1.6292277      0.14086178   
   6750000   502.4585       946.48082      1448.9393      307.9774       0.34878454     0.14086178   
   6760000   453.79775      944.83763      1398.6354      307.44272     -1.3272356      0.14086178   
   6770000   476.87801      918.9398       1395.8178      299.01577      3.7784653      0.14086178   
   6780000   519.4343       903.1659       1422.6002      293.88307     -0.075800676    0.14086178   
   6790000   492.27213      915.09164      1407.3638      297.76361      3.9200677      0.14086178   
   6800000   494.43996      922.88662      1417.3266      300.30004      1.2543316      0.14086178   
   6810000   508.02415      957.88495      1465.9091      311.68822      4.7104452      0.14086178   
   6820000   435.3778       923.75277      1359.1306      300.58187      4.0383995      0.14086178   
   6830000   488.46066      910.31799      1398.7786      296.2103       1.5391324      0.14086178   
   6840000   451.16158      886.79065      1337.9522      288.55469      5.6014369      0.14086178   
   6850000   499.33137      930.36222      1429.6936      302.73253      0.028551397    0.14086178   
   6860000   465.72547      908.21589      1373.9414      295.52629      2.7529897      0.14086178   
   6870000   493.72007      939.196        1432.9161      305.60698     -0.37412655     0.14086178   
   6880000   484.99233      933.55763      1418.55        303.7723       4.1419114      0.14086178   
   6890000   466.24699      907.18615      1373.4331      295.19123      3.611604       0.14086178   
   6900000   453.77415      949.17313      1402.9473      308.85346     -2.1735983      0.14086178   
   6910000   465.23656      902.46306      1367.6996      293.65437      2.0002754      0.14086178   
   6920000   494.56512      914.1024       1408.6675      297.44172      2.1501795      0.14086178   
   6930000   503.37804      922.8457       1426.2237      300.28672      5.3647179      0.14086178   
   6940000   469.7692       912.3226       1382.0918      296.86259      1.634131       0.14086178   
   6950000   487.8441       930.54251      1418.3866      302.7912       0.28242177     0.14086178   
   6960000   437.35421      905.52199      1342.8762      294.64972      2.2879131      0.14086178   
   6970000   442.92125      892.13619      1335.0574      290.29409      6.4790874      0.14086178   
   6980000   468.91402      914.47962      1383.3936      297.56446     -1.4521895      0.14086178   
   6990000   441.78249      928.92163      1370.7041      302.26378      6.0452943      0.14086178   
   7000000   446.02474      935.65539      1381.6801      304.45489      9.4085251      0.14086178   
[...]
  66090000   456.39958      950.84067      1407.2403      309.39606     -1.5817698      0.14086178   
  66100000   483.18572      925.57836      1408.7641      301.17591     -2.7684982      0.14086178   
  66110000   503.57296      886.47396      1390.0469      288.45164     -2.7195098      0.14086178   
  66120000   457.97955      910.54437      1368.5239      296.28396     -1.2416366      0.14086178   
  66130000   450.08034      902.36178      1352.4421      293.62141      4.2721567      0.14086178   
  66140000   468.98307      961.74899      1430.7321      312.94554      3.4983161      0.14086178   
  66150000   471.38781      931.07543      1402.4632      302.96461     -3.7601117      0.14086178   
  66160000   468.10465      902.3465       1370.4511      293.61644     -0.18075435     0.14086178   
  66170000   478.08932      948.94833      1427.0377      308.78031      4.0726928      0.14086178   
  66180000   418.54731      925.35681      1343.9041      301.10382      1.1097512      0.14086178   
  66190000   488.37521      947.14425      1435.5195      308.19328      3.4834028      0.14086178   
  66200000   463.8846       914.69976      1378.5844      297.6361       0.7173796      0.14086178   
  66210000   456.63196      894.48991      1351.1219      291.05997     -0.27935079     0.14086178   
  66220000   472.96328      925.80276      1398.766       301.24892      8.0594193      0.14086178   
  66230000   467.96384      925.56311      1393.5269      301.17094      3.4698931      0.14086178   
  66240000   470.18218      929.33864      1399.5208      302.39947      2.0091895      0.14086178   
  66250000   448.77985      932.28346      1381.0633      303.35769      4.7391786      0.14086178   
  66260000   464.00848      963.68385      1427.6923      313.57513      1.3991266      0.14086178   
  66270000   462.79307      911.8019       1374.595       296.69315     -6.7325519      0.14086178   
  66280000   467.91027      932.7946       1400.7049      303.52401      2.4989195      0.14086178   
  66290000   461.14349      937.38188      1398.5254      305.01668      3.5421356      0.14086178   
  66300000   453.91756      917.96007      1371.8776      298.69697     -0.63650442     0.14086178   
  66310000   533.48709      933.31787      1466.805       303.69428     -3.9452447      0.14086178   
  66320000   442.82594      913.67026      1356.4962      297.3011       5.8064413      0.14086178   
  66330000   467.87293      889.74001      1357.6129      289.51439      2.271235       0.14086178   
  66340000   488.68535      898.32759      1387.0129      292.30872      1.7873816      0.14086178   
  66350000   462.01184      930.41285      1392.4247      302.74901      1.4950333      0.14086178   
  66360000   463.11785      951.59394      1414.7118      309.64117     -2.9965404      0.14086178   
  66370000   479.63264      951.53         1431.1626      309.62037      6.8786644      0.14086178   
  66380000   460.66616      905.61792      1366.2841      294.68094      2.5362704      0.14086178   
  66390000   490.76932      897.7386       1388.5079      292.11707      2.9726509      0.14086178   
  66400000   475.22149      922.00647      1397.228       300.01364     -3.137031       0.14086178   
  66410000   499.98399      922.74472      1422.7287      300.25386     -2.7978097      0.14086178   
  66420000   458.77152      933.89665      1392.6682      303.88261      2.4800614      0.14086178   
  66430000   489.00627      906.98111      1395.9874      295.12451      0.29798138     0.14086178   
  66440000   466.77762      912.93358      1379.7112      297.06139      7.4322965      0.14086178   
  66450000   477.3048       925.90864      1403.2134      301.28338      4.0877136      0.14086178   
  66460000   484.78105      908.44418      1393.2252      295.60058     -3.861375       0.14086178   
  66470000   429.39006      933.92818      1363.3182      303.89287     -1.7093427      0.14086178   
  66480000   474.34329      931.23935      1405.5826      303.01795     -1.7979864      0.14086178   
  66490000   430.11481      910.75755      1340.8724      296.35333     -0.21237302     0.14086178   
  66500000   474.13564      900.25416      1374.3898      292.93561      1.7547704      0.14086178   
  66510000   490.47325      883.01147      1373.4847      287.32497      0.81101197     0.14086178   
  66520000   462.85538      957.35438      1420.2098      311.51557      4.31012        0.14086178   
  66530000   483.73539      979.08253      1462.8179      318.58574     -1.7119877      0.14086178   
  66540000   499.59705      946.85472      1446.4518      308.09906     -1.7985587      0.14086178   
  66550000   462.49006      887.85236      1350.3424      288.90016     -2.7135492      0.14086178   
  66560000   468.77103      929.34007      1398.1111      302.39994      1.0104055      0.14086178   
  66570000   489.20237      921.63267      1410.835       299.89201      3.3164989      0.14086178   
  66580000   468.88362      954.62772      1423.5113      310.62834      0.094488567    0.14086178   
  66590000   487.17602      936.56622      1423.7422      304.75127      6.9823352      0.14086178   
  66600000   480.06324      937.15668      1417.2199      304.9434       2.4550421      0.14086178   
  66610000   451.21824      924.30539      1375.5236      300.76169      4.409456       0.14086178   
  66620000   488.31786      939.35771      1427.6756      305.6596      -1.6261891      0.14086178   
  66630000   439.46234      952.16297      1391.6253      309.82633      5.1167247      0.14086178   
  66640000   423.77632      909.48903      1333.2653      295.94056      0.31337168     0.14086178   
  66650000   431.30551      946.29538      1377.6009      307.91706      8.24721        0.14086178   
  66660000   468.00899      915.66155      1383.6705      297.94905      2.5243758      0.14086178   
  66670000   475.88528      927.94144      1403.8267      301.94483      3.6505015      0.14086178   
  66680000   491.97947      916.75789      1408.7374      298.30579      2.3623137      0.14086178   
  66690000   433.75097      950.40552      1384.1565      309.25447      3.7640407      0.14086178   
  66700000   511.80573      957.13731      1468.943       311.44494     -0.45264177     0.14086178   
  66710000   475.10224      901.23882      1376.3411      293.25601     -0.85222112     0.14086178   
  66720000   485.85479      937.11935      1422.9741      304.93125      4.680694       0.14086178   
  66730000   472.39834      907.89743      1380.2958      295.42267     -0.9252521      0.14086178   
  66740000   492.08621      919.35239      1411.4386      299.15002      3.005779       0.14086178   
  66750000   484.83273      905.35091      1390.1836      294.59405      1.3185139      0.14086178   
  66760000   513.76372      949.49059      1463.2543      308.95676     -1.254123       0.14086178   
  66770000   479.4572       899.91972      1379.3769      292.82679      1.7635693      0.14086178   
  66780000   461.02065      935.38588      1396.4065      304.3672      -0.55443178     0.14086178   
  66790000   468.66227      932.20668      1400.8689      303.33271      10.5215        0.14086178   
  66800000   440.88844      908.47242      1349.3609      295.60977      7.4669327      0.14086178   
  66810000   463.99054      905.83555      1369.8261      294.75175      1.2704031      0.14086178   
  66820000   489.87611      954.40997      1444.2861      310.55748      2.7299706      0.14086178   
  66830000   480.83646      890.56458      1371.401       289.7827       6.1534413      0.14086178   
  66840000   523.2042       913.6877       1436.8919      297.30678      6.1531143      0.14086178   
  66850000   490.81754      923.39013      1414.2077      300.46387      1.4215213      0.14086178   
  66860000   476.92534      933.18551      1410.1109      303.65121      1.8617787      0.14086178   
  66870000   489.33294      951.34726      1440.6802      309.5609      -0.68670626     0.14086178   
  66880000   479.87081      922.27462      1402.1454      300.1009       5.3818435      0.14086178   
  66890000   481.5937       944.94726      1426.541       307.47839      1.5353364      0.14086178   
  66900000   485.28666      906.39356      1391.6802      294.93332      4.0234382      0.14086178   
  66910000   484.08788      873.80809      1357.896       284.33027      3.1960911      0.14086178   
  66920000   445.75154      933.61518      1379.3667      303.79102     -2.4459017      0.14086178   
  66930000   489.54599      917.48786      1407.0339      298.54332      9.1054071      0.14086178   
  66940000   487.41702      938.54276      1425.9598      305.39442     -0.45061794     0.14086178   
  66950000   462.91264      916.12193      1379.0346      298.09886      2.0424713      0.14086178   
  66960000   462.65241      954.45506      1417.1075      310.57216     -1.6631138      0.14086178   
  66970000   494.37885      900.54055      1394.9194      293.0288       0.21341261     0.14086178   
  66980000   488.95027      904.97711      1393.9274      294.47242     -1.562627       0.14086178   
  66990000   477.93111      887.26122      1365.1923      288.70781      11.026471      0.14086178   
  67000000   460.7987       933.63751      1394.4362      303.79829      7.4203377      0.14086178   
  67010000   470.30117      947.50375      1417.8049      308.31025      5.2633493      0.14086178   
  67020000   499.74056      895.87294      1395.6135      291.51         4.2379275      0.14086178   
  67030000   480.64606      938.83331      1419.4794      305.48896      1.2720881      0.14086178   
  67040000   502.40369      900.79087      1403.1946      293.11025     -0.73474781     0.14086178   
  67050000   501.01455      956.94675      1457.9613      311.38293      6.223106       0.14086178   
  67060000   492.7546       923.86822      1416.6228      300.61944      2.2752603      0.14086178   
  67070000   476.00213      931.29782      1407.2999      303.03697      2.2581262      0.14086178   
  67080000   478.29772      897.95325      1376.251       292.18691      2.3519562      0.14086178   
  67090000   519.93919      898.73568      1418.6749      292.44151     -0.7068237      0.14086178   
  67100000   510.86561      876.54277      1387.4084      285.22011      2.8512301      0.14086178   
  67110000   445.04562      982.25788      1427.3035      319.61898      2.8318133      0.14086178   
  67120000   508.37583      923.26258      1431.6384      300.42237     -1.7245894      0.14086178   
  67130000   449.22484      931.07737      1380.3022      302.96524      4.5507145      0.14086178   
  67140000   462.98943      882.79804      1345.7875      287.25553      0.73839422     0.14086178   
  67150000   470.10893      902.34112      1372.45        293.61469     -4.8231396      0.14086178   
  67160000   428.72958      930.96687      1359.6964      302.92928      12.742773      0.14086178   
  67170000   438.35517      957.90687      1396.262       311.69535      4.5406182      0.14086178   
  67180000   494.55905      955.1495       1449.7086      310.79812      2.1235552      0.14086178   
  67190000   447.90118      913.78774      1361.6889      297.33933      5.0372655      0.14086178   
  67200000   505.92187      903.92259      1409.8445      294.12929      5.8164185      0.14086178   
  67210000   444.46205      959.40594      1403.868       312.18313      7.0075509      0.14086178   
  67220000   485.92835      907.62923      1393.5576      295.3354       0.40063438     0.14086178   
  67230000   490.36074      917.66115      1408.0219      298.59971      8.8664136      0.14086178   
  67240000   510.93624      946.73051      1457.6668      308.05865      2.9113625      0.14086178   
  67250000   456.25374      912.43242      1368.6862      296.89832      6.7954502      0.14086178   
  67260000   457.21629      934.3631       1391.5794      304.03439     -0.035489432    0.14086178   
  67270000   479.20025      912.1284       1391.3286      296.79939      5.6451197      0.14086178   
  67280000   469.66612      939.03972      1408.7058      305.55612      2.327936       0.14086178   
  67290000   460.33116      930.8033       1391.1345      302.87606      4.229375       0.14086178   
  67300000   457.84191      962.90608      1420.748       313.32205      7.1815492      0.14086178   
  67310000   462.16718      981.10075      1443.2679      319.24245      7.6759622      0.14086178   
  67320000   477.39427      937.17178      1414.5661      304.94831      9.2118186      0.14086178   
  67330000   465.90458      964.0457       1429.9503      313.69288      2.0171851      0.14086178   
  67340000   466.66269      882.38625      1349.0489      287.12153      6.7669956      0.14086178   
  67350000   479.96504      909.09453      1389.0596      295.8122       2.7335392      0.14086178   
  67360000   470.14081      914.65569      1384.7965      297.62175      2.9692627      0.14086178   
  67370000   448.23007      931.46329      1379.6934      303.09082      1.2388677      0.14086178   
  67380000   458.54613      933.09634      1391.6425      303.6222       0.2951168      0.14086178   
  67390000   458.79498      931.4993       1390.2943      303.10253      7.8433786      0.14086178   
  67400000   484.65536      935.6815       1420.3369      304.46339      0.63649528     0.14086178   
  67410000   467.57026      941.64663      1409.2169      306.40439      3.349317       0.14086178   
  67420000   508.04302      918.23736      1426.2804      298.7872       5.6670683      0.14086178   
  67430000   473.42347      957.29892      1430.7224      311.49753      4.9968734      0.14086178   
  67440000   516.46274      914.55963      1431.0224      297.5905       3.0591353      0.14086178   
  67450000   451.07215      903.67764      1354.7498      294.04959     -1.0779791      0.14086178   
  67460000   423.46052      940.79053      1364.251       306.12583      2.6563078      0.14086178   
  67470000   468.48168      948.71131      1417.193       308.70318      1.1474501      0.14086178   
  67480000   478.40232      935.85316      1414.2555      304.51924      4.3394532      0.14086178   
  67490000   478.79283      934.42258      1413.2154      304.05374      3.3034917      0.14086178   
  67500000   464.80699      933.76441      1398.5714      303.83958     -2.0112006      0.14086178   
  67510000   483.12783      915.94873      1399.0766      298.0425       4.2646411      0.14086178   
  67520000   447.06477      897.78129      1344.8461      292.13096      5.5417672      0.14086178   
  67530000   470.31174      913.02872      1383.3405      297.09235      5.4812508      0.14086178   
  67540000   513.68125      971.4297       1485.111       316.09557     -2.4156108      0.14086178   
  67550000   460.93302      937.80286      1398.7359      305.15366      3.7178497      0.14086178   
  67560000   473.94684      961.31286      1435.2597      312.80363     -1.6398395      0.14086178   
  67570000   438.98388      938.82915      1377.813       305.48761     -0.43935827     0.14086178   
  67580000   480.88359      924.34736      1405.231       300.77535      5.0333975      0.14086178   
  67590000   500.6596       915.17351      1415.8331      297.79025      0.64947378     0.14086178   
  67600000   516.00628      919.24208      1435.2484      299.11413     -3.2350445      0.14086178   
  67610000   523.40486      905.87083      1429.2757      294.76323      1.2772883      0.14086178   
  67620000   459.77431      916.78601      1376.5603      298.31494     -1.009449       0.14086178   
  67630000   482.69225      916.93522      1399.6275      298.3635       1.1868533      0.14086178   
  67640000   501.45945      924.40259      1425.862       300.79332      1.4911216      0.14086178   
  67650000   482.06293      946.76782      1428.8308      308.07079     -1.2987815      0.14086178   
  67660000   520.01772      917.78191      1437.7996      298.639       -5.7947611      0.14086178   
  67670000   477.68181      924.3882       1402.07        300.78864      2.1120418      0.14086178   
  67680000   482.36104      918.71069      1401.0717      298.94122      2.0355159      0.14086178   
  67690000   464.76195      940.02626      1404.7882      305.87714      2.0533021      0.14086178   
  67700000   467.91893      959.48668      1427.4056      312.20941      2.634135       0.14086178   
  67710000   486.36493      912.23624      1398.6012      296.83449      4.4598745      0.14086178   
  67720000   499.30884      905.95653      1405.2654      294.79112     -0.81593128     0.14086178   
  67730000   470.16577      946.94781      1417.1136      308.12936      4.8198941      0.14086178   
  67740000   454.35071      933.71985      1388.0706      303.82508     -0.020487312    0.14086178   
  67750000   455.52865      964.52571      1420.0544      313.84907      6.7323815      0.14086178   
  67760000   488.14035      909.766        1397.9064      296.03069     -1.8679563      0.14086178   
  67770000   472.69781      967.57359      1440.2714      314.84082     -0.17070825     0.14086178   
  67780000   457.36234      920.58079      1377.9431      299.54974      7.2990329      0.14086178   
  67790000   492.20336      943.67143      1435.8748      307.06325      3.378917       0.14086178   
  67800000   498.12574      958.40384      1456.5296      311.85706     -3.8147562      0.14086178   
  67810000   466.07842      962.57179      1428.6502      313.21328      6.9794094      0.14086178   
  67820000   472.43003      918.13888      1390.5689      298.75516     -0.07730579     0.14086178   
  67830000   474.53047      870.1715       1344.702       283.14695      2.5282499      0.14086178   
  67840000   506.38316      942.56746      1448.9506      306.70403      0.69593973     0.14086178   
  67850000   479.82381      957.92027      1437.7441      311.69971     -0.76355245     0.14086178   
  67860000   466.55749      900.33295      1366.8904      292.96125     -1.096769       0.14086178   
  67870000   461.59199      874.33076      1335.9227      284.50034      2.1014771      0.14086178   
  67880000   447.25884      871.45987      1318.7187      283.56618      5.4234587      0.14086178   
  67890000   464.07944      945.34455      1409.424       307.60767      4.4887767      0.14086178   
  67900000   476.70701      936.96576      1413.6728      304.88128      1.0544486      0.14086178   
  67910000   459.77947      911.65126      1371.4307      296.64414      3.7875374      0.14086178   
  67920000   489.08366      938.06947      1427.1531      305.24042      6.4243632      0.14086178   
  67930000   446.86072      954.65122      1401.5119      310.63599      0.24890049     0.14086178   
  67940000   458.0198       941.55324      1399.573       306.37401      0.72367533     0.14086178   
  67950000   460.29026      901.82184      1362.1121      293.44572     -2.34905        0.14086178   
  67960000   500.14394      945.24037      1445.3843      307.57377      0.1673819      0.14086178   
  67970000   506.73159      923.30066      1430.0323      300.43476      6.6815122      0.14086178   
  67980000   483.11248      945.99802      1429.1105      307.8203      -6.1884935      0.14086178   
  67990000   489.76603      870.2971       1360.0631      283.18782      6.5206892      0.14086178   
  68000000   418.85597      922.58986      1341.4458      300.20347      1.785739       0.14086178   
  68010000   442.40053      881.57267      1323.9732      286.8568       6.7300931      0.14086178   
  68020000   503.48742      904.59087      1408.0783      294.34674     -2.3867346      0.14086178   
  68030000   490.67958      914.40494      1405.0845      297.54016      1.185998       0.14086178   
  68040000   472.93864      937.79548      1410.7341      305.15126      3.8313796      0.14086178   
