
# ===============================
# FORCE FIELD (same as original)
# ===============================
bond_style harmonic
bond_coeff 1 7.5 5.9

angle_style harmonic
angle_coeff 1 5.0 150.0

pair_style hybrid/overlay lj/cut 10.0 base/rna 18.0
pair_modify shift yes
pair_coeff * * lj/cut 2.0 8.9089871814

pair_coeff 1 1 base/rna 0.00000 3.0 13.8 1.5 0.5 1.8326 0.9425 1.8326 1.1345
pair_coeff 1 2 base/rna 0.00000 3.0 13.8 1.5 0.5 1.8326 0.9425 1.8326 1.1345
pair_coeff 1 3 base/rna 0.00000 3.0 13.8 1.5 0.5 1.8326 0.9425 1.8326 1.1345
pair_coeff 1 4 base/rna 3.33333 3.0 13.8 1.5 0.5 1.8326 0.9425 1.8326 1.1345
pair_coeff 2 2 base/rna 0.00000 3.0 13.8 1.5 0.5 1.8326 0.9425 1.8326 1.1345
pair_coeff 2 3 base/rna 5.00000 3.0 13.8 1.5 0.5 1.8326 0.9425 1.8326 1.1345
pair_coeff 2 4 base/rna 0.00000 3.0 13.8 1.5 0.5 1.8326 0.9425 1.8326 1.1345
pair_coeff 3 3 base/rna 0.00000 3.0 13.8 1.5 0.5 1.8326 0.9425 1.8326 1.1345
pair_coeff 3 4 base/rna 3.33333 3.0 13.8 1.5 0.5 1.8326 0.9425 1.8326 1.1345
pair_coeff 4 4 base/rna 0.00000 3.0 13.8 1.5 0.5 1.8326 0.9425 1.8326 1.1345

special_bonds lj 0.0 0.0 1.0
Finding 1-2 1-3 1-4 neighbors ...
  special bond factors lj:    0        0        1       
  special bond factors coul:  0        0        0       
     2 = max # of 1-2 neighbors
     2 = max # of 1-3 neighbors
     4 = max # of 1-4 neighbors
     6 = max # of special neighbors
  special bonds CPU = 0.000 seconds
neighbor 15.0 bin
neigh_modify every 10 delay 0
comm_style tiled
timestep 10

# ===============================
# 1. MINIMIZATION
# ===============================
minimize 1.0e-4 1.0e-6 1000 10000

CITE-CITE-CITE-CITE-CITE-CITE-CITE-CITE-CITE-CITE-CITE-CITE-CITE

Your simulation uses code contributions which should be cited:

- Type Label Framework: https://doi.org/10.1021/acs.jpcb.3c08419

@Article{Gissinger24,
 author = {Jacob R. Gissinger, Ilia Nikiforov, Yaser Afshar, Brendon Waters, Moon-ki Choi, Daniel S. Karls, Alexander Stukowski, Wonpil Im, Hendrik Heinz, Axel Kohlmeyer, and Ellad B. Tadmor},
 title = {Type Label Framework for Bonded Force Fields in LAMMPS},
 journal = {J. Phys. Chem. B},
 year =    2024,
 volume =  128,
 number =  13,
 pages =   {3282–-3297}
}

CITE-CITE-CITE-CITE-CITE-CITE-CITE-CITE-CITE-CITE-CITE-CITE-CITE

Switching to 'neigh_modify every 1 delay 0 check yes' setting during minimization
Generated 0 of 6 mixed pair_coeff terms from geometric mixing rule
Neighbor list info ...
  update: every = 1 steps, delay = 0 steps, check = yes
  max neighbors/atom: 2000, page size: 100000
  master list distance cutoff = 33
  ghost atom cutoff = 33
  binsize = 16.5, bins = 10 10 10
  2 neighbor lists, perpetual/occasional/extra = 2 0 0
  (1) pair lj/cut, perpetual, trim from (2)
      attributes: half, newton on, cut 25
      pair build: trim
      stencil: none
      bin: none
  (2) pair base/rna, perpetual
      attributes: half, newton on
      pair build: half/bin/newton
      stencil: half/bin/3d
      bin: standard
Per MPI rank memory allocation (min/avg/max) = 8.413 | 8.413 | 8.413 Mbytes
   Step          Temp          E_pair         E_mol          TotEng         Press     
         0   0              1.7511696e+10  1256.2471      1.7511698e+10  1.1726202e+09
      1000   0             -236.63037      8.4989274     -228.13144     -0.10910006   
Loop time of 0.327355 on 4 procs for 1000 steps with 532 atoms

98.2% CPU use with 4 MPI tasks x 1 OpenMP threads

Minimization stats:
  Stopping criterion = max iterations
  Energy initial, next-to-last, final = 
      17511697623.2282  -228.071229335815   -228.13144009209
  Force two-norm initial, final = 1.9993983e+11 1.7327177
  Force max component initial, final = 1.2072428e+11 0.42720258
  Final line search alpha, max atom move = 0.072871522 0.031130903
  Iterations, force evaluations = 1000 1570

MPI task timing breakdown:
Section |  min time  |  avg time  |  max time  |%varavg| %total
---------------------------------------------------------------
Pair    | 0.070578   | 0.14676    | 0.24717    |  16.6 | 44.83
Bond    | 0.012073   | 0.016577   | 0.021931   |   2.7 |  5.06
Neigh   | 0.0014158  | 0.0014538  | 0.0014917  |   0.1 |  0.44
Comm    | 0.040146   | 0.146      | 0.22675    |  17.6 | 44.60
Output  | 2.7222e-05 | 2.7996e-05 | 2.8799e-05 |   0.0 |  0.01
Modify  | 0          | 0          | 0          |   0.0 |  0.00
Other   |            | 0.01654    |            |       |  5.05

Nlocal:            133 ave         173 max          95 min
Histogram: 1 0 0 1 0 1 0 0 0 1
Nghost:            438 ave         457 max         415 min
Histogram: 1 0 0 1 0 0 0 0 1 1
Neighs:          796.5 ave        1285 max         335 min
Histogram: 1 0 0 0 2 0 0 0 0 1

Total # of neighbors = 3186
Ave neighs/atom = 5.9887218
Ave special neighs/atom = 4.8496241
Neighbor list builds = 6
Dangerous builds = 0
reset_timestep 0

# ===============================
# 2. OUTPUTS
# ===============================
dump d1 all custom 50000 outputs/${tag}.lammpstrj id mol type q xu yu zu
dump d1 all custom 50000 outputs/50ASO_unmod.lammpstrj id mol type q xu yu zu
dump_modify d1 sort id

thermo_style custom step pe ke etotal temp press density
thermo 10000
thermo_modify flush yes

variable vpe equal pe
variable vke equal ke
variable vT  equal temp
variable vE  equal etotal
variable vRg equal gyration(all)

fix favg all ave/time 10000 10 100000 v_vpe v_vke v_vT v_vE v_vRg     file outputs/thermo_${tag}_averaged.dat
fix favg all ave/time 10000 10 100000 v_vpe v_vke v_vT v_vE v_vRg     file outputs/thermo_50ASO_unmod_averaged.dat

# ===============================
# 3. EQUILIBRATION (NVT)
# ===============================
velocity all create ${T_target} 76244 rot yes dist gaussian
velocity all create 300 76244 rot yes dist gaussian

# Langevin thermostat for equilibration
fix fxlang all langevin ${T_target} ${T_target} 1000.0 74032
fix fxlang all langevin 300 ${T_target} 1000.0 74032
fix fxlang all langevin 300 300 1000.0 74032
fix fxnve  all nve
fix recenter all momentum 1000 linear 1 1 1

# Equilibration run
run 5000000
Generated 0 of 6 mixed pair_coeff terms from geometric mixing rule
Per MPI rank memory allocation (min/avg/max) = 7.303 | 7.304 | 7.304 Mbytes
   Step         PotEng         KinEng         TotEng          Temp          Press         Density    
         0  -228.13144      474.84304      246.7116       300            5.1902545      0.069368608  
     10000   146.18811      478.71724      624.90535      302.44767      3.351283       0.069368608  
     20000   157.00839      480.26017      637.26856      303.42247     -1.3497036      0.069368608  
     30000   150.61213      477.40191      628.01405      301.61666      2.0247594      0.069368608  
     40000   150.82844      489.50048      640.32892      309.26039      0.1532181      0.069368608  
     50000   173.60454      473.77388      647.37842      299.32452     -0.81462644     0.069368608  
     60000   167.92737      482.2468       650.17417      304.67761      4.9450583      0.069368608  
     70000   159.99363      466.02308      626.01671      294.42765      4.8864808      0.069368608  
     80000   127.50888      476.49487      604.00376      301.04361     -0.66152558     0.069368608  
     90000   143.56983      481.7929       625.36273      304.39084     -2.5726303      0.069368608  
    100000   139.74772      446.65249      586.4002       282.18955      3.0097751      0.069368608  
    110000   109.26299      456.04095      565.30394      288.12107      4.523596       0.069368608  
    120000   81.944902      508.62966      590.57456      321.34597     -2.1354638      0.069368608  
    130000   101.84347      457.01588      558.85935      288.73702      0.054592654    0.069368608  
    140000   105.83672      475.96784      581.80456      300.71063      1.562762       0.069368608  
    150000   109.13557      482.17892      591.3145       304.63472      0.77356199     0.069368608  
    160000   92.357731      484.43093      576.78866      306.05751      4.8889655      0.069368608  
    170000   122.6046       474.24986      596.85446      299.62524     -0.16897514     0.069368608  
    180000   121.00673      504.20293      625.20966      318.54922      2.6867134      0.069368608  
    190000   97.43394       481.36579      578.79973      304.12099     -3.098049       0.069368608  
    200000   103.60663      458.13931      561.74594      289.44679      0.79333551     0.069368608  
    210000   71.136023      476.73771      547.87373      301.19703      3.5900633      0.069368608  
    220000   93.447442      458.79604      552.24348      289.8617       2.3015605      0.069368608  
    230000   72.663374      474.4804       547.14377      299.77089      3.5430933      0.069368608  
    240000   56.980393      458.33393      515.31433      289.56975      4.0126254      0.069368608  
    250000   40.715379      440.92888      481.64425      278.57345     -2.109158       0.069368608  
    260000   56.965967      472.87768      529.84364      298.75831     -1.5364983      0.069368608  
    270000   70.453088      454.75835      525.21144      287.31074      3.5644344      0.069368608  
    280000   74.689438      457.52568      532.21511      289.0591      -1.4783683      0.069368608  
    290000   89.471926      478.34575      567.81768      302.21297     -0.97658751     0.069368608  
    300000   61.55426       494.02147      555.57573      312.1167      -1.2582257      0.069368608  
    310000   76.316512      463.69901      540.01552      292.95934      3.9591724      0.069368608  
    320000   98.208975      473.74995      571.95892      299.3094       4.0756877      0.069368608  
    330000   105.02589      458.95044      563.97632      289.95925     -4.3436064      0.069368608  
    340000   101.00077      490.41246      591.41324      309.83657      2.6804231      0.069368608  
    350000   70.741862      456.21974      526.9616       288.23403     -1.3945287      0.069368608  
    360000   66.835214      463.43019      530.26541      292.7895      -0.63555945     0.069368608  
    370000   56.923106      478.77558      535.69868      302.48453      0.36066319     0.069368608  
    380000   41.143179      477.16351      518.30669      301.46605     -0.11006525     0.069368608  
    390000   56.276107      475.7573       532.0334       300.57762     -0.17477173     0.069368608  
    400000   53.072721      452.17538      505.2481       285.67885     -0.63137453     0.069368608  
    410000   59.960138      475.52632      535.48646      300.43169     -0.25033694     0.069368608  
    420000   54.066478      449.62974      503.69622      284.07055      1.5469231      0.069368608  
    430000   28.040235      467.43448      495.47471      295.31936      1.0320683      0.069368608  
    440000   59.183185      475.92432      535.10751      300.68314      4.1210216      0.069368608  
    450000   59.85364       476.63322      536.48686      301.13101      5.383062       0.069368608  
    460000   61.367639      469.339        530.70664      296.52261     -3.3370689      0.069368608  
    470000   23.721536      475.58477      499.30631      300.46862      3.3084079      0.069368608  
    480000   55.154659      472.26449      527.41915      298.3709      -0.042121594    0.069368608  
    490000   58.080265      483.85675      541.93702      305.69475     -2.3811032      0.069368608  
    500000   62.712279      460.76326      523.47554      291.10457     -2.2797491      0.069368608  
    510000   40.110856      481.89416      522.00501      304.45481      1.4198128      0.069368608  
    520000   84.615652      475.63348      560.24913      300.49939     -3.2610365      0.069368608  
    530000   78.158128      459.36195      537.52008      290.21924     -0.96846421     0.069368608  
    540000   99.174206      444.61709      543.79129      280.90361     -2.1064581      0.069368608  
    550000   65.845549      479.31729      545.16284      302.82677     -2.0479516      0.069368608  
    560000   51.693743      479.11308      530.80682      302.69776      1.6209932      0.069368608  
    570000   12.513465      500.55602      513.06948      316.24514     -0.85176486     0.069368608  
    580000   50.101153      456.54674      506.6479       288.44062      4.5311594      0.069368608  
    590000   11.241227      496.27799      507.51922      313.54234      1.2513792      0.069368608  
    600000   24.296123      467.98369      492.27981      295.66635     -3.8677489      0.069368608  
    610000   44.747498      476.8811       521.62859      301.28762      1.3136862      0.069368608  
    620000   7.1448013      478.84152      485.98632      302.52619      7.0156706      0.069368608  
    630000   13.111626      494.78756      507.89919      312.6007      -0.40741335     0.069368608  
    640000   0.87926614     462.69022      463.56948      292.322       -3.3063024      0.069368608  
    650000  -11.012962      480.46414      469.45118      303.55134     -0.19716917     0.069368608  
    660000   22.426838      457.87524      480.30208      289.27995     -4.2117429      0.069368608  
    670000  -18.793348      466.73099      447.93764      294.8749       1.8255233      0.069368608  
    680000  -23.635108      475.7863       452.15119      300.59594      2.6594847      0.069368608  
    690000  -42.927244      472.71195      429.78471      298.6536      -1.0706363      0.069368608  
    700000  -30.576391      506.50038      475.92398      320.00072     -0.51599063     0.069368608  
    710000  -34.656274      461.96134      427.30507      291.8615       0.46448316     0.069368608  
    720000  -13.608599      499.30147      485.69287      315.45254     -1.2717088      0.069368608  
    730000  -28.942118      441.95245      413.01033      279.22013      0.0608703      0.069368608  
    740000  -21.117235      509.38661      488.26938      321.8242      -0.79135911     0.069368608  
    750000  -50.202394      476.21454      426.01215      300.8665       0.77516071     0.069368608  
    760000  -34.58918       477.6455       443.05632      301.77056     -3.0192455      0.069368608  
    770000  -22.336894      478.62776      456.29087      302.39114     -1.4538302      0.069368608  
    780000   8.5498038      501.95497      510.50477      317.12898     -1.1432128      0.069368608  
    790000  -27.549631      457.84879      430.29916      289.26324      3.4819707      0.069368608  
    800000   8.3450115      461.43367      469.77868      291.52812      2.3936478      0.069368608  
    810000   3.336139       481.21799      484.55412      304.02761      1.2836165      0.069368608  
    820000  -4.3348122      442.28874      437.95393      279.43259      2.9937         0.069368608  
    830000  -39.128         485.92994      446.80194      307.00457      3.6707606      0.069368608  
    840000  -9.439949       459.51301      450.07306      290.31467      3.304962       0.069368608  
    850000  -40.154354      472.87638      432.72202      298.75749     -2.8833064      0.069368608  
    860000   12.886239      517.71292      530.59916      327.08466     -1.174144       0.069368608  
    870000   27.449773      460.3036       487.75338      290.81416     -6.636866       0.069368608  
    880000   7.6309635      476.06159      483.69256      300.76987      0.83024591     0.069368608  
    890000   32.264925      485.42724      517.69216      306.68696      5.5818126      0.069368608  
    900000   23.55103       480.22238      503.77341      303.3986      -0.56025774     0.069368608  
    910000   27.262762      480.12339      507.38615      303.33606     -2.2614364      0.069368608  
    920000  -29.31816       479.47678      450.15862      302.92754      0.78453687     0.069368608  
    930000   19.754428      482.51196      502.26638      304.84513      2.6248364      0.069368608  
    940000   34.198898      485.28781      519.48671      306.59888      2.872429       0.069368608  
    950000   7.4814935      504.56692      512.04841      318.77918      3.2108564      0.069368608  
    960000   52.484703      462.88724      515.37195      292.44647      1.3272657      0.069368608  
    970000   46.798708      459.99614      506.79484      290.61991     -1.4942668      0.069368608  
    980000   35.343271      452.03906      487.38233      285.59272      0.59318786     0.069368608  
    990000   10.896708      488.87182      499.76853      308.86321      2.221109       0.069368608  
   1000000   36.227576      484.87232      521.0999       306.33638      3.5119789      0.069368608  
   1010000   51.058024      499.54197      550.59999      315.60448      3.7698613      0.069368608  
   1020000   6.7774374      505.40354      512.18097      319.30775      5.9305713      0.069368608  
   1030000  -18.828837      478.43737      459.60854      302.27086      0.67970668     0.069368608  
   1040000  -11.110329      488.7335       477.62317      308.77582     -1.1900224      0.069368608  
   1050000  -2.728097       477.55394      474.82584      301.71271      4.2143765      0.069368608  
   1060000   61.65656       474.30303      535.95959      299.65883     -3.4625576      0.069368608  
   1070000   29.242429      478.32457      507.567        302.19959      3.0180924      0.069368608  
   1080000   6.6757755      474.33596      481.01174      299.67963      1.1526409      0.069368608  
   1090000   11.012253      496.15475      507.167        313.46447     -0.51154057     0.069368608  
   1100000   2.1010661      454.47325      456.57432      287.13062     -1.6191365      0.069368608  
   1110000   5.0210419      458.21252      463.23356      289.49304     -0.8313787      0.069368608  
   1120000   16.728529      472.69463      489.42316      298.64266      1.6127809      0.069368608  
   1130000   20.458845      464.7606       485.21945      293.63004     -5.6859767      0.069368608  
   1140000  -16.309548      477.94691      461.63736      301.96099      0.1429139      0.069368608  
   1150000  -18.035686      490.36564      472.32996      309.80699      5.1390048      0.069368608  
   1160000   4.1645725      453.81407      457.97864      286.71415     -1.3130487      0.069368608  
   1170000  -12.512014      503.97425      491.46224      318.40474     -2.8265951      0.069368608  
   1180000  -6.9643441      458.8721       451.90776      289.90976     -0.52701895     0.069368608  
   1190000   16.28387       495.44354      511.72741      313.01514      1.2563073      0.069368608  
   1200000   0.68562774     460.73814      461.42377      291.0887      -2.0450631      0.069368608  
   1210000  -19.398727      473.90435      454.50562      299.40695     -1.4717714      0.069368608  
   1220000   19.285078      504.22719      523.51227      318.56454      1.8829279      0.069368608  
   1230000  -11.381431      441.76021      430.37878      279.09868     -1.6117237      0.069368608  
   1240000  -18.63524       467.26527      448.63003      295.21245     -2.3584961      0.069368608  
   1250000   31.132105      449.53013      480.66224      284.00762     -4.9274292      0.069368608  
   1260000  -7.0709927      450.94634      443.87534      284.90236     -1.0810853      0.069368608  
   1270000  -15.456198      479.2192       463.763        302.7648       0.52152009     0.069368608  
   1280000  -7.2996125      481.76685      474.46723      304.37437      0.38586807     0.069368608  
   1290000  -34.76643       488.33709      453.57066      308.52537      5.4255418      0.069368608  
   1300000  -13.631353      487.32202      473.69066      307.88406      3.0028557      0.069368608  
   1310000  -4.4851643      463.59928      459.11412      292.89633      0.61922754     0.069368608  
   1320000  -0.16800355     476.07902      475.91101      300.78087     -1.736525       0.069368608  
   1330000  -24.034582      488.98637      464.95179      308.93558      1.4302365      0.069368608  
   1340000  -22.786417      473.06597      450.27955      298.87727      3.6595263      0.069368608  
   1350000  -14.700048      475.50287      460.80282      300.41687      5.7762623      0.069368608  
   1360000  -22.229536      474.45117      452.22164      299.75242      0.014451145    0.069368608  
   1370000  -21.271748      493.7838       472.51206      311.96654     -0.11480057     0.069368608  
   1380000  -13.747175      498.5798       484.83263      314.9966       4.7768419      0.069368608  
   1390000   19.092822      470.93138      490.02421      297.52866     -2.6282729      0.069368608  
   1400000  -34.283347      492.97898      458.69563      311.45806      6.4098701      0.069368608  
   1410000  -55.79277       458.00976      402.21699      289.36494      5.5151188      0.069368608  
   1420000  -40.03224       468.61094      428.5787       296.06264      2.7429051      0.069368608  
   1430000  -14.681343      464.62713      449.94579      293.54572      1.1076006      0.069368608  
   1440000  -18.724119      474.1524       455.42829      299.56366      0.004920073    0.069368608  
   1450000  -48.561419      480.08256      431.52114      303.31027     -1.074484       0.069368608  
   1460000  -53.757673      463.50508      409.7474       292.83681      2.2124159      0.069368608  
   1470000  -9.4787636      492.14403      482.66526      310.93055      3.1739332      0.069368608  
   1480000   8.1600349      470.48204      478.64208      297.24478      0.56493615     0.069368608  
   1490000   5.1480197      451.4761       456.62412      285.23706     -3.2591466      0.069368608  
   1500000   4.2339922      494.63068      498.86467      312.50159     -2.0331772      0.069368608  
   1510000  -16.597383      461.11846      444.52108      291.32898      3.4031288      0.069368608  
   1520000  -17.29745       504.41575      487.1183       318.68367      1.3405749      0.069368608  
   1530000  -32.304305      444.9316       412.62729      281.10232      0.98837877     0.069368608  
   1540000  -17.395364      480.74253      463.34716      303.72722     -0.42587036     0.069368608  
   1550000  -17.900072      492.06449      474.16442      310.8803       3.8024613      0.069368608  
   1560000  -42.4301        490.6405       448.2104       309.98064      0.35996502     0.069368608  
   1570000  -58.132657      468.56692      410.43426      296.03482      3.9299082      0.069368608  
   1580000  -35.137019      474.57838      439.44136      299.83279     -0.8786603      0.069368608  
   1590000  -65.912788      476.24891      410.33613      300.88821     -2.5083268      0.069368608  
   1600000  -78.851454      494.89064      416.03919      312.66583      0.11522107     0.069368608  
   1610000  -80.095631      450.81906      370.72343      284.82195      2.8123804      0.069368608  
   1620000  -47.929719      471.772        423.84228      298.05975     -3.3029636      0.069368608  
   1630000  -70.777807      466.2942       395.51639      294.59895      3.2106551      0.069368608  
   1640000  -21.904072      464.43759      442.53352      293.42596      2.0797371      0.069368608  
   1650000  -28.019294      448.819        420.79971      283.55833      2.7225562      0.069368608  
   1660000  -35.064787      487.20558      452.14079      307.8105      -1.3075162      0.069368608  
   1670000  -84.86361       459.58208      374.71847      290.35831     -2.1156955      0.069368608  
   1680000  -96.750491      460.41171      363.66122      290.88246      5.6293761      0.069368608  
   1690000  -86.430806      482.08369      395.65288      304.57455     -1.8319152      0.069368608  
   1700000  -102.58207      486.32248      383.7404       307.25257      0.27812576     0.069368608  
   1710000  -72.096546      439.31841      367.22187      277.55598      4.1716036      0.069368608  
   1720000  -67.508697      480.29488      412.78618      303.4444      -5.183561       0.069368608  
   1730000  -78.801768      483.31007      404.5083       305.34936     -1.1650711      0.069368608  
   1740000  -68.532033      474.49         405.95797      299.77695     -2.3965923      0.069368608  
   1750000  -35.462711      460.16473      424.70202      290.72642     -1.2294752      0.069368608  
   1760000  -35.679516      455.19506      419.51554      287.58665     -5.0874421      0.069368608  
   1770000  -65.789262      471.06259      405.27333      297.61156     -3.0069484      0.069368608  
   1780000  -58.132757      455.24429      397.11153      287.61775     -1.1070715      0.069368608  
   1790000  -87.977543      498.71761      410.74007      315.08366      7.2959499      0.069368608  
   1800000  -127.16073      466.79019      339.62946      294.91231      1.1144863      0.069368608  
   1810000  -37.986174      469.21015      431.22398      296.44121      4.1642648      0.069368608  
   1820000  -42.843404      480.23758      437.39418      303.40821     -0.04264919     0.069368608  
   1830000  -63.806033      480.956        417.14997      303.86209     -1.4196439      0.069368608  
   1840000  -60.650515      488.81255      428.16204      308.82577      4.6809013      0.069368608  
   1850000  -57.716998      482.74667      425.02967      304.99341      3.4547195      0.069368608  
   1860000  -29.844359      470.03882      440.19446      296.96475     -1.0716176      0.069368608  
   1870000  -52.349016      482.04126      429.69225      304.54775      3.7530928      0.069368608  
   1880000  -60.784362      460.58247      399.79811      290.99035      1.305165       0.069368608  
   1890000  -100.50393      459.03777      358.53384      290.01442     -0.73288619     0.069368608  
   1900000  -48.504923      484.32677      435.82185      305.9917       1.6936349      0.069368608  
   1910000  -29.986548      493.57129      463.58474      311.83228     -1.7672573      0.069368608  
   1920000  -33.557129      490.82612      457.26899      310.09791      3.1714758      0.069368608  
   1930000  -60.300093      482.77502      422.47493      305.01133      2.1283343      0.069368608  
   1940000  -27.880718      468.62839      440.74767      296.07366      1.2621096      0.069368608  
   1950000  -19.546358      516.02376      496.4774       326.01747      7.199697       0.069368608  
   1960000  -28.93968       466.87932      437.93964      294.96862      2.4210726      0.069368608  
   1970000  -36.728498      437.5513       400.8228       276.43954     -0.37096538     0.069368608  
   1980000  -32.972422      494.30136      461.32894      312.29353      0.10723737     0.069368608  
   1990000  -30.01047       486.71806      456.70759      307.50249      3.0611754      0.069368608  
   2000000  -35.380685      484.5674       449.18672      306.14373     -1.8870995      0.069368608  
   2010000  -37.938469      483.0733       445.13483      305.19978     -2.6933566      0.069368608  
   2020000  -25.840233      489.97762      464.13739      309.56184      0.25008906     0.069368608  
   2030000   4.4778688      457.01821      461.49608      288.73849     -0.3016615      0.069368608  
   2040000  -1.2199386      478.5135       477.29356      302.31895      1.9966925      0.069368608  
   2050000  -37.188305      489.40993      452.22162      309.20318      1.4013173      0.069368608  
   2060000  -19.31012       474.12829      454.81817      299.54843     -3.4167521      0.069368608  
   2070000  -33.966875      489.47303      455.50615      309.24305     -1.0490467      0.069368608  
   2080000  -14.864735      505.82327      490.95853      319.57293     -1.6760713      0.069368608  
   2090000  -7.2522379      488.62127      481.36903      308.70491      2.1450289      0.069368608  
   2100000  -0.64760133     452.29025      451.64265      285.75143      0.98307636     0.069368608  
   2110000  -39.781761      484.65769      444.87593      306.20077      0.62865099     0.069368608  
   2120000   3.6830525      455.36886      459.05191      287.69645      3.4016078      0.069368608  
   2130000  -33.966563      476.80528      442.83872      301.23972     -4.6665323      0.069368608  
   2140000   24.639775      470.37683      495.01661      297.1783       0.87348052     0.069368608  
   2150000   6.9557848      445.56949      452.52527      281.50533     -2.1292033      0.069368608  
   2160000  -32.503413      469.73711      437.23369      296.77413     -1.4716659      0.069368608  
   2170000  -3.8028751      484.29668      480.49381      305.97269      0.24190201     0.069368608  
   2180000  -6.8643959      475.43286      468.56846      300.37264     -4.211115       0.069368608  
   2190000  -10.22625       458.50047      448.27422      289.67496      4.7366003      0.069368608  
   2200000  -2.986242       469.81316      466.82692      296.82218      1.4661439      0.069368608  
   2210000  -17.220253      485.59156      468.37131      306.79079      1.3906945      0.069368608  
   2220000  -30.771281      486.99189      456.22061      307.67549     -0.94589789     0.069368608  
   2230000  -12.987436      472.17589      459.18846      298.31493     -0.35610051     0.069368608  
   2240000  -22.614796      511.99882      489.38403      323.47457     -6.016813       0.069368608  
   2250000   5.5183954      459.60591      465.12431      290.37337     -3.8151988      0.069368608  
   2260000  -4.6491675      470.58026      465.93109      297.30683     -0.057340777    0.069368608  
   2270000  -19.567633      485.62665      466.05902      306.81295      2.1708278      0.069368608  
   2280000  -36.874681      482.02028      445.1456       304.53449     -0.27845973     0.069368608  
   2290000   1.9436149      482.16448      484.1081       304.6256      -0.1123591      0.069368608  
   2300000  -22.737167      477.83897      455.1018       301.89279      5.6281133      0.069368608  
   2310000  -11.121048      468.24221      457.12116      295.82967      0.1974999      0.069368608  
   2320000  -30.635571      486.77089      456.13532      307.53587      1.3836692      0.069368608  
   2330000  -19.754999      488.95644      469.20144      308.91667      2.3889577      0.069368608  
   2340000  -5.5038287      468.30196      462.79813      295.86743     -1.079788       0.069368608  
   2350000  -26.793197      462.82794      436.03474      292.40901      1.6217609      0.069368608  
   2360000  -12.88367       455.4974       442.61373      287.77766     -1.5937644      0.069368608  
   2370000   11.860733      476.17962      488.04035      300.84443     -1.1319694      0.069368608  
   2380000  -3.7238341      464.61659      460.89276      293.53905     -2.5665236      0.069368608  
   2390000  -61.417649      448.37654      386.95889      283.27879      0.51765746     0.069368608  
   2400000  -19.670834      465.57449      445.90365      294.14424     -3.2926856      0.069368608  
   2410000  -15.552038      488.79746      473.24543      308.81623      6.8117833      0.069368608  
   2420000   1.2783636      456.21507      457.49344      288.23108     -0.059535476    0.069368608  
   2430000  -7.3567182      479.75267      472.39595      303.10184      0.94516078     0.069368608  
   2440000  -8.0695311      462.98338      454.91385      292.50721     -0.54997779     0.069368608  
   2450000   14.391505      467.5662       481.9577       295.40258     -0.97366543     0.069368608  
   2460000  -14.468112      464.86995      450.40184      293.69913      5.8822294      0.069368608  
   2470000  -8.4391463      475.02755      466.58841      300.11657      3.535754       0.069368608  
   2480000  -6.4009657      449.9745       443.57353      284.28836      0.087379519    0.069368608  
   2490000  -10.553236      470.93857      460.38533      297.5332      -1.0175959      0.069368608  
   2500000  -27.400065      476.11278      448.71272      300.80221      2.2642073      0.069368608  
   2510000  -32.745519      455.12652      422.381        287.54334     -2.7368396      0.069368608  
   2520000  -0.5371297      476.18868      475.65155      300.85016     -1.1176845      0.069368608  
   2530000  -11.641483      507.37749      495.73601      320.55487     -2.403123       0.069368608  
   2540000   5.2946044      490.83976      496.13436      310.10653     -0.10478332     0.069368608  
   2550000  -27.831569      490.70297      462.8714       310.02011      3.1476017      0.069368608  
   2560000  -28.247101      491.40851      463.16141      310.46586     -1.6593802      0.069368608  
   2570000  -35.150177      461.28863      426.13846      291.43649      2.832145       0.069368608  
   2580000  -7.1711695      477.696        470.52484      301.80247     -2.4453479      0.069368608  
   2590000  -44.417097      450.06006      405.64297      284.34242     -2.3469687      0.069368608  
   2600000   22.762122      476.12766      498.88978      300.81161     -4.9172246      0.069368608  
   2610000  -24.313666      475.75141      451.43775      300.5739      -1.5130284      0.069368608  
   2620000  -62.825261      486.1025       423.27724      307.11359     -0.25177988     0.069368608  
   2630000  -6.1504889      468.74244      462.59195      296.14571      2.1741186      0.069368608  
   2640000  -22.207581      462.56857      440.36098      292.24514      0.29982665     0.069368608  
   2650000  -5.0512147      500.9813       495.93009      316.51383      1.8029782      0.069368608  
   2660000  -51.775481      465.26983      413.49435      293.95176     -3.9828396      0.069368608  
   2670000  -49.605267      456.38229      406.77702      288.33673     -4.6328102      0.069368608  
   2680000  -58.740051      472.62014      413.88009      298.5956       0.39341906     0.069368608  
   2690000  -53.317964      490.38622      437.06825      309.81999     -3.1100071      0.069368608  
   2700000  -25.375237      469.92079      444.54555      296.89018     -3.1262808      0.069368608  
   2710000  -45.70507       505.67322      459.96815      319.47813     -2.4621402      0.069368608  
   2720000  -14.970422      498.82137      483.85095      315.14921     -0.81274822     0.069368608  
   2730000   8.1754679      486.86413      495.0396       307.59478     -1.2885906      0.069368608  
   2740000   7.0240801      500.25614      507.28022      316.05568     -1.0997752      0.069368608  
   2750000   9.7671358      479.94623      489.71337      303.22413      1.4748029      0.069368608  
   2760000   1.0514746      480.87078      481.92225      303.80825      0.25186857     0.069368608  
   2770000  -28.982279      545.43344      516.45116      344.59815      2.4080069      0.069368608  
   2780000  -27.35814       484.27384      456.9157       305.95826     -2.1786417      0.069368608  
   2790000   5.78088        469.98333      475.76421      296.92969      0.44814694     0.069368608  
   2800000   11.426327      469.51856      480.94489      296.63606     -0.80244105     0.069368608  
   2810000  -27.63543       470.99059      443.35516      297.56607      2.5937911      0.069368608  
   2820000  -2.8790168      476.90179      474.02278      301.3007      -1.3505771      0.069368608  
   2830000  -31.704198      486.22116      454.51696      307.18855      5.2735132      0.069368608  
   2840000  -24.713692      496.08011      471.36642      313.41732      4.526938       0.069368608  
   2850000   18.260683      489.41328      507.67396      309.2053      -3.8988593      0.069368608  
   2860000   19.682101      454.79963      474.48173      287.33682      0.43223646     0.069368608  
   2870000  -4.8393545      471.01314      466.17379      297.58032     -0.14681049     0.069368608  
   2880000  -35.316913      454.92375      419.60684      287.41524      2.6527224      0.069368608  
   2890000  -21.636562      460.03002      438.39346      290.64132     -1.8860413      0.069368608  
   2900000  -30.402889      464.19538      433.79249      293.27294     -4.8931141      0.069368608  
   2910000  -41.563652      487.66622      446.10257      308.10153     -1.198979       0.069368608  
   2920000  -23.093104      452.83626      429.74316      286.09639     -2.6542884      0.069368608  
   2930000  -26.722076      456.53655      429.81448      288.43419     -2.2180407      0.069368608  
   2940000  -21.994691      514.93441      492.93972      325.32923      3.1549648      0.069368608  
   2950000  -30.418508      469.81999      439.40148      296.8265      -4.8449041      0.069368608  
   2960000  -19.779752      478.58072      458.80097      302.36142      4.8588688      0.069368608  
   2970000  -12.58605       452.77624      440.19019      286.05847      2.736792       0.069368608  
   2980000  -18.416844      470.54811      452.13127      297.28652      0.5151734      0.069368608  
   2990000  -79.934477      476.51601      396.58154      301.05696      3.5054741      0.069368608  
   3000000  -20.677518      476.29803      455.62051      300.91924     -0.74458933     0.069368608  
   3010000  -47.890726      466.85478      418.96405      294.95311      1.8896938      0.069368608  
   3020000  -60.191529      466.82869      406.63716      294.93663     -2.0909528      0.069368608  
   3030000  -39.278052      507.75536      468.47731      320.7936       1.8660412      0.069368608  
   3040000  -56.522473      473.6497       417.12722      299.24606     -4.2619438      0.069368608  
   3050000  -29.376305      458.28163      428.90533      289.5367      -2.8531803      0.069368608  
   3060000  -7.3764337      472.06216      464.68572      298.24307      3.6413478      0.069368608  
   3070000  -18.021159      472.13672      454.11556      298.29018     -0.21266246     0.069368608  
   3080000  -27.498798      449.22871      421.72991      283.81718      2.4402401      0.069368608  
   3090000  -12.316914      455.40711      443.09019      287.72062      1.687853       0.069368608  
   3100000  -19.54755       471.11412      451.56657      297.64411     -0.97451771     0.069368608  
   3110000  -39.948606      490.60639      450.65778      309.95909     -2.3894975      0.069368608  
   3120000   0.34685257     514.93298      515.27983      325.32833      0.59365691     0.069368608  
   3130000   6.1521903      454.30845      460.46064      287.0265       5.5531581      0.069368608  
   3140000  -8.4061726      483.96228      475.55611      305.76143      5.4143742      0.069368608  
   3150000   6.0377252      461.10349      467.14121      291.31952     -4.1718276      0.069368608  
   3160000   10.562478      474.33324      484.89571      299.67791      1.8744328      0.069368608  
   3170000   44.307279      464.17661      508.48389      293.26108      2.2203964      0.069368608  
   3180000   18.799497      455.49904      474.29854      287.7787      -0.89562992     0.069368608  
   3190000   40.926005      478.94269      519.86869      302.59011      3.3363385      0.069368608  
   3200000  -19.922686      472.86201      452.93933      298.74841     -2.3713484      0.069368608  
   3210000  -9.1235473      467.61051      458.48697      295.43058     -1.6467477      0.069368608  
   3220000   33.264443      451.65995      484.92439      285.35321     -1.7151822      0.069368608  
   3230000   14.829529      492.36406      507.19358      311.06956     -1.5339396      0.069368608  
   3240000   31.913652      483.22373      515.13739      305.29482     -1.2352077      0.069368608  
   3250000   9.0750275      459.03424      468.10927      290.0122      -0.067578216    0.069368608  
   3260000   19.756054      481.704        501.46005      304.33467      1.6826521      0.069368608  
   3270000   25.506825      469.57916      495.08598      296.67434      2.2300927      0.069368608  
   3280000   4.9554792      455.71042      460.6659       287.91225     -2.0493883      0.069368608  
   3290000   24.355449      454.55557      478.91102      287.18263     -1.7615036      0.069368608  
   3300000  -39.41924       466.96987      427.55063      295.02583      2.767717       0.069368608  
   3310000  -32.936483      466.23641      433.29992      294.56243      2.231827       0.069368608  
   3320000  -14.005288      481.70208      467.69679      304.33346      1.1732604      0.069368608  
   3330000  -13.986159      474.47796      460.4918       299.76935      1.9931755      0.069368608  
   3340000  -49.359905      473.04348      423.68358      298.86306      1.4225044      0.069368608  
   3350000  -27.922474      491.51132      463.58885      310.53081      2.9072714      0.069368608  
   3360000  -28.060142      499.88234      471.8222       315.81952      0.56417235     0.069368608  
   3370000  -20.743057      494.05357      473.31051      312.13698      1.1563103      0.069368608  
   3380000  -12.80819       468.22157      455.41338      295.81663      1.6246691      0.069368608  
   3390000  -62.365514      502.91087      440.54535      317.73291      2.300021       0.069368608  
   3400000  -0.23337757     514.09071      513.85733      324.79619      7.0945522      0.069368608  
   3410000  -52.105377      477.62001      425.51463      301.75445      0.41814023     0.069368608  
   3420000   23.791488      482.02336      505.81485      304.53644      3.7302837      0.069368608  
   3430000   0.71060468     481.39699      482.1076       304.14071      4.5199782      0.069368608  
   3440000  -5.0469361      493.91412      488.86719      312.04887      7.2479287      0.069368608  
   3450000  -13.196565      468.24377      455.0472       295.83066      0.88478764     0.069368608  
   3460000  -36.222344      478.35229      442.12995      302.2171      -3.2389977      0.069368608  
   3470000  -9.3209416      479.41821      470.09727      302.89054      2.0436916      0.069368608  
   3480000  -15.437787      476.27981      460.84202      300.90773     -1.5767663      0.069368608  
   3490000  -11.538632      466.69038      455.15174      294.84925      1.2313999      0.069368608  
   3500000  -21.002303      493.84154      472.83924      312.00302      0.21826234     0.069368608  
   3510000  -39.198328      490.9508       451.75247      310.17668      0.27852845     0.069368608  
   3520000   11.801805      455.7526       467.5544       287.93889     -2.0520165      0.069368608  
   3530000  -12.026821      485.20443      473.17761      306.5462      -3.4659358      0.069368608  
   3540000  -4.7717956      459.18127      454.40947      290.10508      1.2765784      0.069368608  
   3550000  -28.034061      452.26149      424.22742      285.73325     -2.1567496      0.069368608  
   3560000   0.21189619     468.5663       468.77819      296.03443      5.5104761      0.069368608  
   3570000   6.6289292      458.24721      464.87614      289.51496     -5.6272779      0.069368608  
   3580000  -27.947105      461.66613      433.71903      291.67499     -0.16074803     0.069368608  
   3590000  -8.954743       439.16003      430.20529      277.45591      0.39359613     0.069368608  
   3600000   13.713757      488.06106      501.77481      308.35098     -4.9804428      0.069368608  
   3610000   1.2037714      461.83365      463.03742      291.78082     -0.090222083    0.069368608  
   3620000  -20.080309      472.29706      452.21675      298.39148     -0.12384496     0.069368608  
   3630000  -24.469411      489.08529      464.61588      308.99808      1.8736223      0.069368608  
   3640000  -34.650374      453.96875      419.31838      286.81188      1.6011339      0.069368608  
   3650000  -10.070205      451.06052      440.99032      284.9745      -0.28315196     0.069368608  
   3660000  -33.57369       477.061        443.48731      301.40128     -1.3635215      0.069368608  
   3670000  -36.419217      462.30445      425.88524      292.07827     -1.0704586      0.069368608  
   3680000  -14.292584      481.07457      466.78198      303.937       -2.7743228      0.069368608  
   3690000   8.6949829      485.1182       493.81318      306.49172     -3.0770926      0.069368608  
   3700000  -37.212613      467.56059      430.34797      295.39903      1.5655299      0.069368608  
   3710000  -34.531369      504.14351      469.61215      318.51168     -4.3495127      0.069368608  
   3720000  -43.082571      478.40865      435.32608      302.25271      0.83677276     0.069368608  
   3730000  -44.88304       463.56701      418.68397      292.87594      0.5366393      0.069368608  
   3740000  -62.206983      499.49963      437.29265      315.57773     -2.5152571      0.069368608  
   3750000  -35.371932      474.45301      439.08108      299.75359     -1.9339897      0.069368608  
   3760000  -30.491496      461.66764      431.17615      291.67594      5.0936242      0.069368608  
   3770000  -61.703579      444.85224      383.14866      281.05218     -2.2336153      0.069368608  
   3780000  -53.829889      467.28647      413.45658      295.22585     -0.22098807     0.069368608  
   3790000  -12.290146      457.56166      445.27151      289.08183     -0.62898209     0.069368608  
   3800000  -6.3540695      463.89091      457.53684      293.08058     -2.0179363      0.069368608  
   3810000  -29.547735      465.3629       435.81517      294.01056      0.37364743     0.069368608  
   3820000  -29.351324      476.1361       446.78478      300.81694      1.6746599      0.069368608  
   3830000  -13.552202      474.82526      461.27305      299.98876     -1.1569389      0.069368608  
   3840000  -23.264613      485.61921      462.3546       306.80825     -0.94608404     0.069368608  
   3850000  -15.720888      464.27571      448.55483      293.32369      0.12385338     0.069368608  
   3860000  -17.650208      494.47457      476.82436      312.40296     -2.4994102      0.069368608  
   3870000  -3.7643855      446.1027       442.33831      281.8422       3.7175597      0.069368608  
   3880000  -32.049273      427.3946       395.34533      270.02266     -3.4189751      0.069368608  
   3890000  -26.626729      458.95488      432.32815      289.96206      2.7076271      0.069368608  
   3900000  -13.230705      458.11643      444.88573      289.43233      4.9363737      0.069368608  
   3910000  -42.595041      477.59688      435.00184      301.73984      4.4801469      0.069368608  
   3920000  -53.369834      493.7429       440.37306      311.9407      -0.47028142     0.069368608  
   3930000  -22.198142      460.63981      438.44167      291.02657     -1.3682954      0.069368608  
   3940000  -50.848099      502.1095       451.2614       317.22662      6.375953       0.069368608  
   3950000  -57.441625      510.17942      452.73779      322.32509     -0.96834076     0.069368608  
   3960000  -28.022232      477.93389      449.91166      301.95276      5.7439534      0.069368608  
   3970000  -36.174747      479.01859      442.84384      302.63806     -1.9406739      0.069368608  
   3980000  -44.209949      487.64844      443.43849      308.0903      -6.4102642      0.069368608  
   3990000   9.8771803      442.04242      451.9196       279.27697      0.85493778     0.069368608  
   4000000  -16.378214      480.93239      464.55418      303.84718     -4.5943197      0.069368608  
   4010000  -43.409007      462.70291      419.2939       292.33001     -1.542819       0.069368608  
   4020000  -36.101604      471.43438      435.33278      297.84645     -1.3431482      0.069368608  
   4030000  -64.428673      460.45519      396.02652      290.90993     -1.6221639      0.069368608  
   4040000  -41.13883       482.97236      441.83353      305.136        5.188226       0.069368608  
   4050000  -24.599146      445.92926      421.33012      281.73263     -0.22147348     0.069368608  
   4060000  -27.196948      441.45933      414.26238      278.90858      4.450995       0.069368608  
   4070000  -4.2755757      479.78629      475.51071      303.12308     -7.269475       0.069368608  
   4080000  -36.952166      480.21379      443.26162      303.39317      1.2921295      0.069368608  
   4090000  -32.924806      475.93083      443.00603      300.68725     -1.2675901      0.069368608  
   4100000  -51.629292      453.80646      402.17717      286.70935     -0.80193741     0.069368608  
   4110000  -46.581128      492.38936      445.80823      311.08555     -0.073146312    0.069368608  
   4120000  -67.026055      498.8279       431.80184      315.15334     -1.1669657      0.069368608  
   4130000  -36.250344      453.32766      417.07732      286.40685     -2.3708751      0.069368608  
   4140000  -49.4749        483.76006      434.28516      305.63366      7.7304826      0.069368608  
   4150000  -59.429493      487.06667      427.63718      307.72274     -2.7899041      0.069368608  
   4160000  -39.671652      474.18437      434.51272      299.58386      1.0580027      0.069368608  
   4170000   12.583174      446.34362      458.92679      281.99442     -5.691903       0.069368608  
   4180000   15.592337      475.56449      491.15683      300.45581      1.4875119      0.069368608  
   4190000  -20.28348       478.35534      458.07186      302.21903      1.8553234      0.069368608  
   4200000  -17.110279      474.22687      457.11659      299.61071     -3.3782773      0.069368608  
   4210000  -52.949227      468.29876      415.34953      295.8654       3.343511       0.069368608  
   4220000  -17.617987      481.65483      464.03684      304.3036       4.6813016      0.069368608  
   4230000  -33.162945      512.08496      478.92202      323.52899      4.2328996      0.069368608  
   4240000  -31.031054      454.86272      423.83166      287.37668      1.846262       0.069368608  
   4250000  -47.164789      459.72436      412.55957      290.4482       0.56391498     0.069368608  
   4260000  -53.796519      481.93643      428.13991      304.48152      0.54392053     0.069368608  
   4270000  -9.2148512      455.585        446.37015      287.83301      2.7340551      0.069368608  
   4280000  -40.933584      497.26384      456.33026      314.16519      4.3757591      0.069368608  
   4290000  -1.7558144      470.20628      468.45047      297.07055      0.94729512     0.069368608  
   4300000  -29.734854      451.97388      422.23903      285.55155     -1.2349213      0.069368608  
   4310000  -37.820913      471.49464      433.67372      297.88452      1.129382       0.069368608  
   4320000  -10.449074      459.50902      449.05994      290.31215     -1.8064429      0.069368608  
   4330000  -30.211013      473.02605      442.81504      298.85205     -1.0465358      0.069368608  
   4340000  -46.112194      475.95567      429.84348      300.70295      4.3483797      0.069368608  
   4350000  -37.697209      462.31712      424.61992      292.08628     -3.1490228      0.069368608  
   4360000  -69.518262      473.82481      404.30655      299.35669     -3.6666733      0.069368608  
   4370000  -52.757042      464.55384      411.79679      293.49941     -4.5962127      0.069368608  
   4380000  -76.602165      447.16232      370.56016      282.51166     -2.0391244      0.069368608  
   4390000  -29.561545      462.59964      433.0381       292.26477     -1.4190966      0.069368608  
   4400000  -16.627344      456.85215      440.2248       288.63358      4.1184925      0.069368608  
   4410000  -16.63186       514.54335      497.91149      325.08216      2.4912858      0.069368608  
   4420000  -31.495983      461.23869      429.74271      291.40494     -1.673777       0.069368608  
   4430000  -47.924989      487.89819      439.97321      308.24809      0.98966014     0.069368608  
   4440000  -70.832069      457.60136      386.7693       289.10692      0.86849112     0.069368608  
   4450000  -29.720262      465.50363      435.78337      294.09947      4.2244964      0.069368608  
   4460000  -32.773931      474.6174       441.84347      299.85744      2.6016097      0.069368608  
   4470000  -35.55282       484.26021      448.70739      305.94965      3.5592475      0.069368608  
   4480000  -61.479141      481.06498      419.58584      303.93095      3.1049018      0.069368608  
   4490000  -15.653211      494.20154      478.54833      312.23046      0.8625427      0.069368608  
   4500000  -37.624021      449.45243      411.82841      283.95852     -1.6164218      0.069368608  
   4510000  -14.700437      485.19111      470.49067      306.53778      3.5194445      0.069368608  
   4520000  -14.692553      464.49712      449.80457      293.46358     -0.81809803     0.069368608  
   4530000   9.365249       461.12469      470.48994      291.33292      3.6832456      0.069368608  
   4540000  -21.154702      477.76653      456.61183      301.84703      1.9523914      0.069368608  
   4550000   12.187748      475.64457      487.83232      300.5064       2.1728871      0.069368608  
   4560000  -9.0520338      468.28185      459.22982      295.85472      1.0992313      0.069368608  
   4570000   14.698055      475.87974      490.57779      300.65497     -9.293234       0.069368608  
   4580000   26.955884      506.37175      533.32764      319.91945      7.097323       0.069368608  
   4590000  -21.871621      493.68399      471.81237      311.90348      0.63315335     0.069368608  
   4600000   49.850866      483.6212       533.47207      305.54593     -2.5543217      0.069368608  
   4610000  -21.448379      478.55183      457.10345      302.34317     -0.73534709     0.069368608  
   4620000  -10.393557      463.37303      452.97948      292.75339     -0.39603036     0.069368608  
   4630000   3.9463286      466.72544      470.67177      294.8714      -0.50226995     0.069368608  
   4640000   2.0740896      486.72704      488.80113      307.50816      2.3910942      0.069368608  
   4650000  -9.8188267      496.84451      487.02568      313.90026      3.3911619      0.069368608  
   4660000   44.135366      494.65366      538.78903      312.51611      0.99211583     0.069368608  
   4670000  -1.5164638      478.66022      477.14376      302.41165     -0.5207382      0.069368608  
   4680000  -9.0043557      487.32013      478.31577      307.88287      0.55388599     0.069368608  
   4690000   30.123968      471.09671      501.22068      297.63311     -3.0643217      0.069368608  
   4700000  -1.9495889      479.65864      477.70905      303.04244     -3.417188       0.069368608  
   4710000   3.7509733      439.58034      443.33132      277.72146      2.185387       0.069368608  
   4720000   38.335145      493.57936      531.9145       311.83738     -1.1005247      0.069368608  
   4730000  -7.3943202      453.94838      446.55406      286.79901      0.2590268      0.069368608  
   4740000  -22.481296      491.89382      469.41252      310.77247     -1.7342693      0.069368608  
   4750000  -12.003261      463.39217      451.38891      292.76548     -0.17244225     0.069368608  
   4760000  -0.33921511     520.35542      520.01621      328.75416     -6.6579457      0.069368608  
   4770000  -35.999618      475.91893      439.91931      300.67973      3.8008915      0.069368608  
   4780000  -1.3455882      448.4783       447.13271      283.34308      5.0267041      0.069368608  
   4790000  -5.6679923      477.6739       472.00591      301.7885       0.48753753     0.069368608  
   4800000  -29.597413      479.13494      449.53752      302.71157     -2.9366974      0.069368608  
   4810000  -18.863879      502.30975      483.44587      317.35313      2.3967967      0.069368608  
   4820000  -21.869921      490.21874      468.34882      309.71418     -1.0560568      0.069368608  
   4830000  -40.952106      464.1584       423.20629      293.24957      5.8267442      0.069368608  
   4840000  -21.69601       484.64609      462.95008      306.19345      4.8411715      0.069368608  
   4850000  -13.139368      492.25027      479.11091      310.99768      3.1060784      0.069368608  
   4860000  -28.242383      488.30631      460.06393      308.50593      1.106015       0.069368608  
   4870000  -15.815488      471.38927      455.57378      297.81795     -6.5260966      0.069368608  
   4880000  -36.077335      486.82224      450.7449       307.56831      0.24839564     0.069368608  
   4890000  -39.697362      501.00452      461.30716      316.5285       2.0750955      0.069368608  
   4900000  -17.671469      469.39593      451.72446      296.55858      4.7013899      0.069368608  
   4910000  -49.56239       508.49818      458.93579      321.2629      -0.79878906     0.069368608  
   4920000  -43.583373      478.34211      434.75874      302.21067      1.3807778      0.069368608  
   4930000  -58.851751      466.40746      407.55571      294.67051     -1.8488389      0.069368608  
   4940000  -42.179906      503.94269      461.76278      318.3848      -2.5365055      0.069368608  
   4950000  -61.137316      484.24953      423.11221      305.9429       1.6012621      0.069368608  
   4960000  -49.478584      469.5432       420.06461      296.65162     -0.3447115      0.069368608  
   4970000  -42.913721      488.0591       445.14538      308.34974      5.2959738      0.069368608  
   4980000  -38.544598      448.08237      409.53777      283.09294      0.46642111     0.069368608  
   4990000  -10.412483      513.33735      502.92486      324.32023     -3.0849713      0.069368608  
   5000000  -52.53431       497.40982      444.87551      314.25741      0.5844139      0.069368608  
Loop time of 914.597 on 4 procs for 5000000 steps with 532 atoms

Performance: 4723.391 ns/day, 0.005 hours/ns, 5466.888 timesteps/s, 2.908 Matom-step/s
99.6% CPU use with 4 MPI tasks x 1 OpenMP threads

MPI task timing breakdown:
Section |  min time  |  avg time  |  max time  |%varavg| %total
---------------------------------------------------------------
Pair    | 412.1      | 523.9      | 634.61     | 452.9 | 57.28
Bond    | 30.288     | 39.898     | 47.852     | 114.2 |  4.36
Neigh   | 1.752      | 1.7792     | 1.8063     |   1.8 |  0.19
Comm    | 208.32     | 326.61     | 449.4      | 621.3 | 35.71
Output  | 0.064687   | 0.087984   | 0.15263    |  12.6 |  0.01
Modify  | 16.332     | 18.526     | 21.134     |  45.1 |  2.03
Other   |            | 3.794      |            |       |  0.41

Nlocal:            133 ave         177 max          97 min
Histogram: 1 1 0 0 0 0 1 0 0 1
Nghost:            427 ave         463 max         381 min
Histogram: 1 0 0 0 1 0 0 1 0 1
Neighs:         1060.5 ave        1469 max         671 min
Histogram: 1 1 0 0 0 0 0 0 1 1

Total # of neighbors = 4242
Ave neighs/atom = 7.9736842
Ave special neighs/atom = 4.8496241
Neighbor list builds = 9337
Dangerous builds = 0

# ===============================
# 4. PRODUCTION
# ===============================
# Reset averages for production
unfix favg
fix favg all ave/time 10000 10 100000 v_vpe v_vke v_vT v_vE v_vRg     file outputs/thermo_${tag}_production.dat
fix favg all ave/time 10000 10 100000 v_vpe v_vke v_vT v_vE v_vRg     file outputs/thermo_50ASO_unmod_production.dat

restart 10000000 outputs/backup_${tag}.*.restart
restart 10000000 outputs/backup_50ASO_unmod.*.restart
run 100000000
Generated 0 of 6 mixed pair_coeff terms from geometric mixing rule
Per MPI rank memory allocation (min/avg/max) = 8.579 | 8.713 | 8.847 Mbytes
   Step         PotEng         KinEng         TotEng          Temp          Press         Density    
   5000000  -52.53431       497.40982      444.87551      314.25741      0.5844139      0.069368608  
   5010000  -15.62638       466.56799      450.94161      294.77192      4.8678873      0.069368608  
   5020000  -36.297197      489.68768      453.39049      309.37866      3.1193466      0.069368608  
   5030000  -30.012395      492.22358      462.21118      310.98081     -1.1904015      0.069368608  
   5040000  -44.960164      512.40162      467.44145      323.72905      2.5778469      0.069368608  
   5050000  -14.973731      485.07488      470.10115      306.46435      0.45455509     0.069368608  
   5060000  -19.766096      513.45949      493.69339      324.3974       0.12909173     0.069368608  
   5070000  -67.246022      485.15516      417.90914      306.51507     -3.4115649      0.069368608  
   5080000  -42.964819      472.84615      429.88133      298.73839      4.4440076      0.069368608  
   5090000  -32.005079      508.57234      476.56726      321.30975     -2.4188693      0.069368608  
   5100000  -28.6394        474.8638       446.2244       300.01311      3.9044871      0.069368608  
   5110000  -32.145429      473.83605      441.69063      299.3638      -1.0109238      0.069368608  
   5120000  -0.77340161     488.17219      487.39879      308.42119     -0.56463111     0.069368608  
   5130000   14.575104      511.99611      526.57121      323.47285      5.1841342      0.069368608  
   5140000   13.081695      444.83277      457.91446      281.03988      3.0336203      0.069368608  
   5150000  -17.575705      486.52884      468.95313      307.38294      4.6054753      0.069368608  
   5160000  -4.8388971      513.27242      508.43353      324.27921      2.2567428      0.069368608  
   5170000  -13.065899      469.70054      456.63464      296.75103     -0.15696468     0.069368608  
   5180000  -25.731657      495.40757      469.67592      312.99242     -1.4244166      0.069368608  
   5190000  -44.794729      481.9194       437.12467      304.47076      4.2350991      0.069368608  
   5200000  -45.465995      464.38491      418.91892      293.39268      0.51908927     0.069368608  
   5210000   1.215632       472.86156      474.07719      298.74813      1.854936       0.069368608  
   5220000  -6.4814713      446.47549      439.99402      282.07773      0.40609704     0.069368608  
   5230000   1.7688102      501.34072      503.10953      316.74091      0.79575909     0.069368608  
   5240000  -18.00339       451.97136      433.96797      285.54995     -2.8919262      0.069368608  
   5250000  -1.6580834      462.14147      460.48338      291.9753       5.3844923      0.069368608  
   5260000  -21.488917      493.2481       471.75918      311.62809      0.26248521     0.069368608  
   5270000  -30.810672      463.39932      432.58865      292.77         4.0421743      0.069368608  
   5280000  -14.543156      474.56518      460.02203      299.82445      5.0646252      0.069368608  
   5290000  -18.761828      451.83692      433.0751       285.46502     -6.5780514      0.069368608  
   5300000   32.871677      489.41997      522.29165      309.20953     -1.2279161      0.069368608  
   5310000   7.5145311      490.35859      497.87312      309.80253      4.6938706      0.069368608  
   5320000  -29.167838      473.81318      444.64534      299.34935     -1.3917536      0.069368608  
   5330000  -42.785882      461.49674      418.71086      291.56797     -2.0119027      0.069368608  
   5340000  -4.8903616      499.31332      494.42295      315.46002      4.6745805      0.069368608  
   5350000   10.917164      452.94972      463.86688      286.16807     -2.9652084      0.069368608  
   5360000  -18.13743       453.99921      435.86178      286.83112      0.93064515     0.069368608  
   5370000  -23.326904      478.86242      455.53552      302.53939     -1.3135507      0.069368608  
   5380000  -9.5499951      477.15724      467.60724      301.46208     -1.758633       0.069368608  
   5390000  -26.433821      461.72049      435.28667      291.70934      4.6716356      0.069368608  
   5400000  -3.3367118      462.06155      458.72484      291.92481     -0.83277494     0.069368608  
   5410000  -39.684422      471.40999      431.72557      297.83104      1.3087996      0.069368608  
   5420000  -69.565098      421.89152      352.32642      266.54588     -3.6180609      0.069368608  
   5430000  -12.879467      496.13402      483.25455      313.45138      0.11828132     0.069368608  
   5440000  -50.58116       483.07835      432.49719      305.20297     -4.1325292      0.069368608  
   5450000  -84.13213       452.1463       368.01417      285.66048      0.95254534     0.069368608  
   5460000  -49.032876      456.75934      407.72646      288.57494      2.841687       0.069368608  
   5470000  -53.087057      482.82672      429.73966      305.04399     -1.2103921      0.069368608  
   5480000  -71.016938      484.07017      413.05323      305.82959      3.5626576      0.069368608  
   5490000  -60.936652      478.74316      417.8065       302.46405     -1.497264       0.069368608  
   5500000  -70.434391      462.25952      391.82513      292.04989      4.9432759      0.069368608  
   5510000  -42.217784      486.226        444.00821      307.19161      1.8963878      0.069368608  
   5520000  -38.851657      499.88869      461.03703      315.82353      2.5136245      0.069368608  
   5530000  -78.609821      485.18471      406.57489      306.53374     -3.8141376      0.069368608  
   5540000  -65.697217      490.82738      425.13016      310.09871     -4.6058734      0.069368608  
   5550000  -33.312362      476.54095      443.22859      301.07272     -1.3044616      0.069368608  
   5560000  -62.579526      511.99112      449.41159      323.4697      -0.49276203     0.069368608  
   5570000  -58.804213      458.50158      399.69736      289.67566      3.8063492      0.069368608  
   5580000  -57.196668      449.82745      392.63078      284.19546      0.7771642      0.069368608  
   5590000  -41.596642      473.21509      431.61845      298.97148     -1.3294277      0.069368608  
   5600000   8.9368162      487.09221      496.02902      307.73887     -7.5042356      0.069368608  
   5610000  -15.423652      464.08459      448.66094      293.20294      0.10906142     0.069368608  
   5620000  -25.659666      468.08234      442.42268      295.72867     -0.34569415     0.069368608  
   5630000  -28.741985      477.50343      448.76145      301.6808       2.8550335      0.069368608  
   5640000  -18.070439      489.39477      471.32433      309.1936       0.094832011    0.069368608  
   5650000  -8.0971061      455.10643      447.00932      287.53065      5.3442786      0.069368608  
   5660000  -13.539583      459.38667      445.84709      290.23486     -2.3634398      0.069368608  
   5670000  -14.244959      436.7169       422.47194      275.91237     -1.5551978      0.069368608  
   5680000   21.967137      459.68194      481.64908      290.42141      1.4832718      0.069368608  
   5690000   18.994132      484.51796      503.51209      306.11249     -3.6681802      0.069368608  
   5700000  -9.8948285      471.34858      461.45375      297.79224      5.2830743      0.069368608  
   5710000  -42.533497      450.10468      407.57118      284.37061     -2.8376305      0.069368608  
   5720000  -35.15242       488.72495      453.57253      308.77042     -4.5939874      0.069368608  
   5730000  -9.2749481      490.7021       481.42716      310.01956      4.3092623      0.069368608  
   5740000  -19.776631      465.37866      445.60202      294.02052     -2.5045671      0.069368608  
   5750000  -49.168438      451.38075      402.21231      285.17681      3.5688843      0.069368608  
   5760000  -25.704444      461.93574      436.23129      291.84532     -3.5407468      0.069368608  
   5770000   0.28572942     474.04353      474.32926      299.49488      3.662529       0.069368608  
   5780000  -8.5402226      458.99761      450.45739      289.98905      5.9570948      0.069368608  
   5790000  -18.747177      481.75831      463.01113      304.36898      4.618624       0.069368608  
   5800000  -15.439005      493.4029       477.9639       311.72589      0.87453897     0.069368608  
   5810000  -1.6723926      453.49265      451.82026      286.51109      0.63012961     0.069368608  
   5820000  -10.443643      488.07866      477.63502      308.3621       3.855072       0.069368608  
   5830000  -5.7394849      458.43396      452.69448      289.63295     -2.8922008      0.069368608  
   5840000  -23.672626      457.7745       434.10187      289.21631     -4.7648204      0.069368608  
   5850000  -31.896925      465.84931      433.95238      294.31787      3.4207076      0.069368608  
   5860000  -37.495722      452.55858      415.06286      285.92095     -2.4163818      0.069368608  
   5870000  -23.650914      470.52043      446.86951      297.26903      1.0424959      0.069368608  
   5880000  -10.482128      509.19684      498.71472      321.70431     -0.62203901     0.069368608  
   5890000  -34.835451      465.58817      430.75272      294.15289     -0.63245231     0.069368608  
   5900000  -9.5808601      479.04678      469.46592      302.65587     -0.21832119     0.069368608  
   5910000  -12.358498      484.45165      472.09315      306.0706      -0.2871348      0.069368608  
   5920000   17.324252      489.73791      507.06216      309.4104       5.6515771      0.069368608  
   5930000   13.38318       478.00476      491.38794      301.99754     -0.096496225    0.069368608  
   5940000   45.121463      473.95908      519.08054      299.44152     -2.3401466      0.069368608  
   5950000   1.4502515      465.15734      466.60759      293.88069     -3.4131235      0.069368608  
   5960000   20.955287      466.41958      487.37486      294.67816      0.87595795     0.069368608  
   5970000   23.697993      469.49994      493.19794      296.6243       3.9406131      0.069368608  
   5980000   37.930428      495.167        533.09743      312.84043     -0.94221874     0.069368608  
   5990000   37.013089      503.44078      540.45386      318.0677      -0.10658007     0.069368608  
   6000000   16.453277      449.41467      465.86795      283.93467      2.822466       0.069368608  
   6010000  -5.4616307      507.81499      502.35336      320.83127      1.3472919      0.069368608  
   6020000  -1.2539844      445.80424      444.55026      281.65364     -0.90266835     0.069368608  
   6030000  -19.344481      465.6034       446.25892      294.16251     -0.71482882     0.069368608  
   6040000   43.242243      466.52048      509.76272      294.74191     -2.5932913      0.069368608  
   6050000   27.790158      478.72636      506.51652      302.45343     -1.2622385      0.069368608  
   6060000  -8.2426746      494.10855      485.86587      312.17171      1.8304774      0.069368608  
   6070000  -30.48974       478.55623      448.06649      302.34594     -1.7599205      0.069368608  
   6080000  -18.946266      486.76013      467.81387      307.52907      2.9834402      0.069368608  
   6090000  -4.6603443      445.27539      440.61505      281.31952     -1.0592028      0.069368608  
   6100000  -0.20283061     484.71249      484.50965      306.23539      0.0030220275   0.069368608  
   6110000  -4.5024622      471.60417      467.1017       297.95372      0.0090110336   0.069368608  
   6120000   6.8491561      485.08806      491.93721      306.47267      1.7029114      0.069368608  
   6130000  -33.557562      493.13134      459.57378      311.55432     -1.3639745      0.069368608  
   6140000  -21.909056      482.53184      460.62279      304.85769     -3.3182085      0.069368608  
   6150000  -25.460251      474.31879      448.85854      299.66878      2.7228568      0.069368608  
   6160000  -19.785992      489.05674      469.27074      308.98004      1.5036063      0.069368608  
   6170000  -66.196354      503.90193      437.70558      318.35905      1.7862483      0.069368608  
   6180000  -46.536467      469.85708      423.32061      296.84993      1.265713       0.069368608  
   6190000  -62.803071      470.47273      407.66966      297.23889     -2.4175056      0.069368608  
   6200000  -49.727071      474.37555      424.64848      299.70465     -3.542308       0.069368608  
   6210000  -28.813113      436.35078      407.53767      275.68107     -1.6179246      0.069368608  
   6220000  -35.974426      491.79709      455.82266      310.71136      0.48671783     0.069368608  
   6230000  -34.033376      492.50926      458.47588      311.1613       6.637134       0.069368608  
   6240000  -25.888242      489.13057      463.24232      309.02668      0.10891343     0.069368608  
   6250000  -54.143221      469.0272       414.88398      296.32562     -2.1438693      0.069368608  
   6260000  -37.062513      510.86288      473.80037      322.75689      5.3115053      0.069368608  
   6270000   0.10504832     483.18283      483.28787      305.26897      2.7217414      0.069368608  
   6280000  -46.464921      493.4144       446.94948      311.73316      3.197078       0.069368608  
   6290000  -26.189352      480.77165      454.5823       303.74562     -1.1183947      0.069368608  
   6300000  -57.24522       478.75824      421.51302      302.47358      5.5394048      0.069368608  
   6310000  -24.873494      470.29112      445.41762      297.12415      0.45260054     0.069368608  
   6320000  -25.649324      458.75138      433.10206      289.83349      0.75445363     0.069368608  
   6330000  -40.679032      462.03519      421.35616      291.90816     -4.5647424      0.069368608  
   6340000  -26.79427       468.91415      442.11988      296.2542      -1.040025       0.069368608  
   6350000  -43.031445      464.18736      421.15591      293.26787     -2.6622916      0.069368608  
   6360000  -27.887515      466.37215      438.48464      294.6482       4.1688458      0.069368608  
   6370000  -50.189029      472.72707      422.53804      298.66315     -3.0177637      0.069368608  
   6380000  -13.097837      492.20866      479.11083      310.97139     -3.7772226      0.069368608  
   6390000  -10.350804      445.82115      435.47035      281.66433      0.41622651     0.069368608  
   6400000  -7.6605055      469.89454      462.23403      296.8736      -2.2261107      0.069368608  
   6410000  -45.41545       481.81076      436.39531      304.40212      0.41702525     0.069368608  
   6420000  -11.805174      463.24549      451.44031      292.67281     -1.1438212      0.069368608  
   6430000  -38.054561      492.68619      454.63163      311.27308     -1.7371377      0.069368608  
   6440000  -53.360174      482.12283      428.76265      304.59928      6.0042059      0.069368608  
   6450000  -28.049087      499.48342      471.43433      315.56749     -2.6920641      0.069368608  
   6460000  -23.471932      511.01711      487.54518      322.85433      4.1861071      0.069368608  
   6470000  -61.651935      489.34503      427.69309      309.16218      1.3076714      0.069368608  
   6480000  -12.377096      507.59105      495.21395      320.68979      0.89888215     0.069368608  
   6490000  -87.95476       485.00113      397.04637      306.41775      3.746167       0.069368608  
   6500000  -51.778219      486.55962      434.7814       307.40239      2.9127475      0.069368608  
   6510000  -33.865852      488.03304      454.16719      308.33328      7.2635141      0.069368608  
   6520000  -68.196064      512.24303      444.04697      323.62886      2.8000387      0.069368608  
   6530000  -98.804047      484.20376      385.39971      305.91399     -1.1335124      0.069368608  
   6540000  -65.889644      482.8348       416.94516      305.04909      3.1294543      0.069368608  
   6550000  -61.157919      452.95573      391.79781      286.17187     -4.5290521      0.069368608  
   6560000  -23.724873      462.22115      438.49628      292.02565      4.0413871      0.069368608  
   6570000  -41.900145      473.07554      431.17539      298.88331     -1.2381593      0.069368608  
   6580000  -49.245868      446.74802      397.50215      282.24991      1.4661688      0.069368608  
   6590000  -85.110705      486.71508      401.60438      307.50061     -1.1478058      0.069368608  
   6600000  -35.984797      492.51255      456.52776      311.16338     -1.0240811      0.069368608  
   6610000  -19.551513      484.48707      464.93555      306.09298      1.6233249      0.069368608  
   6620000  -64.132543      475.70108      411.56854      300.5421       2.2542538      0.069368608  
   6630000  -77.547319      508.24774      430.70042      321.10468      1.5752211      0.069368608  
   6640000  -62.511012      466.85745      404.34644      294.9548      -4.8192481      0.069368608  
   6650000  -50.337919      538.34401      488.00609      340.11913      2.0573331      0.069368608  
   6660000  -72.364214      502.40879      430.04458      317.4157      -2.4824828      0.069368608  
   6670000  -39.364976      471.24063      431.87565      297.72404     -5.1653741      0.069368608  
   6680000  -54.826628      505.03026      450.20363      319.07192      1.6925753      0.069368608  
   6690000  -54.797868      465.48557      410.68771      294.08807     -3.0389229      0.069368608  
   6700000  -50.830894      493.3465       442.5156       311.69026      2.2178475      0.069368608  
   6710000  -33.090933      485.8864       452.79547      306.97706      0.16091426     0.069368608  
   6720000  -54.790639      481.89595      427.10531      304.45594      0.87527565     0.069368608  
   6730000  -62.817979      456.4882       393.67022      288.40364      2.3404516      0.069368608  
   6740000  -42.199319      478.3882       436.18888      302.23979      3.4268533      0.069368608  
   6750000  -65.434765      465.59729      400.16252      294.15865     -3.2817026      0.069368608  
   6760000  -57.505906      457.55911      400.05321      289.08023     -1.7010121      0.069368608  
   6770000  -60.497675      488.86028      428.36261      308.85592      4.240024       0.069368608  
   6780000  -32.200505      476.46501      444.26451      301.02474     -1.0379587      0.069368608  
   6790000  -36.382301      500.41917      464.03687      316.15869      3.9493812      0.069368608  
   6800000  -28.470697      464.58062      436.10992      293.51633     -0.50885388     0.069368608  
   6810000  -27.026286      490.06978      463.0435       309.62007     -1.146541       0.069368608  
   6820000  -87.586773      479.05106      391.46429      302.65858     -0.81250521     0.069368608  
   6830000  -37.404319      450.68328      413.27896      284.73616      4.9679095      0.069368608  
   6840000  -82.807264      459.46827      376.66101      290.28641      2.9434373      0.069368608  
   6850000  -34.908843      462.99462      428.08578      292.51432      3.8215634      0.069368608  
   6860000  -23.446131      469.53752      446.09139      296.64804      3.5108056      0.069368608  
   6870000  -75.287355      457.14011      381.85276      288.81551     -3.0281373      0.069368608  
   6880000  -7.6068321      471.85295      464.24611      298.11089      0.71811717     0.069368608  
   6890000  -57.691774      496.64754      438.95577      313.77582     -2.553185       0.069368608  
   6900000  -49.63545       468.44879      418.81334      295.96019      4.4739521      0.069368608  
   6910000  -8.1997794      456.02896      447.82918      288.1135      -3.5178961      0.069368608  
   6920000  -19.40595       457.32081      437.91486      288.92967     -1.4887508      0.069368608  
   6930000  -16.338423      466.33465      449.99622      294.6245      -2.8665558      0.069368608  
   6940000  -5.9890947      487.90792      481.91882      308.25423      4.0507102      0.069368608  
   6950000  -30.782602      487.29314      456.51054      307.86582     -0.024960343    0.069368608  
   6960000  -13.899358      475.97167      462.07231      300.71305      1.2369511      0.069368608  
   6970000  -23.793741      468.65149      444.85775      296.08826      4.7899909      0.069368608  
   6980000  -24.87592       443.62049      418.74457      280.27398      2.6671136      0.069368608  
   6990000  -29.66116       467.90154      438.24038      295.61444     -2.2062379      0.069368608  
   7000000  -47.007235      490.56253      443.55529      309.93138     -1.3788889      0.069368608  
   7010000  -48.195117      485.62474      437.42963      306.81175      0.34273818     0.069368608  
[...]
  77750000  -44.3007        458.04177      413.74107      289.38516     -2.1758153      0.069368608  
  77760000  -57.802273      449.91347      392.1112       284.2498      -1.0689972      0.069368608  
  77770000  -67.48067       500.29005      432.80938      316.07711     -4.4721605      0.069368608  
  77780000  -61.291014      451.81306      390.52205      285.44994     -4.2050267      0.069368608  
  77790000  -78.006595      481.52653      403.51993      304.22254     -3.5634986      0.069368608  
  77800000  -65.68992       497.17079      431.48087      314.1064       1.9608447      0.069368608  
  77810000  -53.869144      481.09999      427.23085      303.95307      2.8488275      0.069368608  
  77820000  -45.463366      490.55392      445.09055      309.92594      1.6592653      0.069368608  
  77830000  -38.988374      479.84348      440.85511      303.15922     -7.3806121      0.069368608  
  77840000  -71.835923      472.39278      400.55685      298.45195      1.9551579      0.069368608  
  77850000  -82.849906      488.67781      405.82791      308.74064     -4.0840218      0.069368608  
  77860000  -35.928852      475.42031      439.49146      300.36471     -2.0017389      0.069368608  
  77870000  -86.539265      461.95973      375.42047      291.86048      0.89684802     0.069368608  
  77880000  -73.079         454.76634      381.68734      287.31579      6.5066891      0.069368608  
  77890000  -82.643301      455.78634      373.14304      287.96021      3.6106995      0.069368608  
  77900000  -98.077784      460.67242      362.59464      291.04718     -2.0487285      0.069368608  
  77910000  -40.097531      492.30284      452.20531      311.03089     -2.7359612      0.069368608  
  77920000  -97.807623      504.11367      406.30605      318.49282      5.3854049      0.069368608  
  77930000  -72.428841      478.61716      406.18832      302.38444      2.1619296      0.069368608  
  77940000  -53.663057      488.64182      434.97877      308.7179      -1.7295728      0.069368608  
  77950000  -76.156738      468.64324      392.48651      296.08304      6.2407229      0.069368608  
  77960000  -78.797415      487.35703      408.55961      307.90618      2.9429774      0.069368608  
  77970000  -24.981815      446.12135      421.13953      281.85399     -0.1812799      0.069368608  
  77980000  -35.747929      463.16903      427.4211       292.6245       2.1359514      0.069368608  
  77990000  -48.306646      455.12362      406.81697      287.54151     -0.24773657     0.069368608  
  78000000  -54.921739      474.18713      419.26539      299.5856       7.6508155      0.069368608  
  78010000  -40.006027      465.82912      425.82309      294.30512      0.78749622     0.069368608  
  78020000  -29.091228      481.56897      452.47774      304.24936     -0.026470892    0.069368608  
  78030000  -58.717294      466.52033      407.80303      294.74181     -1.9736323      0.069368608  
  78040000  -36.357321      473.50431      437.14699      299.15421     -1.6087204      0.069368608  
  78050000  -67.226424      466.67619      399.44976      294.84028     -3.6565107      0.069368608  
  78060000  -36.735805      467.18298      430.44718      295.16047      4.8392306      0.069368608  
  78070000  -60.769135      479.87183      419.10269      303.17712     -0.10578215     0.069368608  
  78080000  -72.987718      466.16694      393.17922      294.51855     -1.1302418      0.069368608  
  78090000  -39.862715      477.26732      437.4046       301.53163      8.4305697      0.069368608  
  78100000  -30.857079      489.36221      458.50513      309.17303     -0.64254627     0.069368608  
  78110000  -10.83167       445.22986      434.39819      281.29076     -0.14988582     0.069368608  
  78120000  -30.832649      476.53135      445.6987       301.06665     -0.03455969     0.069368608  
  78130000  -29.630604      458.46453      428.83392      289.65226      0.29250785     0.069368608  
  78140000  -21.694761      514.55067      492.85591      325.08679      5.8992667      0.069368608  
  78150000   6.4683164      487.2179       493.68622      307.81829      4.8956402      0.069368608  
  78160000  -10.524664      462.38312      451.85846      292.12797     -3.0794559      0.069368608  
  78170000   12.48894       472.60633      485.09527      298.58687      1.4866798      0.069368608  
  78180000  -34.601846      474.75045      440.1486       299.9415       1.5519692      0.069368608  
  78190000  -22.967063      454.91252      431.94545      287.40814     -5.5020162      0.069368608  
  78200000  -4.4542768      467.32449      462.87021      295.24987     -0.67092807     0.069368608  
  78210000  -32.903797      442.47841      409.57462      279.55243      1.2568314      0.069368608  
  78220000  -12.721679      499.29235      486.57067      315.44677     -0.54218147     0.069368608  
  78230000  -19.232691      442.33648      423.10379      279.46276     -4.1169557      0.069368608  
  78240000  -26.358254      455.35002      428.99176      287.68455     -2.1845597      0.069368608  
  78250000  -31.643009      463.82377      432.18076      293.03816     -1.4172759      0.069368608  
  78260000   8.6144697      484.11753      492.732        305.85951      3.4824571      0.069368608  
  78270000  -12.352043      457.88367      445.53163      289.28528     -4.6203889      0.069368608  
  78280000   24.873513      453.60641      478.47993      286.58296      5.3133349      0.069368608  
  78290000  -6.7352765      502.22896      495.49368      317.30209     -2.3188463      0.069368608  
  78300000   1.7983873      481.92964      483.72803      304.47723      0.24330379     0.069368608  
  78310000  -13.846813      491.08829      477.24147      310.26355     -0.6617831      0.069368608  
  78320000  -4.823799       482.76418      477.94038      305.00448      9.0755468      0.069368608  
  78330000  -11.585612      474.2031       462.61749      299.59569      3.0356063      0.069368608  
  78340000  -1.3144736      464.66561      463.35114      293.57003      0.622185       0.069368608  
  78350000  -30.930856      468.7092       437.77835      296.12472      3.8505919      0.069368608  
  78360000  -32.105197      457.70263      425.59743      289.1709       0.5040445      0.069368608  
  78370000  -39.187382      466.31531      427.12793      294.61229     -0.036602933    0.069368608  
  78380000  -35.297793      442.89573      407.59793      279.81608      0.88365621     0.069368608  
  78390000  -44.450918      465.83187      421.38095      294.30685     -2.9276912      0.069368608  
  78400000  -2.534379       480.36325      477.82887      303.4876      -1.3576221      0.069368608  
  78410000   21.257628      488.17227      509.4299       308.42124     -1.3825673      0.069368608  
  78420000   8.8954211      472.6466       481.54202      298.61231      2.1887254      0.069368608  
  78430000  -21.209627      483.81553      462.6059       305.66871      1.7074763      0.069368608  
  78440000  -24.794581      464.11516      439.32057      293.22225      2.0310725      0.069368608  
  78450000  -6.4882219      477.3711       470.88288      301.5972      -2.3479616      0.069368608  
  78460000  -22.740218      476.17605      453.43584      300.84218     -3.0177834      0.069368608  
  78470000  -27.321286      490.47997      463.15869      309.87922     -1.9470908      0.069368608  
  78480000  -2.1732373      477.14075      474.96752      301.45167     -1.9804433      0.069368608  
  78490000  -17.743093      479.80751      462.06442      303.13649      3.6812877      0.069368608  
  78500000   9.5038907      472.83009      482.33398      298.72824      2.7746622      0.069368608  
  78510000   12.584536      479.03348      491.61802      302.64747      1.5616928      0.069368608  
  78520000  -25.045874      472.49413      447.44826      298.51599      0.84315516     0.069368608  
  78530000  -59.668142      484.51513      424.84699      306.11071     -0.30740165     0.069368608  
  78540000  -28.618727      494.3698       465.75107      312.33677      3.371637       0.069368608  
  78550000  -56.366192      481.81294      425.44675      304.4035       4.21745        0.069368608  
  78560000  -32.65543       466.67652      434.02109      294.84049      3.2360793      0.069368608  
  78570000  -43.636406      471.83298      428.19657      298.09828      1.6300033      0.069368608  
  78580000  -21.135703      495.54505      474.40935      313.07928      0.71536784     0.069368608  
  78590000  -53.762539      499.00742      445.24488      315.26676     -1.206658       0.069368608  
  78600000  -13.044582      454.7103       441.66572      287.28038     -2.6658558      0.069368608  
  78610000  -35.714425      503.66982      467.9554       318.21241      2.5871683      0.069368608  
  78620000   0.35611781     448.27274      448.62886      283.21321     -2.0520013      0.069368608  
  78630000  -27.253493      483.66931      456.41582      305.57633      0.52982821     0.069368608  
  78640000  -21.352676      466.1122       444.75952      294.48396     -4.0161777      0.069368608  
  78650000  -19.674217      474.64781      454.9736       299.87666     -4.1972406      0.069368608  
  78660000  -35.31673       467.60294      432.28621      295.42579     -0.61030735     0.069368608  
  78670000   11.713967      467.16764      478.8816       295.15077      1.8061802      0.069368608  
  78680000  -13.426369      480.46523      467.03886      303.55203      4.1339862      0.069368608  
  78690000  -2.3736627      473.1419       470.76824      298.92524     -3.153041       0.069368608  
  78700000  -3.9034571      486.27765      482.3742       307.22425     -1.0567598      0.069368608  
  78710000  -36.467182      459.47081      423.00363      290.28801      4.084772       0.069368608  
  78720000  -19.607033      470.66767      451.06063      297.36205     -0.35774357     0.069368608  
  78730000  -35.680676      482.87347      447.1928       305.07353      3.2856326      0.069368608  
  78740000   1.7784052      503.0919       504.87031      317.84728     -1.2652725      0.069368608  
  78750000  -5.9089595      475.4243       469.51534      300.36723      3.8207879      0.069368608  
  78760000   7.8714638      476.79987      484.67133      301.2363       4.1113366      0.069368608  
  78770000  -2.5033492      512.76102      510.25767      323.95611      3.9835653      0.069368608  
  78780000   30.836518      442.78946      473.62598      279.74894     -0.83955453     0.069368608  
  78790000   0.46913923     491.73982      492.20896      310.67518     -3.7830851      0.069368608  
  78800000  -36.61479       473.54695      436.93216      299.18115     -1.5553879      0.069368608  
  78810000   15.265646      478.63467      493.90031      302.3955      -2.8201493      0.069368608  
  78820000   17.60285       472.37884      489.98169      298.44315     -0.81008612     0.069368608  
  78830000  -20.975952      515.77236      494.79641      325.85864      4.575918       0.069368608  
  78840000  -11.893497      486.5995       474.706        307.42759     -0.26662207     0.069368608  
  78850000   19.609014      461.1616       480.77061      291.35623      1.8092542      0.069368608  
  78860000   0.54058601     481.60293      482.14351      304.27081     -2.1425331      0.069368608  
  78870000   4.2063972      480.71981      484.92621      303.71287     -1.2207856      0.069368608  
  78880000  -1.2499378      488.8758       487.62586      308.86572     -1.5766126      0.069368608  
  78890000   6.8299557      493.41409      500.24404      311.73296      3.3150751      0.069368608  
  78900000   14.294153      464.34982      478.64397      293.37051      0.96175002     0.069368608  
  78910000  -16.993445      465.34854      448.3551       294.00149     -5.57562        0.069368608  
  78920000  -23.665595      461.45477      437.78917      291.54145      2.5992773      0.069368608  
  78930000  -12.575558      511.11678      498.54122      322.9173      -5.7347245      0.069368608  
  78940000  -10.9336        475.53594      464.60234      300.43777      2.9559424      0.069368608  
  78950000  -32.922385      458.16198      425.2396       289.46111      3.184265       0.069368608  
  78960000   7.6371621      476.84851      484.48567      301.26703      1.9928412      0.069368608  
  78970000  -0.024278811    465.54875      465.52447      294.12798      3.3303707      0.069368608  
  78980000  -20.648062      468.55112      447.90305      296.02484      0.55119873     0.069368608  
  78990000  -3.9853998      498.83396      494.84856      315.15717     -1.7933238      0.069368608  
  79000000   18.880154      477.51244      496.3926       301.68649     -1.9923116      0.069368608  
  79010000  -13.727218      493.06682      479.3396       311.51356     -4.0496449      0.069368608  
  79020000   13.267154      504.42951      517.69666      318.69236      0.1349985      0.069368608  
  79030000  -17.258011      450.77707      433.51906      284.79542     -0.033730093    0.069368608  
  79040000  -38.444423      479.37623      440.9318       302.86401     -2.5859433      0.069368608  
  79050000  -10.509201      455.93161      445.42241      288.05199      0.23553463     0.069368608  
  79060000  -48.484012      474.39925      425.91523      299.71962      3.5485318      0.069368608  
  79070000  -11.541693      516.9821       505.44041      326.62294     -1.4171341      0.069368608  
  79080000   0.82408062     480.77869      481.60277      303.75007     -0.54252613     0.069368608  
  79090000   3.889973       452.59267      456.48265      285.94249      3.2035964      0.069368608  
  79100000  -6.4049299      479.023        472.61807      302.64084      3.6492885      0.069368608  
  79110000   18.685718      496.10446      514.79018      313.4327      -5.6228399      0.069368608  
  79120000  -23.614821      498.47265      474.85783      314.9289       0.57206251     0.069368608  
  79130000  -27.194096      476.16864      448.97454      300.8375      -4.6376064      0.069368608  
  79140000  -29.143292      454.94315      425.79986      287.42749     -0.61395286     0.069368608  
  79150000  -27.728698      477.75991      450.03121      301.84284     -3.3922244      0.069368608  
  79160000   18.454207      478.45484      496.90904      302.28189      3.8516767      0.069368608  
  79170000   9.4058534      455.54946      464.95531      287.81055      2.1386962      0.069368608  
  79180000   37.183881      469.01589      506.19977      296.31848     -2.0473637      0.069368608  
  79190000  -16.096778      499.79124      483.69447      315.76197      1.1466728      0.069368608  
  79200000  -0.024822757    477.15566      477.13084      301.46109      4.0244586      0.069368608  
  79210000  -32.97439       501.17702      468.20263      316.63748      5.130488       0.069368608  
  79220000  -38.247634      480.60687      442.35923      303.64151      0.34661434     0.069368608  
  79230000  -11.431015      476.66588      465.23487      301.15165      1.4096369      0.069368608  
  79240000  -28.427995      460.67477      432.24677      291.04866      4.2229404      0.069368608  
  79250000  -6.9768262      501.10212      494.1253       316.59017      1.2935918      0.069368608  
  79260000  -40.011797      472.98351      432.97171      298.82517     -0.10872205     0.069368608  
  79270000  -28.371212      449.89805      421.52684      284.24006     -1.2591241      0.069368608  
  79280000  -66.432053      491.12273      424.69068      310.28531      1.7830917      0.069368608  
  79290000  -36.058609      498.94576      462.88716      315.2278      -4.458858       0.069368608  
  79300000  -39.425532      473.54271      434.11717      299.17846     -2.2266443      0.069368608  
  79310000  -64.58806       491.54415      426.95609      310.55156      2.3397378      0.069368608  
  79320000  -71.588294      488.51765      416.92935      308.63945      1.3172768      0.069368608  
  79330000  -37.115807      475.89645      438.78064      300.66553      4.3792395      0.069368608  
  79340000   16.298085      486.22435      502.52244      307.19057      1.001373       0.069368608  
  79350000   14.668023      489.80305      504.47107      309.45155      1.7001121      0.069368608  
  79360000  -19.280611      462.94158      443.66097      292.4808       5.973927       0.069368608  
  79370000  -6.7161205      468.66591      461.94979      296.09737      0.16396634     0.069368608  
  79380000  -29.387799      474.89814      445.51034      300.03481      0.42414028     0.069368608  
  79390000   5.8187108      492.82918      498.64789      311.36342     -0.45699506     0.069368608  
  79400000  -1.7672169      469.30606      467.53884      296.5018       2.6908542      0.069368608  
  79410000  -2.7728723      462.66731      459.89444      292.30752      1.9782794      0.069368608  
  79420000  -46.788093      467.90348      421.11539      295.61567      9.4994254      0.069368608  
  79430000  -21.486206      458.54861      437.0624       289.70538      0.005795628    0.069368608  
  79440000  -37.473559      477.85323      440.37967      301.9018       0.43572241     0.069368608  
  79450000  -1.052212       456.73111      455.6789       288.55711      2.058729       0.069368608  
  79460000  -37.582698      475.58133      437.99863      300.46644     -2.7843384      0.069368608  
  79470000   17.402046      483.60457      501.00662      305.53543      0.63024434     0.069368608  
  79480000  -0.56712375     464.27471      463.70759      293.32306     -0.42198624     0.069368608  
  79490000   1.5365042      464.84316      466.37966      293.6822      -3.946343       0.069368608  
  79500000  -13.516521      482.97095      469.45443      305.13511     -3.6490661      0.069368608  
  79510000   6.4895277      465.81692      472.30644      294.29741     -2.8392845      0.069368608  
  79520000   1.8127274      458.93987      460.75259      289.95257      3.5721451      0.069368608  
  79530000  -4.8962657      449.93251      445.03624      284.26183     -0.3386002      0.069368608  
  79540000   21.984066      465.78196      487.76602      294.27532      1.8091837      0.069368608  
  79550000   1.5619428      470.45334      472.01528      297.22664      0.64422314     0.069368608  
  79560000  -28.312118      456.64962      428.3375       288.50562     -2.3064842      0.069368608  
  79570000  -19.486076      463.69191      444.20583      292.95485     -6.2982906      0.069368608  
  79580000  -28.918042      486.32901      457.41096      307.25669     -1.1624224      0.069368608  
  79590000   14.490126      477.84682      492.33695      301.89775      0.56988494     0.069368608  
  79600000   18.801472      517.71086      536.51234      327.08336     -0.88745822     0.069368608  
  79610000   6.3442926      480.6169       486.96119      303.64785     -3.6301299      0.069368608  
  79620000  -19.256901      505.68059      486.42369      319.48278     -3.5920727      0.069368608  
  79630000  -34.828977      483.15117      448.3222       305.24898      4.523922       0.069368608  
  79640000  -5.6426688      474.1554       468.51273      299.56556      1.5888117      0.069368608  
  79650000   4.752023       504.8901       509.64213      318.98336      3.9534655      0.069368608  
  79660000  -8.2053829      437.31353      429.10815      276.28932      2.5882925      0.069368608  
  79670000   8.9068217      493.44539      502.35221      311.75274      1.213467       0.069368608  
  79680000  -39.303759      465.90147      426.59771      294.35083      4.897434       0.069368608  
  79690000   14.207479      478.61499      492.82246      302.38307      1.8674166      0.069368608  
  79700000   12.654207      479.40815      492.06236      302.88418      0.33960168     0.069368608  
