
# ===============================
# FORCE FIELD (same as original)
# ===============================
bond_style harmonic
bond_coeff 1 7.5 5.9

angle_style harmonic
angle_coeff 1 5.0 150.0

pair_style hybrid/overlay lj/cut 10.0 base/rna 18.0
pair_modify shift yes
pair_coeff * * lj/cut 2.0 8.9089871814

pair_coeff 1 1 base/rna 0.00000 3.0 13.8 1.5 0.5 1.8326 0.9425 1.8326 1.1345
pair_coeff 1 2 base/rna 0.00000 3.0 13.8 1.5 0.5 1.8326 0.9425 1.8326 1.1345
pair_coeff 1 3 base/rna 0.00000 3.0 13.8 1.5 0.5 1.8326 0.9425 1.8326 1.1345
pair_coeff 1 4 base/rna 3.33333 3.0 13.8 1.5 0.5 1.8326 0.9425 1.8326 1.1345
pair_coeff 2 2 base/rna 0.00000 3.0 13.8 1.5 0.5 1.8326 0.9425 1.8326 1.1345
pair_coeff 2 3 base/rna 5.00000 3.0 13.8 1.5 0.5 1.8326 0.9425 1.8326 1.1345
pair_coeff 2 4 base/rna 0.00000 3.0 13.8 1.5 0.5 1.8326 0.9425 1.8326 1.1345
pair_coeff 3 3 base/rna 0.00000 3.0 13.8 1.5 0.5 1.8326 0.9425 1.8326 1.1345
pair_coeff 3 4 base/rna 3.33333 3.0 13.8 1.5 0.5 1.8326 0.9425 1.8326 1.1345
pair_coeff 4 4 base/rna 0.00000 3.0 13.8 1.5 0.5 1.8326 0.9425 1.8326 1.1345

special_bonds lj 0.0 0.0 1.0
Finding 1-2 1-3 1-4 neighbors ...
  special bond factors lj:    0        0        1       
  special bond factors coul:  0        0        0       
     2 = max # of 1-2 neighbors
     2 = max # of 1-3 neighbors
     4 = max # of 1-4 neighbors
     6 = max # of special neighbors
  special bonds CPU = 0.000 seconds
neighbor 15.0 bin
neigh_modify every 10 delay 0
comm_style tiled
timestep 10

# ===============================
# 1. MINIMIZATION
# ===============================
minimize 1.0e-4 1.0e-6 1000 10000

CITE-CITE-CITE-CITE-CITE-CITE-CITE-CITE-CITE-CITE-CITE-CITE-CITE

Your simulation uses code contributions which should be cited:

- Type Label Framework: https://doi.org/10.1021/acs.jpcb.3c08419

@Article{Gissinger24,
 author = {Jacob R. Gissinger, Ilia Nikiforov, Yaser Afshar, Brendon Waters, Moon-ki Choi, Daniel S. Karls, Alexander Stukowski, Wonpil Im, Hendrik Heinz, Axel Kohlmeyer, and Ellad B. Tadmor},
 title = {Type Label Framework for Bonded Force Fields in LAMMPS},
 journal = {J. Phys. Chem. B},
 year =    2024,
 volume =  128,
 number =  13,
 pages =   {3282–-3297}
}

CITE-CITE-CITE-CITE-CITE-CITE-CITE-CITE-CITE-CITE-CITE-CITE-CITE

Switching to 'neigh_modify every 1 delay 0 check yes' setting during minimization
Generated 0 of 6 mixed pair_coeff terms from geometric mixing rule
Neighbor list info ...
  update: every = 1 steps, delay = 0 steps, check = yes
  max neighbors/atom: 2000, page size: 100000
  master list distance cutoff = 33
  ghost atom cutoff = 33
  binsize = 16.5, bins = 10 10 10
  2 neighbor lists, perpetual/occasional/extra = 2 0 0
  (1) pair lj/cut, perpetual, trim from (2)
      attributes: half, newton on, cut 25
      pair build: trim
      stencil: none
      bin: none
  (2) pair base/rna, perpetual
      attributes: half, newton on
      pair build: half/bin/newton
      stencil: half/bin/3d
      bin: standard
Per MPI rank memory allocation (min/avg/max) = 8.423 | 8.424 | 8.424 Mbytes
   Step          Temp          E_pair         E_mol          TotEng         Press     
         0   0              1.0225691e+11  2470.137       1.0225691e+11  6.847313e+09 
      1000   0             -445.17553      20.355847     -424.81968     -0.90882806   
Loop time of 0.58121 on 4 procs for 1000 steps with 1032 atoms

99.2% CPU use with 4 MPI tasks x 1 OpenMP threads

Minimization stats:
  Stopping criterion = max iterations
  Energy initial, next-to-last, final = 
      102256910352.721  -424.699901428249   -424.81968379091
  Force two-norm initial, final = 9.986321e+11 1.6620483
  Force max component initial, final = 4.8859359e+11 0.32825497
  Final line search alpha, max atom move = 0.13565053 0.04452796
  Iterations, force evaluations = 1000 1434

MPI task timing breakdown:
Section |  min time  |  avg time  |  max time  |%varavg| %total
---------------------------------------------------------------
Pair    | 0.37699    | 0.42221    | 0.50129    |   7.2 | 72.64
Bond    | 0.027189   | 0.028938   | 0.030324   |   0.7 |  4.98
Neigh   | 0.0031219  | 0.0031284  | 0.0031351  |   0.0 |  0.54
Comm    | 0.033007   | 0.11409    | 0.15917    |  14.2 | 19.63
Output  | 2.5619e-05 | 2.6203e-05 | 2.7286e-05 |   0.0 |  0.00
Modify  | 0          | 0          | 0          |   0.0 |  0.00
Other   |            | 0.01282    |            |       |  2.21

Nlocal:            258 ave         269 max         233 min
Histogram: 1 0 0 0 0 0 0 0 1 2
Nghost:         838.25 ave         858 max         818 min
Histogram: 1 0 0 0 1 0 1 0 0 1
Neighs:        2560.25 ave        2957 max        2208 min
Histogram: 1 0 0 1 0 1 0 0 0 1

Total # of neighbors = 10241
Ave neighs/atom = 9.9234496
Ave special neighs/atom = 4.8255814
Neighbor list builds = 6
Dangerous builds = 0
reset_timestep 0

# ===============================
# 2. OUTPUTS
# ===============================
dump d1 all custom 50000 outputs/${tag}.lammpstrj id mol type q xu yu zu
dump d1 all custom 50000 outputs/100ASO_mismatch_G6A_unmodified.lammpstrj id mol type q xu yu zu
dump_modify d1 sort id

thermo_style custom step pe ke etotal temp press density
thermo 10000
thermo_modify flush yes

variable vpe equal pe
variable vke equal ke
variable vT  equal temp
variable vE  equal etotal
variable vRg equal gyration(all)

fix favg all ave/time 10000 10 100000 v_vpe v_vke v_vT v_vE v_vRg     file outputs/thermo_${tag}_averaged.dat
fix favg all ave/time 10000 10 100000 v_vpe v_vke v_vT v_vE v_vRg     file outputs/thermo_100ASO_mismatch_G6A_unmodified_averaged.dat

# ===============================
# 3. EQUILIBRATION (NVT)
# ===============================
velocity all create ${T_target} 39145 rot yes dist gaussian
velocity all create 300 39145 rot yes dist gaussian

# Langevin thermostat for equilibration
fix fxlang all langevin ${T_target} ${T_target} 1000.0 99957
fix fxlang all langevin 300 ${T_target} 1000.0 99957
fix fxlang all langevin 300 300 1000.0 99957
fix fxnve  all nve
fix recenter all momentum 1000 linear 1 1 1

# Equilibration run
run 5000000
Generated 0 of 6 mixed pair_coeff terms from geometric mixing rule
Per MPI rank memory allocation (min/avg/max) = 7.314 | 7.314 | 7.315 Mbytes
   Step         PotEng         KinEng         TotEng          Temp          Press         Density    
         0  -424.81968      921.96455      497.14486      300            9.3805026      0.13392936   
     10000   323.54139      953.76656      1277.308       310.34812      1.3037033      0.13392936   
     20000   368.47338      897.71897      1266.1924      292.11068      1.8062868      0.13392936   
     30000   347.17167      915.52674      1262.6984      297.90519     -2.1403714      0.13392936   
     40000   350.1366       981.69131      1331.8279      319.43462      8.8194749      0.13392936   
     50000   337.28842      904.17766      1241.4661      294.21229      4.6272649      0.13392936   
     60000   320.33789      905.39229      1225.7302      294.60752     -7.7748108      0.13392936   
     70000   290.03035      931.15717      1221.1875      302.99121     -1.5698246      0.13392936   
     80000   306.11106      915.50825      1221.6193      297.89917      0.1566725      0.13392936   
     90000   301.60338      892.41831      1194.0217      290.38589     -0.16942204     0.13392936   
    100000   241.07906      914.97365      1156.0527      297.72522      4.2324733      0.13392936   
    110000   242.90494      913.32725      1156.2322      297.18949      0.92690455     0.13392936   
    120000   205.69738      905.73201      1111.4294      294.71806      1.1463366      0.13392936   
    130000   198.32704      914.36337      1112.6904      297.52664      2.8851677      0.13392936   
    140000   205.78032      877.52624      1083.3066      285.54012      1.5253928      0.13392936   
    150000   210.43759      927.91967      1138.3573      301.93775      2.9510209      0.13392936   
    160000   158.14726      951.7111       1109.8584      309.67929      2.1247583      0.13392936   
    170000   147.40556      921.02286      1068.4284      299.69358      5.4054987      0.13392936   
    180000   80.206993      900.07586      980.28286      292.87759      5.1581238      0.13392936   
    190000   113.18353      943.26089      1056.4444      306.92966     -1.5283745      0.13392936   
    200000   130.37492      894.61679      1024.9917      291.10125     -0.46373705     0.13392936   
    210000   77.736811      877.868        955.60481      285.65133      2.9336144      0.13392936   
    220000   89.255812      884.79115      974.04696      287.90407     -0.7544614      0.13392936   
    230000   124.59883      921.63487      1046.2337      299.89273     -0.42560523     0.13392936   
    240000   94.039456      909.22519      1003.2646      295.85471     -10.728585      0.13392936   
    250000   37.400184      923.11701      960.5172       300.375       -6.9459942      0.13392936   
    260000  -0.47749464     912.27783      911.80034      296.84802      10.168765      0.13392936   
    270000   49.581765      939.81059      989.39236      305.80696      3.401411       0.13392936   
    280000   44.629018      961.69919      1006.3282      312.92934     -0.093417752    0.13392936   
    290000   45.173722      957.16422      1002.3379      311.4537       7.5398349      0.13392936   
    300000   26.906097      919.00494      945.91104      299.03697      6.2904719      0.13392936   
    310000   31.659802      943.031        974.6908       306.85486      3.2201336      0.13392936   
    320000   58.830116      927.5757       986.40581      301.82582     -4.8885615      0.13392936   
    330000   77.213609      901.84107      979.05468      293.45198     -3.4769708      0.13392936   
    340000   113.4607       920.9411       1034.4018      299.66698     -2.2764482      0.13392936   
    350000   64.550367      900.68726      965.23763      293.07654      3.3894155      0.13392936   
    360000   84.840554      936.26313      1021.1037      304.65265      4.5250531      0.13392936   
    370000   52.593291      912.44156      965.03485      296.9013       0.63785476     0.13392936   
    380000   99.201124      907.39787      1006.599       295.26012      3.7831193      0.13392936   
    390000   23.602959      899.88711      923.49007      292.81618      1.4714537      0.13392936   
    400000   46.431933      911.18617      957.6181       296.4928       1.4458642      0.13392936   
    410000   52.958168      909.91059      962.86876      296.07774      3.0924214      0.13392936   
    420000   51.725181      927.12859      978.85377      301.68034      0.51010102     0.13392936   
    430000   92.839616      957.89724      1050.7369      311.69221      9.2036204      0.13392936   
    440000   86.794422      909.83427      996.62869      296.0529      -3.0826514      0.13392936   
    450000   36.948899      937.52189      974.47079      305.06224     -2.7325274      0.13392936   
    460000   72.404659      959.32082      1031.7255      312.15544      2.452918       0.13392936   
    470000   66.275351      945.06753      1011.3429      307.51753      3.776072       0.13392936   
    480000   87.294143      935.60849      1022.9026      304.43963      5.1655803      0.13392936   
    490000   93.342155      888.67821      982.02036      289.16889      8.8282356      0.13392936   
    500000   78.450412      919.52537      997.97578      299.20631      9.8034962      0.13392936   
    510000   41.25312       965.09222      1006.3453      314.03341      7.8729304      0.13392936   
    520000   71.031472      935.71273      1006.7442      304.47355     -3.659942       0.13392936   
    530000   87.198865      926.24349      1013.4424      301.39233      0.65633539     0.13392936   
    540000   79.621454      933.54966      1013.1711      303.7697       4.8539661      0.13392936   
    550000   42.829162      880.13963      922.96879      286.3905      -2.2847199      0.13392936   
    560000   56.675215      951.37962      1008.0548      309.57143      1.7545702      0.13392936   
    570000   72.547891      928.04379      1000.5917      301.97814     -2.0006604      0.13392936   
    580000  -0.86979317     913.39415      912.52435      297.21126      1.9506865      0.13392936   
    590000   19.150266      927.69633      946.8466       301.86508     -1.9033059      0.13392936   
    600000   2.7762785      899.00849      901.78477      292.53028     -0.95825054     0.13392936   
    610000   59.051064      907.63105      966.68211      295.33599      3.3399375      0.13392936   
    620000   24.860561      943.43537      968.29593      306.98644      1.8643831      0.13392936   
    630000   21.222357      872.41796      893.64032      283.87793      1.5306664      0.13392936   
    640000   11.954125      922.22947      934.18359      300.0862      -3.248387       0.13392936   
    650000   8.9710114      917.08677      926.05778      298.41281      10.931766      0.13392936   
    660000   67.627623      902.71006      970.33768      293.73474     -0.56069571     0.13392936   
    670000   22.905503      923.12385      946.02935      300.37723      0.24333888     0.13392936   
    680000   53.362957      964.99606      1018.359       314.00212      0.17611288     0.13392936   
    690000   36.554616      916.90576      953.46038      298.35391      5.5174871      0.13392936   
    700000   5.9634907      937.91674      943.88023      305.19072     -0.2431708      0.13392936   
    710000   62.641132      956.64351      1019.2846      311.28426      3.1972094      0.13392936   
    720000  -14.477632      899.96855      885.49092      292.84268      3.0467259      0.13392936   
    730000   3.958177       900.36569      904.32387      292.9719       7.5621806      0.13392936   
    740000  -15.118941      901.08025      885.96131      293.20441      3.1095305      0.13392936   
    750000   15.131711      934.44491      949.57662      304.06101      6.1726715      0.13392936   
    760000   42.234734      902.22357      944.4583       293.57644     -4.3900585      0.13392936   
    770000   14.637064      927.19357      941.83064      301.70148     -1.0330361      0.13392936   
    780000   57.442184      950.79996      1008.2421      309.38281     -2.3658281      0.13392936   
    790000   25.213853      889.00072      914.21458      289.27383     -4.4304899      0.13392936   
    800000   53.870327      937.52199      991.39231      305.06227      3.8012387      0.13392936   
    810000   34.34887       890.78888      925.13775      289.85568     -1.5960123      0.13392936   
    820000   75.111476      923.20356      998.31504      300.40317      2.1480499      0.13392936   
    830000   13.585809      903.71055      917.29636      294.06029      5.0814911      0.13392936   
    840000   62.572696      918.03793      980.61063      298.72231      0.23440293     0.13392936   
    850000   6.8404999      918.3993       925.2398       298.8399      -1.5976597      0.13392936   
    860000   58.055458      935.97401      994.02947      304.55857     -3.7184677      0.13392936   
    870000   41.86761       910.17968      952.04729      296.1653       0.80928789     0.13392936   
    880000   48.886511      905.54368      954.43019      294.65678      2.6923356      0.13392936   
    890000   58.324876      916.27455      974.59942      298.14852     -1.461107       0.13392936   
    900000   51.891354      910.04269      961.93404      296.12072      3.21233        0.13392936   
    910000   32.718362      936.12823      968.8466       304.60875      6.9351184      0.13392936   
    920000   33.400072      923.46116      956.86123      300.48699      5.0824751      0.13392936   
    930000   15.190606      903.94313      919.13374      294.13597     -3.6349522      0.13392936   
    940000   54.704605      917.82719      972.5318       298.65374      0.17920239     0.13392936   
    950000   80.307366      911.0575       991.36487      296.45093      3.4840814      0.13392936   
    960000  -24.885281      920.06034      895.17506      299.38039     -0.30788132     0.13392936   
    970000   36.113228      931.25571      967.36894      303.02327     -9.4382339      0.13392936   
    980000   20.925159      930.23162      951.15678      302.69004     -1.4557099      0.13392936   
    990000   99.539387      912.55225      1012.0916      296.93731      1.9949354      0.13392936   
   1000000   6.248893       898.15334      904.40224      292.25202      0.65217268     0.13392936   
   1010000   35.327155      899.57844      934.90559      292.71574     -0.38695123     0.13392936   
   1020000   98.149978      952.3507       1050.5007      309.88741     -1.0492745      0.13392936   
   1030000   81.121756      920.20027      1001.322       299.42592      2.055928       0.13392936   
   1040000   23.950985      925.71209      949.66308      301.21942      4.4270154      0.13392936   
   1050000   32.153297      916.46998      948.62328      298.21211      0.17073267     0.13392936   
   1060000   53.768784      933.80744      987.57623      303.85359      4.6764465      0.13392936   
   1070000   86.150465      896.11392      982.26439      291.58841     -4.1196955      0.13392936   
   1080000   39.826807      907.82854      947.65535      295.40026      4.261873       0.13392936   
   1090000   42.90452       970.48998      1013.3945      315.78979      0.9045943      0.13392936   
   1100000   20.20297       917.37394      937.57691      298.50625     -3.480999       0.13392936   
   1110000   14.591535      966.03861      980.63015      314.34135      0.27437188     0.13392936   
   1120000   85.39151       903.607        988.99851      294.0266      -1.8636135      0.13392936   
   1130000   37.462642      934.08591      971.54855      303.9442      -0.56101        0.13392936   
   1140000   94.618913      969.84043      1064.4593      315.57843     -2.3080644      0.13392936   
   1150000   80.791717      897.78809      978.57981      292.13317     -3.2466017      0.13392936   
   1160000   28.642683      929.35496      957.99765      302.40478      6.3422245      0.13392936   
   1170000   61.0312        908.9494       969.9806       295.76497      2.6257217      0.13392936   
   1180000  -3.8525572      903.45904      899.60648      293.97845      0.53847816     0.13392936   
   1190000   37.685439      917.97789      955.66333      298.70277      5.0422491      0.13392936   
   1200000   21.810014      944.00243      965.81245      307.17095      0.85701559     0.13392936   
   1210000  -4.8056868      929.58357      924.77788      302.47917      8.9031676      0.13392936   
   1220000   51.940393      897.61432      949.55471      292.07663      5.0395954      0.13392936   
   1230000  -9.9590452      900.57239      890.61334      293.03916     -5.1554912      0.13392936   
   1240000  -19.997015      929.23236      909.23534      302.36489     -2.6823386      0.13392936   
   1250000   6.6675538      902.4331       909.10065      293.64462     -1.6873005      0.13392936   
   1260000   39.175353      931.66253      970.83788      303.15565      1.3962155      0.13392936   
   1270000   34.417802      938.5072       972.92501      305.38285      4.1761811      0.13392936   
   1280000   49.887044      908.32272      958.20976      295.56106      0.43431555     0.13392936   
   1290000   52.537734      910.0473       962.58503      296.12222      1.9799979      0.13392936   
   1300000   54.517665      927.09901      981.61667      301.67071      3.9563913      0.13392936   
   1310000   20.84071       898.23116      919.07187      292.27734      13.413254      0.13392936   
   1320000   3.0436151      917.07663      920.12024      298.40951      2.2381041      0.13392936   
   1330000   53.426672      942.2136       995.64027      306.58888      3.8618084      0.13392936   
   1340000   105.45398      930.14079      1035.5948      302.66049      4.0684575      0.13392936   
   1350000   67.127995      937.89177      1005.0198      305.18259      3.8739981      0.13392936   
   1360000   29.147307      941.49122      970.63853      306.35382     -0.025315127    0.13392936   
   1370000   61.946906      958.04629      1019.9932      311.74071      0.92209482     0.13392936   
   1380000   66.840201      917.29161      984.13181      298.47946     -0.25260506     0.13392936   
   1390000   89.544076      965.05042      1054.5945      314.0198       0.71543274     0.13392936   
   1400000   103.46005      934.99395      1038.454       304.23966      3.4013507      0.13392936   
   1410000   88.244943      938.47665      1026.7216      305.37291      2.2162741      0.13392936   
   1420000   80.43967       927.6835       1008.1232      301.8609       5.5279025      0.13392936   
   1430000   45.242153      921.36         966.60215      299.80328      0.6540485      0.13392936   
   1440000   34.869761      933.07799      967.94775      303.61623      4.6833715      0.13392936   
   1450000   51.933106      910.23836      962.17147      296.18439     -1.273433       0.13392936   
   1460000   122.50045      1009.1472      1131.6476      328.36854     -0.49537111     0.13392936   
   1470000  -13.061767      972.44541      959.38364      316.42607      4.4914629      0.13392936   
   1480000   36.937012      894.13528      931.0723       290.94458     -0.18556721     0.13392936   
   1490000   73.909485      933.43592      1007.3454      303.73269     -7.6768588      0.13392936   
   1500000   56.2964        932.49883      988.79523      303.42777     -1.7080476      0.13392936   
   1510000   76.336648      884.15468      960.49132      287.69697     -4.5598191      0.13392936   
   1520000   67.305457      920.72965      988.03511      299.59817     -3.9593216      0.13392936   
   1530000   52.743871      889.80855      942.55242      289.53669     -1.3005169      0.13392936   
   1540000  -2.8989965      888.57738      885.67838      289.13608     -2.9833183      0.13392936   
   1550000   45.998683      964.15438      1010.1531      313.72824     -0.96602841     0.13392936   
   1560000   72.76195       869.51931      942.28126      282.93473     -1.5864639      0.13392936   
   1570000   31.225768      940.28571      971.51148      305.96156     -0.56398966     0.13392936   
   1580000   52.657153      936.10362      988.76078      304.60074      2.1010614      0.13392936   
   1590000   83.88999       922.59795      1006.4879      300.20611      4.2992948      0.13392936   
   1600000   65.25582       905.0714       970.32722      294.5031      -0.29433391     0.13392936   
   1610000   68.183467      906.65397      974.83744      295.01806      12.28104       0.13392936   
   1620000   36.718586      897.26591      933.98449      291.96326     -5.4406779      0.13392936   
   1630000   23.772841      947.39383      971.16667      308.27449     -4.1871629      0.13392936   
   1640000   42.15041       936.2098       978.36021      304.63529     -0.07191603     0.13392936   
   1650000   49.261563      943.29864      992.56021      306.94195     -0.96382609     0.13392936   
   1660000   47.823635      919.30891      967.13255      299.13588      1.9542856      0.13392936   
   1670000  -12.527694      913.72202      901.19433      297.31795      3.8714843      0.13392936   
   1680000   27.912686      924.57894      952.49162      300.8507      -9.3506623      0.13392936   
   1690000   25.577083      961.73384      987.31092      312.94061     -0.33688726     0.13392936   
   1700000   30.98651       907.34314      938.32965      295.24231      2.109565       0.13392936   
   1710000   16.282978      893.83091      910.11389      290.84553      0.15706635     0.13392936   
   1720000   54.281199      903.24031      957.52151      293.90728      3.447689       0.13392936   
   1730000   32.680711      947.49542      980.17614      308.30755     -3.7381437      0.13392936   
   1740000   61.051949      914.2022       975.25415      297.47419      1.8001668      0.13392936   
   1750000   78.845177      934.1961       1013.0413      303.98005      2.250798       0.13392936   
   1760000   17.988815      909.48318      927.472        295.93866      1.7585984      0.13392936   
   1770000   30.494994      900.66343      931.15842      293.06878      6.7923666      0.13392936   
   1780000   7.3403605      943.18664      950.527        306.9055       8.0116773      0.13392936   
   1790000   28.279042      900.67061      928.94965      293.07112     -4.2630432      0.13392936   
   1800000   40.188691      924.19636      964.38505      300.72621      6.207645       0.13392936   
   1810000   23.079171      899.28477      922.36394      292.62018     -6.9857087      0.13392936   
   1820000   49.399166      897.62608      947.02524      292.08045     -0.90872464     0.13392936   
   1830000   34.262494      903.50089      937.76339      293.99207      1.6112494      0.13392936   
   1840000   19.365937      899.15053      918.51647      292.5765      -1.8549504      0.13392936   
   1850000   35.330744      929.57172      964.90246      302.47531     -0.18311019     0.13392936   
   1860000   32.772844      891.38333      924.15617      290.04911      5.6892172      0.13392936   
   1870000   8.1139913      949.89598      958.00997      309.08867     -8.5614014      0.13392936   
   1880000   57.771642      931.76536      989.537        303.18911      3.6360045      0.13392936   
   1890000   22.735237      970.23016      992.9654       315.70525     -2.0319109      0.13392936   
   1900000  -22.173716      913.92955      891.75584      297.38548      0.17497593     0.13392936   
   1910000   8.2585932      957.14425      965.40284      311.4472       2.9839627      0.13392936   
   1920000  -28.240407      951.95394      923.71353      309.75831      8.5505578      0.13392936   
   1930000  -14.809433      911.67306      896.86363      296.65123      3.2126503      0.13392936   
   1940000  -2.1222316      960.83003      958.7078       312.64652      3.2015296      0.13392936   
   1950000  -23.246984      962.54596      939.29897      313.20487      5.5377846      0.13392936   
   1960000   53.112265      934.67342      987.78568      304.13537      3.1121316      0.13392936   
   1970000   7.3164722      910.74652      918.06299      296.34974     -3.2881408      0.13392936   
   1980000   13.113824      955.0694       968.18322      310.77206     -4.2191888      0.13392936   
   1990000   18.493755      918.79463      937.28839      298.96853      3.1944488      0.13392936   
   2000000   35.833616      924.84484      960.67845      300.93722      6.2499028      0.13392936   
   2010000   43.012164      929.9541       972.96626      302.59974     -0.62403097     0.13392936   
   2020000   42.366252      921.29659      963.66284      299.78265      2.6414818      0.13392936   
   2030000   14.430682      878.42449      892.85517      285.83241     -0.36556034     0.13392936   
   2040000   50.214398      948.95224      999.16664      308.78158      2.47667        0.13392936   
   2050000   54.802759      934.80272      989.60548      304.17744     -1.2434939      0.13392936   
   2060000  -17.094921      907.54518      890.45026      295.30805     -4.5965258      0.13392936   
   2070000   12.355754      909.37363      921.72939      295.90302     -1.899708       0.13392936   
   2080000   25.402631      908.15626      933.55889      295.50689     -3.6361445      0.13392936   
   2090000   37.57919       908.53349      946.11268      295.62964     -1.8609067      0.13392936   
   2100000   10.054889      910.3023       920.35719      296.2052      -0.0083197581   0.13392936   
   2110000  -40.180164      942.74521      902.56505      306.76186     -0.63411047     0.13392936   
   2120000   23.577056      885.24137      908.81843      288.05057     -1.6891709      0.13392936   
   2130000   6.084594       931.93647      938.02106      303.24478      4.1509997      0.13392936   
   2140000  -5.2172671      920.6742       915.45693      299.58013     -3.3383974      0.13392936   
   2150000   24.869501      941.8591       966.7286       306.47353      7.0021691      0.13392936   
   2160000   14.374953      861.22101      875.59596      280.23453      3.6959208      0.13392936   
   2170000   8.5756105      945.74991      954.32552      307.73957      9.6823778      0.13392936   
   2180000   11.046506      940.19723      951.24374      305.93277      2.838649       0.13392936   
   2190000   8.9167213      940.29492      949.21164      305.96456      1.5031698      0.13392936   
   2200000   31.566611      947.64602      979.21263      308.35655      0.22255208     0.13392936   
   2210000   21.488693      892.42095      913.90965      290.38675      5.072579       0.13392936   
   2220000   33.860251      884.21363      918.07388      287.71615     -2.3881879      0.13392936   
   2230000  -3.8764624      866.45078      862.57432      281.93626      2.6029694      0.13392936   
   2240000   25.923878      942.01365      967.93753      306.52382     -3.4074998      0.13392936   
   2250000   3.676786       924.05353      927.73032      300.67974      5.4282016      0.13392936   
   2260000   20.732492      925.17766      945.91016      301.04552     -0.80674072     0.13392936   
   2270000   34.686418      933.49348      968.17989      303.75142     -0.64011814     0.13392936   
   2280000   33.764564      895.91199      929.67655      291.5227       4.498127       0.13392936   
   2290000   74.341023      899.42625      973.76727      292.66621     -0.79283761     0.13392936   
   2300000   35.302585      928.71048      964.01306      302.19507     -1.8812568      0.13392936   
   2310000   42.634121      904.71435      947.34848      294.38692      5.4277746      0.13392936   
   2320000   39.832772      917.24006      957.07283      298.46269      0.51286504     0.13392936   
   2330000   21.657775      936.64557      958.30334      304.77709      9.9700752      0.13392936   
   2340000  -6.3837143      907.60807      901.22435      295.32851      0.74645661     0.13392936   
   2350000  -22.413452      943.11323      920.69978      306.88161      1.7316352      0.13392936   
   2360000  -7.699564       928.22085      920.52129      302.03575     -0.17762038     0.13392936   
   2370000   22.218007      920.13192      942.34993      299.40368      5.5540875      0.13392936   
   2380000  -14.594587      948.43763      933.84304      308.61413      5.1457643      0.13392936   
   2390000   7.4335838      908.89579      916.32937      295.74753     -2.3088319      0.13392936   
   2400000   15.58551       964.56052      980.14603      313.86039      3.6394056      0.13392936   
   2410000  -53.737021      887.92496      834.18794      288.92379      3.613544       0.13392936   
   2420000  -47.413956      933.38763      885.97367      303.71698      8.8831026      0.13392936   
   2430000  -32.458254      914.82225      882.36399      297.67595      1.4564754      0.13392936   
   2440000  -10.673975      927.6809       917.00693      301.86006      3.2817687      0.13392936   
   2450000  -19.559528      969.6308       950.07128      315.51022      10.957265      0.13392936   
   2460000  -13.993541      920.88526      906.89172      299.64881     -4.6032658      0.13392936   
   2470000  -23.596299      972.5995       949.0032       316.47621      6.2393175      0.13392936   
   2480000  -2.2202865      936.10673      933.88645      304.60176     -7.8751496      0.13392936   
   2490000  -43.630174      927.82638      884.19621      301.9074       11.016752      0.13392936   
   2500000   11.414255      905.67938      917.09363      294.70093     -2.6841243      0.13392936   
   2510000   45.626651      906.2548       951.88145      294.88817      3.0415028      0.13392936   
   2520000  -27.573829      890.50777      862.93394      289.76421      3.9292818      0.13392936   
   2530000  -12.550366      921.90957      909.35921      299.98211     -1.2582309      0.13392936   
   2540000   54.328042      922.3065       976.63454      300.11127     -0.43235496     0.13392936   
   2550000   16.269405      922.34408      938.61349      300.1235      -2.6002205      0.13392936   
   2560000  -8.8766908      916.15427      907.27758      298.10938     -0.9159788      0.13392936   
   2570000   23.637842      914.58546      938.2233       297.5989      -0.29776135     0.13392936   
   2580000  -24.60218       967.00905      942.40687      314.65712     -3.4383076      0.13392936   
   2590000  -14.615628      901.61524      886.99961      293.3785       1.5792064      0.13392936   
   2600000  -51.408796      909.96581      858.55702      296.09571     -1.1100426      0.13392936   
   2610000  -6.793          905.94716      899.15416      294.78807     -3.0839429      0.13392936   
   2620000  -34.837789      948.6906       913.85281      308.69645     -0.26064292     0.13392936   
   2630000  -60.995715      924.46153      863.46582      300.8125       2.1822954      0.13392936   
   2640000   5.229073       966.03465      971.26373      314.34007      7.0200386      0.13392936   
   2650000  -23.495002      920.23149      896.73649      299.43608      5.7293408      0.13392936   
   2660000  -17.225025      920.85414      903.62912      299.63868     -4.9137273      0.13392936   
   2670000  -8.4237694      911.14482      902.72105      296.47935     -0.1247426      0.13392936   
   2680000  -22.568703      894.60235      872.03365      291.09656      3.7588998      0.13392936   
   2690000  -44.827078      870.03725      825.21017      283.10326      0.16776546     0.13392936   
   2700000  -33.652069      914.63435      880.98228      297.61481     -2.8706437      0.13392936   
   2710000  -30.418133      950.63801      920.21987      309.33012      9.3782688      0.13392936   
   2720000  -43.360203      870.99423      827.63403      283.41466     -0.34173707     0.13392936   
   2730000  -38.893429      941.4795       902.58607      306.35001      1.1212872      0.13392936   
   2740000   22.614863      923.44526      946.06012      300.48181      0.8885557      0.13392936   
   2750000  -17.388875      955.44326      938.05438      310.89371     -0.65346448     0.13392936   
   2760000  -9.7969992      908.80104      899.00404      295.7167       0.4561098      0.13392936   
   2770000   27.494365      954.33569      981.83006      310.53332      3.3071991      0.13392936   
   2780000  -0.64091172     923.31761      922.6767       300.44028      0.55519955     0.13392936   
   2790000   36.424082      923.02883      959.45291      300.34631      7.6787436      0.13392936   
   2800000   7.2199385      904.97577      912.19571      294.47199      0.24771932     0.13392936   
   2810000  -17.210625      908.83265      891.62202      295.72698     -0.81916794     0.13392936   
   2820000  -19.441071      904.37417      884.9331       294.27623      1.9964534      0.13392936   
   2830000   46.989406      936.50332      983.49273      304.7308       0.61114189     0.13392936   
   2840000   51.57515       933.38156      984.95671      303.715        2.8017239      0.13392936   
   2850000   69.289218      900.28485      969.57407      292.9456      -1.563688       0.13392936   
   2860000   81.072097      903.57589      984.64799      294.01648      1.4523952      0.13392936   
   2870000   23.582707      887.74059      911.3233       288.86379      1.5387408      0.13392936   
   2880000   53.054659      941.92683      994.98149      306.49557     -2.7376712      0.13392936   
   2890000   39.222451      937.35377      976.57622      305.00753      0.45496417     0.13392936   
   2900000   57.216169      891.89704      949.11321      290.21627      3.6454916      0.13392936   
   2910000   14.129225      903.4108       917.54003      293.96276     -6.5364752      0.13392936   
   2920000   49.081784      886.95633      936.03811      288.6086      -1.1315445      0.13392936   
   2930000   33.355989      934.35609      967.71208      304.03211     -2.2330704      0.13392936   
   2940000   1.8861821      960.8375       962.72369      312.64895      6.9856227      0.13392936   
   2950000   45.162235      939.40757      984.56981      305.67582     -0.30998231     0.13392936   
   2960000   45.69785       881.21613      926.91398      286.74079      0.35037568     0.13392936   
   2970000   88.561596      898.53918      987.10077      292.37757      0.58205349     0.13392936   
   2980000   106.96408      936.12897      1043.0931      304.60899     -2.6552097      0.13392936   
   2990000   84.144081      921.22537      1005.3694      299.75948     -2.0624277      0.13392936   
   3000000   74.393659      881.63842      956.03208      286.8782       3.4158127      0.13392936   
   3010000   54.569558      915.85722      970.42678      298.01272     -0.21048814     0.13392936   
   3020000   38.083268      892.57836      930.66163      290.43797     -5.2632233      0.13392936   
   3030000   42.278655      930.99191      973.27057      302.93743     -1.2019773      0.13392936   
   3040000   48.334022      880.08913      928.42315      286.37407     -2.634721       0.13392936   
   3050000   13.695733      925.59332      939.28906      301.18078     -7.7556048      0.13392936   
   3060000   32.052255      898.26311      930.31536      292.28774      12.586095      0.13392936   
   3070000  -24.436735      930.66233      906.2256       302.83019      0.63822827     0.13392936   
   3080000  -1.6103717      932.19892      930.58854      303.33018      4.4932151      0.13392936   
   3090000   0.92321864     904.1282       905.05142      294.19619     -7.0960399      0.13392936   
   3100000  -14.851158      934.77624      919.92508      304.16882      3.702245       0.13392936   
   3110000   100.23044      922.29048      1022.5209      300.10606     -5.8900672      0.13392936   
   3120000   22.707244      879.48891      902.19616      286.17876     -2.0782464      0.13392936   
   3130000   36.559515      938.51767      975.07719      305.38626     -0.78366394     0.13392936   
   3140000  -4.7847776      909.87458      905.0898       296.06602     -1.6500032      0.13392936   
   3150000  -46.381283      934.75256      888.37128      304.16112      3.7935753      0.13392936   
   3160000   18.792948      926.81418      945.60713      301.57803      3.6278966      0.13392936   
   3170000   8.7746554      942.31126      951.08591      306.62066      8.6000756      0.13392936   
   3180000   40.726468      917.44329      958.16976      298.52882      0.67289372     0.13392936   
   3190000   9.268222       908.91799      918.18621      295.75475      3.4982241      0.13392936   
   3200000   38.570488      914.07612      952.64661      297.43317      0.34507615     0.13392936   
   3210000   23.070134      941.47019      964.54033      306.34698     -5.810681       0.13392936   
   3220000   37.096771      923.6858       960.78257      300.56008      0.080569624    0.13392936   
   3230000   40.012826      934.11681      974.12964      303.95425     -1.6760084      0.13392936   
   3240000   28.230146      930.13245      958.3626       302.65777      5.8762511      0.13392936   
   3250000   8.2192309      901.20218      909.42141      293.24409     -1.3888707      0.13392936   
   3260000   30.640566      898.92318      929.56374      292.50252     -5.6123955      0.13392936   
   3270000   20.225195      939.23641      959.4616       305.62013      2.3736768      0.13392936   
   3280000   17.282328      883.38175      900.66408      287.44546      2.5409453      0.13392936   
   3290000   10.780438      944.67638      955.45682      307.39025      2.8068941      0.13392936   
   3300000   31.619523      953.76596      985.38548      310.34793     -2.4523628      0.13392936   
   3310000   7.5169834      958.48406      966.00104      311.88316      1.7806535      0.13392936   
   3320000   40.325599      915.5355       955.8611       297.90804      5.0001463      0.13392936   
   3330000  -5.0160995      885.68358      880.66748      288.19446      4.8332798      0.13392936   
   3340000  -41.420712      905.0172       863.59649      294.48547     -2.997897       0.13392936   
   3350000  -6.1403187      914.76471      908.6244       297.65723      2.1441409      0.13392936   
   3360000  -53.503332      919.09819      865.59486      299.06731     -0.17072503     0.13392936   
   3370000   4.5680659      957.0123       961.58037      311.40426      1.3183295      0.13392936   
   3380000  -25.973742      887.38681      861.41307      288.74868     -0.52723665     0.13392936   
   3390000  -1.5823635      960.45591      958.87355      312.52479      8.1709616      0.13392936   
   3400000  -27.301122      918.85497      891.55384      298.98817      6.7054399      0.13392936   
   3410000  -9.2276315      932.3048       923.07716      303.36464     -7.3879328      0.13392936   
   3420000   44.047956      914.45576      958.50372      297.5567       3.4977429      0.13392936   
   3430000   1.8740766      940.96848      942.84255      306.18373      2.8288939      0.13392936   
   3440000   36.099892      942.33684      978.43673      306.62898     -3.703945       0.13392936   
   3450000  -0.59464163     931.19818      930.60354      303.00455      0.64312812     0.13392936   
   3460000   45.454269      912.42408      957.87834      296.89561     -1.2960705      0.13392936   
   3470000  -14.592909      922.33297      907.74006      300.11988      6.3959629      0.13392936   
   3480000  -29.074078      902.35665      873.28257      293.61974      10.456144      0.13392936   
   3490000  -28.052543      934.6938       906.64126      304.142        1.5594824      0.13392936   
   3500000   56.956081      940.48538      997.44147      306.02653      9.1507872      0.13392936   
   3510000  -13.216702      902.17615      888.95944      293.56101      0.26133028     0.13392936   
   3520000   38.643427      883.2287       921.87212      287.39566      0.69660556     0.13392936   
   3530000   12.2379        912.00624      924.24414      296.75964      4.8618414      0.13392936   
   3540000  -54.745882      909.96368      855.2178       296.09501      6.4715932      0.13392936   
   3550000  -14.186946      934.8584       920.67145      304.19556      2.4422684      0.13392936   
   3560000  -68.083263      970.62922      902.54595      315.8351      -0.45676754     0.13392936   
   3570000   20.949884      919.52396      940.47385      299.20585      0.20992125     0.13392936   
   3580000  -51.530143      952.94625      901.41611      310.0812       0.29279955     0.13392936   
   3590000  -0.55429093     925.33851      924.78422      301.09786      3.1863152      0.13392936   
   3600000  -1.291223       930.55633      929.2651       302.7957       3.4835037      0.13392936   
   3610000  -2.6160266      880.31043      877.6944       286.44608      5.0699817      0.13392936   
   3620000   53.801886      916.35387      970.15575      298.17433     -2.8704138      0.13392936   
   3630000   23.231428      933.83919      957.07061      303.86391     -5.6011513      0.13392936   
   3640000  -14.568331      945.4183       930.84997      307.63167      0.29101814     0.13392936   
   3650000   28.233111      945.64338      973.87649      307.70491     -1.9206409      0.13392936   
   3660000   4.0417184      907.06014      911.10186      295.15022      1.2366076      0.13392936   
   3670000  -28.286108      923.0696       894.78349      300.35958      3.4502217      0.13392936   
   3680000  -36.4619        893.26926      856.80736      290.66278      4.8596268      0.13392936   
   3690000  -29.764435      913.51528      883.75085      297.25067      2.281419       0.13392936   
   3700000  -63.768318      938.14238      874.37406      305.26414      0.26798809     0.13392936   
   3710000  -43.112729      927.92848      884.81575      301.94062      5.9242822      0.13392936   
   3720000  -14.225672      901.07111      886.84543      293.20144      0.31154755     0.13392936   
   3730000   1.719954       914.33655      916.05651      297.51791     -4.4295275      0.13392936   
   3740000  -2.6592432      911.89745      909.23821      296.72425      0.38425045     0.13392936   
   3750000  -18.420367      922.40734      903.98697      300.14408     -1.7847308      0.13392936   
   3760000  -22.669576      901.24637      878.5768       293.25847     -0.59778341     0.13392936   
   3770000  -33.450281      892.11623      858.66595      290.28759      3.0121872      0.13392936   
   3780000  -42.867111      962.24589      919.37878      313.10723      2.9305704      0.13392936   
   3790000  -51.138645      924.16131      873.02267      300.71481     -1.3541435      0.13392936   
   3800000  -53.276458      928.00064      874.72418      301.9641       1.6729652      0.13392936   
   3810000  -47.092814      890.81253      843.71972      289.86338     -3.9871414      0.13392936   
   3820000  -12.073409      900.13334      888.05993      292.8963       4.5478943      0.13392936   
   3830000  -20.998803      924.13784      903.13903      300.70717      5.3529882      0.13392936   
   3840000   36.217975      944.0748       980.29277      307.1945       2.7545639      0.13392936   
   3850000   23.765313      937.91789      961.6832       305.19109      0.53746754     0.13392936   
   3860000  -20.021136      904.04701      884.02587      294.16977      10.000491      0.13392936   
   3870000  -37.691839      956.17798      918.48614      311.13278     -0.092205294    0.13392936   
   3880000  -56.100272      964.55084      908.45057      313.85724      8.7783149      0.13392936   
   3890000  -20.742899      922.57716      901.83426      300.19934     -2.2197336      0.13392936   
   3900000  -24.5601        867.41536      842.85526      282.25013      1.6097726      0.13392936   
   3910000  -34.519822      891.92118      857.40136      290.22413      2.7040034      0.13392936   
   3920000  -43.94064       934.37387      890.43323      304.0379       0.87074187     0.13392936   
   3930000  -28.590673      944.27768      915.68701      307.26052      0.62565293     0.13392936   
   3940000   15.544948      925.45916      941.00411      301.13712      6.3404191      0.13392936   
   3950000   4.5661498      953.84423      958.41038      310.3734      -3.1745722      0.13392936   
   3960000   5.4222738      929.97518      935.39745      302.6066       5.7265501      0.13392936   
   3970000   4.1822303      905.61921      909.80144      294.68136     -7.8828124      0.13392936   
   3980000  -10.599693      910.39939      899.79969      296.23679      2.8537186      0.13392936   
   3990000   43.341843      927.7783       971.12014      301.89175     -3.8765882      0.13392936   
   4000000   8.7987082      903.73835      912.53706      294.06934     -3.8194722      0.13392936   
   4010000   13.449705      903.43059      916.8803       293.9692       6.16897        0.13392936   
   4020000  -27.14482       969.77311      942.62829      315.55653     -0.65638001     0.13392936   
   4030000   11.903098      863.20196      875.10506      280.87912     -5.8207779      0.13392936   
   4040000  -20.233525      915.43404      895.20052      297.87502      0.5646062      0.13392936   
   4050000   6.9367202      918.8891       925.82582      298.99927      1.9638406      0.13392936   
   4060000   7.8434448      921.70162      929.54506      299.91444      4.0905919      0.13392936   
   4070000   7.6401599      930.65471      938.29487      302.82771      2.8710935      0.13392936   
   4080000   21.583774      893.49038      915.07415      290.73473      2.8695403      0.13392936   
   4090000   39.494263      895.04373      934.538        291.24018      3.9607441      0.13392936   
   4100000   23.411087      922.3718       945.78289      300.13252      8.0361265      0.13392936   
   4110000  -4.7678283      954.64269      949.87486      310.63321      5.026685       0.13392936   
   4120000   53.196911      942.0944       995.29131      306.55009      1.1592609      0.13392936   
   4130000   70.037925      960.48779      1030.5257      312.53516      3.7480136      0.13392936   
   4140000   68.909208      919.0308       987.94001      299.04538     -0.58335515     0.13392936   
   4150000   28.481051      926.4183       954.89935      301.44922     -2.6584417      0.13392936   
   4160000   14.847631      896.87565      911.72329      291.83627      0.72418679     0.13392936   
   4170000   102.99634      923.30663      1026.303       300.4367       6.1632005      0.13392936   
   4180000   48.601143      888.71488      937.31602      289.18082     -1.9134045      0.13392936   
   4190000   57.250221      938.51075      995.76097      305.384        0.74661336     0.13392936   
   4200000  -13.695875      882.49106      868.79519      287.15564      3.0087905      0.13392936   
   4210000   5.9492409      888.40539      894.35464      289.08012     -0.9375261      0.13392936   
   4220000  -23.152285      905.21472      882.06243      294.54974     -2.656531       0.13392936   
   4230000  -37.42098       910.24703      872.82605      296.18721     -2.6907405      0.13392936   
   4240000   27.25418       939.53374      966.78792      305.71688     -2.4110134      0.13392936   
   4250000   15.917165      946.3739       962.29106      307.94261      4.80962        0.13392936   
   4260000   44.952414      924.598        969.55042      300.85691     -0.949296       0.13392936   
   4270000  -1.871107       936.60258      934.73148      304.7631       3.1938669      0.13392936   
   4280000  -42.411004      931.31421      888.90321      303.04231     -11.499567      0.13392936   
   4290000   44.186472      918.608        962.79448      298.90781      3.5181538      0.13392936   
   4300000   16.961629      938.13305      955.09468      305.2611       8.5866835      0.13392936   
   4310000  -24.316848      948.98251      924.66566      308.79143      0.77352051     0.13392936   
   4320000  -3.1443178      902.25938      899.11506      293.58809     -6.2964336      0.13392936   
   4330000  -26.442495      942.82109      916.37859      306.78655     -5.3723572      0.13392936   
   4340000  -31.999257      930.44312      898.44386      302.75886     -7.7281726      0.13392936   
   4350000  -34.075742      915.08895      881.01321      297.76274     -0.1770858      0.13392936   
   4360000  -17.175302      883.43759      866.26229      287.46363     -6.3844327      0.13392936   
   4370000   14.401894      943.99203      958.39392      307.16757     -2.7790662      0.13392936   
   4380000   7.5440697      924.63018      932.17425      300.86738     -3.2282931      0.13392936   
   4390000   41.496306      913.0107       954.50701      297.08649     -8.3346308      0.13392936   
   4400000   61.20071       911.91484      973.11555      296.7299      -0.050106259    0.13392936   
   4410000  -8.4793378      920.53558      912.05624      299.53502      7.1004352      0.13392936   
   4420000  -13.200319      916.58983      903.38951      298.25111      0.36301399     0.13392936   
   4430000   67.038187      928.7757       995.81389      302.2163      -1.5306385      0.13392936   
   4440000   11.45166       915.93872      927.39039      298.03924      2.1571448      0.13392936   
   4450000   30.588226      890.21577      920.804        289.6692       4.5379789      0.13392936   
   4460000  -12.23465       907.34783      895.11318      295.24383      2.9604863      0.13392936   
   4470000  -39.036316      915.28287      876.24655      297.82583     -0.11304353     0.13392936   
   4480000   4.544626       937.05204      941.59667      304.90935     -0.5189781      0.13392936   
   4490000   14.809151      917.44793      932.25708      298.53033      0.43535749     0.13392936   
   4500000  -25.834489      918.26113      892.42664      298.79494      1.4944196      0.13392936   
   4510000  -38.097438      892.33079      854.23335      290.35741      0.32579662     0.13392936   
   4520000  -37.226139      930.51996      893.29382      302.78386      0.5431847      0.13392936   
   4530000  -8.1139356      912.52001      904.40608      296.92682     -0.62197295     0.13392936   
   4540000  -4.5065091      912.82739      908.32088      297.02684      3.8678598      0.13392936   
   4550000  -4.0219099      956.10494      952.08303      311.10901      4.5615199      0.13392936   
   4560000  -4.4452999      940.3985       935.9532       305.99826      3.1654399      0.13392936   
   4570000  -29.913029      897.40966      867.49663      292.01003      4.9519197      0.13392936   
   4580000  -64.094012      903.02535      838.93133      293.83733     -1.5141108      0.13392936   
   4590000  -16.014629      957.63803      941.6234       311.60787     -2.9253218      0.13392936   
   4600000  -14.841386      899.32131      884.47992      292.63207     -4.9880602      0.13392936   
   4610000  -25.88715       910.5489       884.66175      296.28544      3.7808006      0.13392936   
   4620000  -55.966228      947.65771      891.69148      308.36035      2.1470427      0.13392936   
   4630000   2.2098434      910.47083      912.68067      296.26003     -1.170096       0.13392936   
   4640000  -44.978604      906.05268      861.07408      294.8224      -4.9980478      0.13392936   
   4650000  -11.403856      915.63166      904.22781      297.93933      2.9732274      0.13392936   
   4660000  -40.497876      936.58009      896.08222      304.75578     -3.4035216      0.13392936   
   4670000  -3.3293471      951.49856      948.16921      309.61014      7.8250959      0.13392936   
   4680000  -3.7966086      919.00269      915.20609      299.03624     -2.1410092      0.13392936   
   4690000  -11.5114        892.40836      880.89696      290.38265     -1.9607342      0.13392936   
   4700000  -31.653373      950.56855      918.91517      309.30752      0.53709196     0.13392936   
   4710000  -36.743827      919.23568      882.49186      299.11205     -0.97680445     0.13392936   
   4720000  -39.028319      947.24435      908.21603      308.22585      14.531557      0.13392936   
   4730000  -84.558402      904.41251      819.85411      294.2887      -1.3108399      0.13392936   
   4740000  -20.444997      937.15303      916.70804      304.94221      1.2090601      0.13392936   
   4750000  -36.115701      892.8631       856.7474       290.53062      2.2182459      0.13392936   
   4760000   25.742043      897.50729      923.24933      292.0418      -3.1676218      0.13392936   
   4770000   3.6843167      921.39963      925.08395      299.81618      3.415944       0.13392936   
   4780000  -9.9367184      914.12983      904.19311      297.45064      0.61864621     0.13392936   
   4790000  -23.472289      923.30352      899.83123      300.43569      3.841659       0.13392936   
   4800000  -19.384647      891.50815      872.1235       290.08973      1.0012935      0.13392936   
   4810000  -26.484531      908.10692      881.62239      295.49084      5.1152528      0.13392936   
   4820000  -12.5984        922.20672      909.60832      300.0788      -4.4056072      0.13392936   
   4830000  -22.040009      943.34952      921.30951      306.9585      -6.2818612      0.13392936   
   4840000  -9.4343931      945.12156      935.68717      307.53511      3.4622141      0.13392936   
   4850000  -17.616862      901.77347      884.15661      293.42998      0.9564757      0.13392936   
   4860000  -28.103614      921.85255      893.74894      299.96356      0.52919699     0.13392936   
   4870000   11.849996      879.90985      891.75984      286.31573      1.6507349      0.13392936   
   4880000  -27.537004      947.92784      920.39084      308.44825     -3.2986269      0.13392936   
   4890000   30.350686      945.91805      976.26874      307.79428     -6.3814104      0.13392936   
   4900000  -31.24126       946.58439      915.34313      308.0111       1.504027       0.13392936   
   4910000   32.481002      894.70714      927.18814      291.13065      0.88556498     0.13392936   
   4920000  -18.017389      939.81917      921.80178      305.80975      2.3790483      0.13392936   
   4930000   1.3011169      917.84106      919.14218      298.65825      3.3979006      0.13392936   
   4940000  -40.289155      907.57497      867.28581      295.31774      0.56668822     0.13392936   
   4950000   38.36503       922.14387      960.5089       300.05835     -0.16390753     0.13392936   
   4960000   25.306673      922.45007      947.75675      300.15799      0.90556776     0.13392936   
   4970000  -15.182443      939.76121      924.57877      305.79089     -7.6279846      0.13392936   
   4980000   18.548252      919.92892      938.47717      299.33762      1.2367351      0.13392936   
   4990000  -28.831333      940.02045      911.18912      305.87525      1.51911        0.13392936   
   5000000  -22.594201      897.02597      874.43177      291.88518     -2.90289        0.13392936   
Loop time of 1832.98 on 4 procs for 5000000 steps with 1032 atoms

Performance: 2356.823 ns/day, 0.010 hours/ns, 2727.804 timesteps/s, 2.815 Matom-step/s
99.2% CPU use with 4 MPI tasks x 1 OpenMP threads

MPI task timing breakdown:
Section |  min time  |  avg time  |  max time  |%varavg| %total
---------------------------------------------------------------
Pair    | 1215.6     | 1268       | 1296.6     |  92.5 | 69.18
Bond    | 79.126     | 81.96      | 84.313     |  25.0 |  4.47
Neigh   | 4.8361     | 4.8376     | 4.8402     |   0.1 |  0.26
Comm    | 406.82     | 439.85     | 495.49     | 170.8 | 24.00
Output  | 0.33177    | 0.59567    | 1.0217     |  33.9 |  0.03
Modify  | 31.609     | 33.415     | 35.489     |  24.0 |  1.82
Other   |            | 4.334      |            |       |  0.24

Nlocal:            258 ave         293 max         171 min
Histogram: 1 0 0 0 0 0 0 0 0 3
Nghost:        1033.25 ave        1079 max         986 min
Histogram: 1 0 0 0 1 1 0 0 0 1
Neighs:        2470.25 ave        2887 max        1385 min
Histogram: 1 0 0 0 0 0 0 0 0 3

Total # of neighbors = 9881
Ave neighs/atom = 9.5746124
Ave special neighs/atom = 4.8255814
Neighbor list builds = 10368
Dangerous builds = 0

# ===============================
# 4. PRODUCTION
# ===============================
# Reset averages for production
unfix favg
fix favg all ave/time 10000 10 100000 v_vpe v_vke v_vT v_vE v_vRg     file outputs/thermo_${tag}_production.dat
fix favg all ave/time 10000 10 100000 v_vpe v_vke v_vT v_vE v_vRg     file outputs/thermo_100ASO_mismatch_G6A_unmodified_production.dat

restart 10000000 outputs/backup_${tag}.*.restart
restart 10000000 outputs/backup_100ASO_mismatch_G6A_unmodified.*.restart
run 100000000
Generated 0 of 6 mixed pair_coeff terms from geometric mixing rule
Per MPI rank memory allocation (min/avg/max) = 8.611 | 8.612 | 8.613 Mbytes
   Step         PotEng         KinEng         TotEng          Temp          Press         Density    
   5000000  -22.594201      897.02597      874.43177      291.88518     -2.90289        0.13392936   
   5010000  -35.605197      907.4889       871.8837       295.28974      7.0689738      0.13392936   
   5020000  -49.238305      958.60415      909.36584      311.92224      5.594762       0.13392936   
   5030000   23.460491      901.45279      924.91328      293.32563      5.3027949      0.13392936   
   5040000   32.776124      933.29638      966.0725       303.68729      3.7480635      0.13392936   
   5050000   63.997083      911.36594      975.36302      296.5513      -5.3570241      0.13392936   
   5060000   34.862551      923.68408      958.54663      300.55952      0.12809736     0.13392936   
   5070000  -25.728276      876.92079      851.19252      285.34312      0.59779682     0.13392936   
   5080000   14.553109      930.61338      945.16649      302.81426      9.62236        0.13392936   
   5090000   5.4020137      950.75352      956.15553      309.3677      -0.83130573     0.13392936   
   5100000   35.179471      928.82426      964.00373      302.2321      -3.2307244      0.13392936   
   5110000   1.84924        891.31159      893.16083      290.02577      8.9114677      0.13392936   
   5120000   11.931404      902.45833      914.38973      293.65283      6.8124647      0.13392936   
   5130000   9.4395603      941.04327      950.48283      306.20807     -0.78880549     0.13392936   
   5140000   10.686267      940.92287      951.60914      306.16889      0.17409783     0.13392936   
   5150000   34.818736      936.50045      971.31919      304.72987     -5.212402       0.13392936   
   5160000  -19.830863      940.85447      921.02361      306.14663     -1.5205096      0.13392936   
   5170000   21.985041      903.65288      925.63792      294.04153     -1.39562        0.13392936   
   5180000   5.2855489      934.18321      939.46876      303.97586      1.5497625      0.13392936   
   5190000  -13.442354      914.58147      901.13912      297.59761     -2.4500208      0.13392936   
   5200000  -50.397287      922.08802      871.69073      300.04018     -0.29669812     0.13392936   
   5210000  -11.123027      948.39894      937.27592      308.60154      0.99870357     0.13392936   
   5220000  -30.844259      913.0815       882.23724      297.10953      3.1806164      0.13392936   
   5230000  -1.4673834      912.16374      910.69636      296.8109      -0.35212593     0.13392936   
   5240000  -10.90419       929.26026      918.35607      302.37397      0.96551639     0.13392936   
   5250000  -76.934966      961.03769      884.10273      312.71409      0.44666395     0.13392936   
   5260000  -39.768136      925.71901      885.95088      301.22167      5.9200018      0.13392936   
   5270000  -0.1299896      907.45418      907.32419      295.27844     -3.4623845      0.13392936   
   5280000  -58.92862       899.50295      840.57433      292.69117      1.9741077      0.13392936   
   5290000  -37.046654      926.06137      889.01472      301.33307      5.7597758      0.13392936   
   5300000  -36.020903      923.98567      887.96477      300.65766      1.8679289      0.13392936   
   5310000  -25.415287      930.88736      905.47207      302.90341      1.8117258      0.13392936   
   5320000  -42.815121      929.75217      886.93705      302.53403      4.2474374      0.13392936   
   5330000  -73.420071      919.30527      845.8852       299.13469     -5.3876554      0.13392936   
   5340000  -0.70266442     906.13811      905.43545      294.8502      -3.1225854      0.13392936   
   5350000  -38.39939       938.48672      900.08734      305.37619      6.1198024      0.13392936   
   5360000   7.2944582      922.25456      929.54902      300.09437      0.61832651     0.13392936   
   5370000  -34.783044      890.54447      855.76142      289.77615      2.1323666      0.13392936   
   5380000  -60.24692       902.08071      841.83379      293.52996      5.1283629      0.13392936   
   5390000   20.901648      936.49256      957.39421      304.7273       0.54976654     0.13392936   
   5400000   19.016188      894.81441      913.83059      291.16556     -3.4627478      0.13392936   
   5410000  -3.5012536      901.34569      897.84444      293.29079      1.7049024      0.13392936   
   5420000   13.672218      961.03735      974.70957      312.71398      4.9672739      0.13392936   
   5430000  -6.0663079      873.85639      867.79008      284.34598      1.3099332      0.13392936   
   5440000  -9.2171218      891.38061      882.16348      290.04823     -8.4402391      0.13392936   
   5450000  -10.969918      929.79595      918.82603      302.54828      2.6625974      0.13392936   
   5460000   38.030459      873.85502      911.88548      284.34554      3.5374545      0.13392936   
   5470000  -4.3958064      945.47818      941.08237      307.65115     -4.1315877      0.13392936   
   5480000   26.700837      923.20866      949.9095       300.40482     -0.82584421     0.13392936   
   5490000   40.367332      909.96041      950.32774      296.09395     -1.6077453      0.13392936   
   5500000   8.516576       902.94744      911.46401      293.81198     -5.5564484      0.13392936   
   5510000   1.1735173      888.4701       889.64362      289.10117      3.3706961      0.13392936   
   5520000   16.952564      901.65371      918.60628      293.39101      0.21329669     0.13392936   
   5530000  -14.340041      924.79377      910.45373      300.92061      6.2726037      0.13392936   
   5540000   40.045636      921.81933      961.86497      299.95275      2.7225884      0.13392936   
   5550000   43.102815      885.28962      928.39243      288.06627      0.59283678     0.13392936   
   5560000  -0.99863529     902.25102      901.25238      293.58537     -2.3090059      0.13392936   
   5570000  -13.361513      949.56825      936.20673      308.98203     -3.2978681      0.13392936   
   5580000  -48.707655      927.37305      878.6654       301.75988     -3.0306493      0.13392936   
   5590000  -56.620695      875.03258      818.41189      284.72871     -7.3417255      0.13392936   
   5600000  -13.076922      928.87336      915.79644      302.24807     -5.372519       0.13392936   
   5610000  -5.5259832      890.0385       884.51252      289.61152      3.1630157      0.13392936   
   5620000  -54.82155       902.46823      847.64668      293.65605      4.8559069      0.13392936   
   5630000   14.083251      912.95227      927.03552      297.06748     -4.9220089      0.13392936   
   5640000  -5.343335       899.94375      894.60042      292.83461      0.020029454    0.13392936   
   5650000   2.6872365      933.3879       936.07514      303.71707      6.737879       0.13392936   
   5660000  -3.3725117      905.11354      901.74102      294.51681     -5.1292662      0.13392936   
   5670000   28.738121      916.02297      944.76109      298.06666     -7.2684381      0.13392936   
   5680000  -8.75791        892.3403       883.58239      290.3605       7.4569981      0.13392936   
   5690000   34.140342      923.7418       957.88214      300.5783      -7.784443       0.13392936   
   5700000   31.209337      859.97607      891.18541      279.82944      4.979752       0.13392936   
   5710000   59.879834      916.96935      976.84919      298.3746      -7.0134863      0.13392936   
   5720000   51.322544      890.56438      941.88693      289.78263      1.4047728      0.13392936   
   5730000   37.025737      938.34187      975.36761      305.32905     -6.4847604      0.13392936   
   5740000   17.021323      953.28267      970.304        310.19067      4.36571        0.13392936   
   5750000   83.658476      909.82274      993.48122      296.04915      1.5120442      0.13392936   
   5760000   63.472011      957.11963      1020.5916      311.43919      0.70279145     0.13392936   
   5770000   35.665781      911.62792      947.2937       296.63654     -1.7100021      0.13392936   
   5780000   64.442324      920.06636      984.50868      299.38234     -3.5939215      0.13392936   
   5790000   9.1600885      930.66279      939.82288      302.83034      2.7808648      0.13392936   
   5800000   42.973684      930.20101      973.1747       302.68008      0.33738371     0.13392936   
   5810000  -13.532063      909.80505      896.27299      296.04339      1.2437441      0.13392936   
   5820000   50.115663      922.42721      972.54288      300.15055     -1.625548       0.13392936   
   5830000  -4.9350773      939.28648      934.3514       305.63642      4.9086582      0.13392936   
   5840000   24.730898      905.18133      929.91223      294.53887     -0.94771743     0.13392936   
   5850000  -0.50121414     949.28731      948.7861       308.89061     -3.3374138      0.13392936   
   5860000   14.73296       940.35908      955.09204      305.98544      9.4567871      0.13392936   
   5870000   27.762198      930.49244      958.25464      302.77491      8.3813961      0.13392936   
   5880000   36.280704      925.36877      961.64948      301.10771     -1.8379111      0.13392936   
   5890000   40.524499      908.35931      948.88381      295.57296      7.4225486      0.13392936   
   5900000   19.266828      976.54816      995.81499      317.76108     -0.74937137     0.13392936   
   5910000   51.148628      939.88604      991.03467      305.83151     -2.5681914      0.13392936   
   5920000   95.506967      943.03106      1038.538       306.85488      0.10720366     0.13392936   
   5930000   11.780653      941.55684      953.33749      306.37518      1.1930136      0.13392936   
   5940000   16.653679      921.28235      937.93603      299.77802      4.7369984      0.13392936   
   5950000   47.925531      905.31153      953.23706      294.58124      2.4077001      0.13392936   
   5960000   2.2836154      914.77774      917.06135      297.66147     -0.35646609     0.13392936   
   5970000   45.523775      900.54121      946.06499      293.02902      1.1246551      0.13392936   
   5980000   13.474585      948.59007      962.06466      308.66374      9.1382841      0.13392936   
   5990000   52.332496      889.95509      942.28758      289.58437      0.068122515    0.13392936   
   6000000   14.858888      924.52117      939.38006      300.83191      3.7338734      0.13392936   
   6010000   32.81295       921.26326      954.07621      299.77181      0.069286114    0.13392936   
   6020000   27.859696      898.01662      925.87631      292.20753     -0.0029543673   0.13392936   
   6030000   18.728904      921.01142      939.74032      299.68986     -4.9160361      0.13392936   
   6040000   0.33933174     905.96647      906.3058       294.79435      0.85143138     0.13392936   
   6050000   22.844892      901.11738      923.96227      293.21649     -7.1393007      0.13392936   
   6060000   33.083682      955.65914      988.74282      310.96395      8.3092174      0.13392936   
   6070000   55.845056      903.93754      959.7826       294.13415      4.5233819      0.13392936   
   6080000   26.139219      899.31018      925.4494       292.62845      7.4024611      0.13392936   
   6090000   40.534432      910.39653      950.93097      296.23586     -4.8766064      0.13392936   
   6100000   62.193888      900.38072      962.5746       292.97679     -3.9266708      0.13392936   
   6110000   29.387958      939.63123      969.01919      305.7486      -0.4726421      0.13392936   
   6120000   52.596334      894.83755      947.43389      291.17309     -3.8467889      0.13392936   
   6130000   23.222821      962.90895      986.13177      313.32299      4.8074779      0.13392936   
   6140000   44.04858       926.94984      970.99842      301.62217      4.07743        0.13392936   
   6150000   34.844341      957.10331      991.94765      311.43388      4.7772342      0.13392936   
   6160000   41.623326      939.15363      980.77696      305.59319      6.3714937      0.13392936   
   6170000   52.900393      947.54343      1000.4438      308.32317     -2.6208223      0.13392936   
   6180000   47.807117      919.46346      967.27058      299.18617      0.14460084     0.13392936   
   6190000   4.2392754      923.46054      927.69982      300.48678     -4.2078785      0.13392936   
   6200000   65.04617       918.33294      983.37911      298.8183       3.213629       0.13392936   
   6210000   33.382855      941.46427      974.84713      306.34506      3.1793745      0.13392936   
   6220000   36.435715      946.51267      982.94838      307.98776     -2.0815328      0.13392936   
   6230000   46.478201      909.75291      956.23111      296.02643     -1.6719698      0.13392936   
   6240000   12.070211      923.19406      935.26427      300.40007      3.0286486      0.13392936   
   6250000  -9.1788124      951.97255      942.79374      309.76437      8.1767409      0.13392936   
   6260000  -55.100586      879.13619      824.0356       286.06399      1.8607505      0.13392936   
   6270000  -2.0574869      962.2659       960.20842      313.11374     -2.7777773      0.13392936   
   6280000  -24.491974      884.023        859.53102      287.65412      1.9375804      0.13392936   
   6290000  -20.951357      893.46764      872.51629      290.72733      5.7203026      0.13392936   
   6300000  -17.310746      932.03203      914.72128      303.27588     -1.0134446      0.13392936   
   6310000  -23.110924      925.36244      902.25152      301.10565      2.1004522      0.13392936   
   6320000   6.8375854      942.095        948.93258      306.55029     -7.9199636      0.13392936   
   6330000   5.3722279      906.77969      912.15192      295.05897     -2.7598388      0.13392936   
   6340000  -14.512967      918.81538      904.30242      298.97529     -0.059215159    0.13392936   
   6350000  -40.68514       897.44033      856.75519      292.02001      2.2174349      0.13392936   
   6360000   41.115851      950.5528       991.66865      309.30239      4.3729011      0.13392936   
   6370000  -28.425533      950.43879      922.01326      309.2653       0.44824677     0.13392936   
   6380000  -13.314095      936.05022      922.73612      304.58337      2.5959758      0.13392936   
   6390000  -0.42732161     920.34886      919.92154      299.47427      2.5481173      0.13392936   
   6400000  -57.711245      936.49302      878.78178      304.72745      6.3363585      0.13392936   
   6410000  -29.943213      945.43386      915.49064      307.63673      2.5862945      0.13392936   
   6420000   11.383423      884.29825      895.68167      287.74368     -4.0777727      0.13392936   
   6430000   3.1129055      897.57908      900.69198      292.06516      0.35935631     0.13392936   
   6440000  -20.839989      909.63173      888.79174      295.987       -0.76585267     0.13392936   
   6450000   5.7322953      951.77745      957.50975      309.70088      6.1813019      0.13392936   
   6460000  -21.885897      972.99739      951.11149      316.60568      7.6991734      0.13392936   
   6470000   50.697204      949.36529      1000.0625      308.91599     -4.2530386      0.13392936   
   6480000  -5.0459534      915.55832      910.51236      297.91546     -2.0844938      0.13392936   
   6490000  -38.706868      936.25696      897.5501       304.65064     -6.6859755      0.13392936   
   6500000  -23.824248      907.62369      883.79944      295.3336      -1.1755404      0.13392936   
   6510000  -58.608609      926.4549       867.8463       301.46113      2.3792492      0.13392936   
   6520000  -7.2393775      941.72672      934.48734      306.43046     -1.6625384      0.13392936   
   6530000  -41.384973      925.3593       883.97433      301.10463     -2.7489602      0.13392936   
   6540000  -38.898196      934.04657      895.14837      303.93139      1.6047863      0.13392936   
   6550000   7.3593646      951.45662      958.81599      309.59649     -0.33471586     0.13392936   
   6560000   45.647513      937.51488      983.16239      305.05996      4.2657428      0.13392936   
   6570000  -9.229236       921.87753      912.64829      299.97168     -1.9326692      0.13392936   
   6580000  -1.3600995      871.30945      869.94935      283.51723      2.0354548      0.13392936   
   6590000  -55.964769      936.76545      880.80068      304.8161       4.7708435      0.13392936   
   6600000  -16.027828      939.39674      923.36892      305.6723       3.3784205      0.13392936   
   6610000  -67.56322       927.3513       859.78808      301.75281     -6.4451097      0.13392936   
   6620000  -16.622429      900.704        884.08157      293.08198      2.0832618      0.13392936   
   6630000  -14.082327      870.2853       856.20297      283.18398      1.1312859      0.13392936   
   6640000  -4.4735038      927.4351       922.96159      301.78007     -5.2485049      0.13392936   
   6650000  -66.337288      901.87539      835.5381       293.46315     -0.19322159     0.13392936   
   6660000  -2.0352554      922.55081      920.51555      300.19076      1.8895028      0.13392936   
   6670000   4.1782253      897.00981      901.18804      291.87993     -1.065429       0.13392936   
   6680000  -29.171073      922.41009      893.23902      300.14498      2.2567202      0.13392936   
   6690000  -1.6808592      935.61965      933.93879      304.44326      4.950449       0.13392936   
   6700000  -2.1437594      938.18468      936.04093      305.2779       7.9152982      0.13392936   
   6710000  -5.948935       905.94512      899.99619      294.7874       6.7522399      0.13392936   
   6720000  -20.987992      970.99265      950.00466      315.95336      2.3871941      0.13392936   
   6730000   93.090838      923.57045      1016.6613      300.52255     -4.7907645      0.13392936   
   6740000   82.257455      882.83341      965.09086      287.26704     -3.6443813      0.13392936   
   6750000   81.810512      909.44561      991.25612      295.92644      4.965195       0.13392936   
   6760000   13.77353       955.38607      969.1596       310.8751       6.1230112      0.13392936   
   6770000   28.603524      912.36684      940.97036      296.87698     -4.4593879      0.13392936   
   6780000  -7.8418194      924.45422      916.6124       300.81012      7.3952897      0.13392936   
   6790000   9.5828651      906.90483      916.48769      295.09969      2.3682336      0.13392936   
   6800000  -8.7406764      938.6457       929.90503      305.42792     -1.3753072      0.13392936   
   6810000  -8.798248       909.37643      900.57818      295.90392     -3.6041436      0.13392936   
   6820000   14.069116      940.25327      954.32239      305.95101     -6.9262645      0.13392936   
   6830000  -12.256225      928.75993      916.50371      302.21116      3.8357719      0.13392936   
   6840000   3.7463451      902.2074       905.95374      293.57118      3.8774748      0.13392936   
   6850000   26.774556      883.30669      910.08124      287.42104     -0.4608692      0.13392936   
   6860000   6.8731517      909.26577      916.13892      295.86792      7.0756288      0.13392936   
   6870000   28.487424      928.26823      956.75565      302.05117      1.6456489      0.13392936   
   6880000   42.968812      927.9153       970.88411      301.93633      4.3505473      0.13392936   
   6890000   82.630839      918.64218      1001.273       298.91893     -0.98626079     0.13392936   
   6900000   57.980407      947.18515      1005.1656      308.20659      6.8282099      0.13392936   
   6910000   3.8562765      926.65279      930.50906      301.52552      2.7976013      0.13392936   
   6920000   62.157337      926.71581      988.87315      301.54602      1.9829147      0.13392936   
   6930000   42.211559      953.14686      995.35842      310.14648      6.4888688      0.13392936   
   6940000   40.362302      924.7081       965.0704       300.89273      4.4810129      0.13392936   
   6950000   85.3218        951.36163      1036.6834      309.56558      5.285963       0.13392936   
   6960000   18.762814      922.59252      941.35533      300.20434      4.1990678      0.13392936   
   6970000   24.409729      930.42866      954.83839      302.75415      5.291392       0.13392936   
   6980000   90.041499      928.14416      1018.1857      302.0108      -5.6288237      0.13392936   
   6990000   97.701343      923.70929      1021.4106      300.56773     -1.6439042      0.13392936   
   7000000   17.204705      909.19903      926.40374      295.8462       6.2633822      0.13392936   
[...]
  38410000   55.238425      932.67252      987.91094      303.48429     -0.43736727     0.13392936   
  38420000   60.449292      950.66261      1011.1119      309.33812      1.1398592      0.13392936   
  38430000  -11.607445      899.78329      888.17584      292.78239      4.777592       0.13392936   
  38440000  -15.617068      913.73372      898.11665      297.32175      2.6973888      0.13392936   
  38450000   94.377709      878.50315      972.88085      285.858        3.3709586      0.13392936   
  38460000   56.073083      928.11906      984.19214      302.00263      8.7139931      0.13392936   
  38470000   10.338615      916.42274      926.76136      298.19674     -2.5950071      0.13392936   
  38480000   30.137618      943.934        974.07162      307.14869      3.7471063      0.13392936   
  38490000   18.551925      903.91118      922.4631       294.12557      2.247268       0.13392936   
  38500000   65.26298       961.55549      1026.8185      312.88258     -4.9613391      0.13392936   
  38510000   26.223513      961.92556      988.14907      313.003       -3.180135       0.13392936   
  38520000  -9.8381669      912.32885      902.49069      296.86462     -0.58460536     0.13392936   
  38530000   3.6452817      912.0217       915.66698      296.76467      0.42131185     0.13392936   
  38540000   50.998435      919.00113      969.99957      299.03573      8.9784838      0.13392936   
  38550000   43.509571      942.3898       985.89937      306.64622      6.4499681      0.13392936   
  38560000   16.543455      883.45521      899.99867      287.46937     -0.3646369      0.13392936   
  38570000   18.414923      968.63055      987.04547      315.18475     -1.1464432      0.13392936   
  38580000   52.523456      928.31105      980.83451      302.0651      -0.43715582     0.13392936   
  38590000  -11.789785      918.69814      906.90835      298.93714      3.6187213      0.13392936   
  38600000   18.294829      915.5548       933.84963      297.91432     -1.5531408      0.13392936   
  38610000   0.67488503     880.79634      881.47122      286.60419      2.3647287      0.13392936   
  38620000   63.328236      936.93738      1000.2656      304.87204      2.2600682      0.13392936   
  38630000   17.763384      911.65069      929.41407      296.64395     -3.4568603      0.13392936   
  38640000   45.05334       911.91637      956.96971      296.7304      -1.175883       0.13392936   
  38650000  -4.2761155      960.95682      956.6807       312.68778      8.1789987      0.13392936   
  38660000  -4.8077309      928.368        923.56027      302.08363      5.150104       0.13392936   
  38670000   34.106982      885.07236      919.17935      287.99557     -3.1983968      0.13392936   
  38680000   39.903285      905.95133      945.85461      294.78942      3.4440807      0.13392936   
  38690000   34.590325      956.87765      991.46798      311.36045      1.7922655      0.13392936   
  38700000  -19.779663      914.47547      894.69581      297.56311     -3.1719533      0.13392936   
  38710000  -26.775467      862.61333      835.83787      280.68758     -2.2353073      0.13392936   
  38720000  -65.509057      904.46395      838.95489      294.30544     -3.878956       0.13392936   
  38730000  -9.6196824      905.9152       896.29552      294.77767      3.5873193      0.13392936   
  38740000  -1.369352       918.99875      917.6294       299.03495      6.4329217      0.13392936   
  38750000   19.600365      965.20738      984.80775      314.07088     -4.2547403      0.13392936   
  38760000   50.661336      920.84192      971.50325      299.6347      -2.9330803      0.13392936   
  38770000  -28.567429      911.03322      882.46579      296.44303      2.1745808      0.13392936   
  38780000   20.010501      886.62056      906.63106      288.49935     -4.8930559      0.13392936   
  38790000   12.674089      880.2835       892.95759      286.43732      3.7498905      0.13392936   
  38800000  -45.368037      915.81183      870.44379      297.99795     -2.4565787      0.13392936   
  38810000  -36.59353       882.95027      846.35674      287.30506      4.5160317      0.13392936   
  38820000  -21.211852      963.57299      942.36114      313.53906      0.89999885     0.13392936   
  38830000  -74.14656       892.04486      817.89829      290.26437     -1.8178873      0.13392936   
  38840000  -43.770677      940.90644      897.13576      306.16354     -0.8348737      0.13392936   
  38850000  -20.944421      914.95901      894.01459      297.72045     -0.34361963     0.13392936   
  38860000   4.8436976      947.73493      952.57863      308.38548     -5.0667432      0.13392936   
  38870000  -47.947906      913.94453      865.99663      297.39035      3.7502715      0.13392936   
  38880000   4.5416096      923.26676      927.80837      300.42373      3.1944495      0.13392936   
  38890000  -38.270329      941.96321      903.69288      306.50741      2.5723076      0.13392936   
  38900000  -2.0884654      957.53443      955.44596      311.57416     -4.0498454      0.13392936   
  38910000  -44.097491      939.47168      895.37419      305.69668      6.9335084      0.13392936   
  38920000  -20.422824      928.85318      908.43036      302.24151      4.3771435      0.13392936   
  38930000  -4.2998701      927.37644      923.07657      301.76099     -0.59587314     0.13392936   
  38940000   1.0587391      942.09158      943.15032      306.54918      5.675661       0.13392936   
  38950000   6.6123103      922.22212      928.83443      300.08381     -5.2130429      0.13392936   
  38960000  -3.9716024      869.72007      865.74847      283.00006     -1.5462273      0.13392936   
  38970000   3.9465835      961.17025      965.11683      312.75723     -5.34428        0.13392936   
  38980000  -5.586053       956.45578      950.86973      311.22318     -1.6501923      0.13392936   
  38990000   24.450094      936.94733      961.39742      304.87528     -6.4670923      0.13392936   
  39000000   25.290118      917.14377      942.43389      298.43136      1.26706        0.13392936   
  39010000  -2.7550496      929.52086      926.76581      302.45876      2.3037623      0.13392936   
  39020000  -23.334391      920.16576      896.83137      299.41469      1.9697611      0.13392936   
  39030000   34.33787       924.1976       958.53547      300.72662     -1.2235004      0.13392936   
  39040000   50.502223      907.38271      957.88494      295.25519     -0.30287302     0.13392936   
  39050000   27.297219      921.64013      948.93735      299.89444      6.0004247      0.13392936   
  39060000   33.764022      945.78885      979.55287      307.75224      0.89479042     0.13392936   
  39070000  -32.019546      920.63572      888.61617      299.56761      1.6202807      0.13392936   
  39080000   30.473483      930.52137      960.99485      302.78432     -4.5892631      0.13392936   
  39090000   24.364463      909.12431      933.48878      295.82189      2.225813       0.13392936   
  39100000   1.5472937      935.112        936.6593       304.27808     -0.56762316     0.13392936   
  39110000   9.9223333      944.54926      954.4716       307.34889      4.0934173      0.13392936   
  39120000   23.304877      942.19871      965.50359      306.58404     -2.3920177      0.13392936   
  39130000   77.797913      933.38101      1011.1789      303.71483     -2.1707855      0.13392936   
  39140000   43.851899      931.68116      975.53306      303.16171      4.804676       0.13392936   
  39150000   83.420857      913.30948      996.73033      297.18371     -6.8586078      0.13392936   
  39160000   75.869121      903.59634      979.46546      294.02313     -5.2486248      0.13392936   
  39170000   73.727952      892.06813      965.79608      290.27194      3.3051254      0.13392936   
  39180000  -1.460732       926.77175      925.31101      301.56422     -1.7473046      0.13392936   
  39190000   36.895866      890.5194       927.41526      289.768        1.1095268      0.13392936   
  39200000   19.824548      916.35528      936.17982      298.17479     -6.9252987      0.13392936   
  39210000   71.76797       945.18997      1016.9579      307.55737      3.5559535      0.13392936   
  39220000   13.645966      899.02679      912.67276      292.53624     -1.2098359      0.13392936   
  39230000   29.292831      972.56953      1001.8624      316.46646      2.6304222      0.13392936   
  39240000   24.483523      907.09598      931.5795       295.16188      0.57869001     0.13392936   
  39250000   38.865057      938.29759      977.16264      305.31464     -7.9574414      0.13392936   
  39260000   19.406619      963.57043      982.97704      313.53822     -0.44078979     0.13392936   
  39270000   37.569455      927.67548      965.24494      301.85829      6.8269519      0.13392936   
  39280000   65.160642      922.51321      987.67386      300.17853     -0.092842181    0.13392936   
  39290000  -10.403309      910.74278      900.33947      296.34852     -0.36069537     0.13392936   
  39300000  -1.5323386      939.18998      937.65765      305.60502     -4.6270991      0.13392936   
  39310000   11.040599      910.37247      921.41307      296.22803      1.9915693      0.13392936   
  39320000   9.2559679      917.8093       927.06527      298.64792      4.7868799      0.13392936   
  39330000   36.995306      952.16875      989.16405      309.82821     -9.9308546      0.13392936   
  39340000   86.859859      926.44455      1013.3044      301.45776     -0.10237238     0.13392936   
  39350000   14.692112      946.59624      961.28836      308.01496     -5.6888153      0.13392936   
  39360000   23.834194      924.64615      948.48034      300.87257      2.5726529      0.13392936   
  39370000  -2.0266149      889.66675      887.64013      289.49055     -5.1901403      0.13392936   
  39380000   15.824302      904.91209      920.73639      294.45126      1.8973948      0.13392936   
  39390000   24.06903       962.71054      986.77957      313.25842     -1.3565126      0.13392936   
  39400000   1.4549765      976.80875      978.26373      317.84587      5.1356615      0.13392936   
  39410000   71.607309      919.5058       991.11311      299.19994      1.8873539      0.13392936   
  39420000   118.55422      891.24069      1009.7949      290.0027      -4.0186443      0.13392936   
  39430000   59.44084       896.22889      955.66973      291.62582      3.241013       0.13392936   
  39440000   55.720241      886.17809      941.89833      288.35537      3.1166667      0.13392936   
  39450000   72.566605      902.75712      975.32373      293.75006     -6.0389914      0.13392936   
  39460000   22.376217      893.63318      916.0094       290.7812       3.0236342      0.13392936   
  39470000   38.995322      942.43744      981.43277      306.66172     -4.4934877      0.13392936   
  39480000   81.287906      919.08833      1000.3762      299.0641       1.6016746      0.13392936   
  39490000   84.206426      951.21308      1035.4195      309.51724     -7.7175998      0.13392936   
  39500000   55.61365       893.36296      948.97661      290.69327      0.64672529     0.13392936   
  39510000   49.549123      868.89181      918.44093      282.73055     -3.3547468      0.13392936   
  39520000   40.986009      960.53259      1001.5186      312.54974      2.734208       0.13392936   
  39530000   48.901862      873.15383      922.05569      284.11738      5.4936484      0.13392936   
  39540000   50.019937      913.60154      963.62148      297.27874      5.0259042      0.13392936   
  39550000   48.217591      909.83904      958.05664      296.05446      1.3374161      0.13392936   
  39560000   33.864437      951.94303      985.80747      309.75476     -4.1432427      0.13392936   
  39570000   31.23939       904.75973      935.99912      294.40169      0.18161667     0.13392936   
  39580000  -0.68795353     892.02121      891.33326      290.25667     -9.7005884      0.13392936   
  39590000   15.078902      876.224        891.3029       285.11639     -5.616706       0.13392936   
  39600000  -11.01635       881.9098       870.89345      286.9665      -0.35715544     0.13392936   
  39610000   28.148316      894.62953      922.77784      291.1054       2.7462805      0.13392936   
  39620000  -3.5974491      909.28383      905.68638      295.87379      3.4079774      0.13392936   
  39630000   88.157664      922.8132       1010.9709      300.27614      1.9989174      0.13392936   
  39640000   24.383386      933.14546      957.52884      303.63818      2.4112745      0.13392936   
  39650000  -19.081156      910.89085      891.80969      296.3967       2.4171621      0.13392936   
  39660000   6.7877029      895.93362      902.72132      291.52974      1.9649277      0.13392936   
  39670000  -30.138331      906.67664      876.53831      295.02544      3.255175       0.13392936   
  39680000  -31.553937      893.71358      862.15965      290.80736      0.71070808     0.13392936   
  39690000  -24.184335      970.15735      945.97302      315.68156      0.70500136     0.13392936   
  39700000  -13.698572      870.97453      857.27595      283.40825     -2.7940459      0.13392936   
  39710000   9.8750617      932.31961      942.19467      303.36946      7.3426752      0.13392936   
  39720000   15.225955      906.7169       921.94286      295.03854      2.2444391      0.13392936   
  39730000   11.917658      954.29616      966.21382      310.52045      0.38951554     0.13392936   
  39740000  -13.311499      935.35974      922.04825      304.35869      4.8371494      0.13392936   
  39750000  -32.099613      914.68898      882.58937      297.63259     -2.918702       0.13392936   
  39760000   17.092781      941.21061      958.30339      306.26252      7.0327446      0.13392936   
  39770000   9.2858822      940.17404      949.45992      305.92523      0.77834397     0.13392936   
  39780000   16.272477      947.1732       963.44568      308.2027       4.398572       0.13392936   
  39790000   4.5502274      940.789        945.33923      306.12533     -3.4215086      0.13392936   
  39800000   4.0796271      924.50476      928.58439      300.82656      4.4593069      0.13392936   
  39810000  -39.099124      933.21965      894.12052      303.66232      0.22806034     0.13392936   
  39820000   63.782795      920.94461      984.7274       299.66812     -3.1513675      0.13392936   
  39830000   4.0191534      957.72203      961.74119      311.6352       6.9573763      0.13392936   
  39840000  -9.7062731      914.39122      904.68495      297.5357      -3.5747681      0.13392936   
  39850000   25.058632      954.34513      979.40376      310.53638      1.4141737      0.13392936   
  39860000   30.113839      922.78553      952.89937      300.26714      7.4852385      0.13392936   
  39870000  -43.1208        940.73231      897.61151      306.10688      3.7688681      0.13392936   
  39880000  -53.780134      892.0414       838.26127      290.26324      3.3484246      0.13392936   
  39890000  -15.542788      931.64551      916.10272      303.15011      3.842731       0.13392936   
  39900000  -23.729923      905.09612      881.3662       294.51115      2.1640935      0.13392936   
  39910000  -12.849543      921.1759       908.32636      299.74338      0.1810917      0.13392936   
  39920000  -31.786726      880.08449      848.29777      286.37256     -3.9423093      0.13392936   
  39930000  -29.511535      969.04071      939.52917      315.31821      5.9007521      0.13392936   
  39940000  -16.81232       910.24412      893.4318       296.18627      5.4968997      0.13392936   
  39950000  -14.841277      876.04602      861.20474      285.05847      4.3790114      0.13392936   
  39960000  -43.420295      911.0491       867.6288       296.4482       1.810607       0.13392936   
  39970000  -63.217138      895.31259      832.09545      291.32766      4.8362614      0.13392936   
  39980000  -22.196362      923.22855      901.03218      300.41129      4.8095398      0.13392936   
  39990000   25.205272      950.51203      975.71731      309.28913     -5.823653       0.13392936   
  40000000   5.6638301      893.58925      899.25308      290.7669      -1.4201718      0.13392936   
  40010000   35.117869      898.98763      934.1055       292.52349      5.6124035      0.13392936   
  40020000   28.942887      946.38224      975.32513      307.94533      4.5738025      0.13392936   
  40030000   46.719623      930.35321      977.07283      302.7296      -6.0871853      0.13392936   
  40040000   19.512927      919.06586      938.57879      299.05679     -2.563433       0.13392936   
  40050000   24.694329      898.84003      923.53436      292.47547     -6.6301204      0.13392936   
  40060000   47.73198       932.47167      980.20365      303.41893      2.0610176      0.13392936   
  40070000   18.471284      936.79488      955.26617      304.82567      3.2496069      0.13392936   
  40080000   34.086936      901.96454      936.05148      293.49216     -1.8251679      0.13392936   
  40090000  -8.8897352      939.94134      931.05161      305.84951      0.45187156     0.13392936   
  40100000   23.473878      896.45897      919.93285      291.70069      3.7890861      0.13392936   
  40110000  -17.225027      916.8028       899.57777      298.32041      3.4554066      0.13392936   
  40120000  -35.277216      911.40912      876.13191      296.56535      6.5684619      0.13392936   
  40130000  -12.155173      926.44902      914.29385      301.45921     -2.8673088      0.13392936   
  40140000   10.880326      939.75897      950.63929      305.79016      6.9133757      0.13392936   
  40150000   5.2779739      889.57294      894.85091      289.46003     -5.0897413      0.13392936   
  40160000   63.990751      915.75842      979.74918      297.98058      9.1875203      0.13392936   
  40170000   23.426025      882.7113       906.13732      287.2273       0.47807481     0.13392936   
  40180000  -7.9625159      850.87775      842.91523      276.86892      3.990849       0.13392936   
  40190000  -11.127708      869.63842      858.51072      282.97349     -0.85247724     0.13392936   
  40200000  -37.592218      951.87168      914.27946      309.73154     -0.072281074    0.13392936   
  40210000  -53.648262      935.49869      881.85043      304.4039      -5.203692       0.13392936   
  40220000  -75.271613      940.59741      865.3258       306.06299      6.1900856      0.13392936   
  40230000   5.3754244      925.02066      930.39609      300.99444      2.1417175      0.13392936   
  40240000   48.83409       905.53778      954.37187      294.65486      6.4759388      0.13392936   
  40250000  -20.760099      904.85178      884.09169      294.43164      0.20891126     0.13392936   
  40260000  -21.820452      932.77132      910.95087      303.51644      5.4130423      0.13392936   
  40270000  -42.24386       934.42987      892.186        304.05612     -0.44628832     0.13392936   
  40280000   1.5006879      954.63042      956.13111      310.62922      1.9470017      0.13392936   
  40290000   5.6924316      919.00671      924.69914      299.03754     -3.6356707      0.13392936   
  40300000   4.4300969      928.8308       933.2609       302.23423     -1.3358271      0.13392936   
  40310000  -27.364599      920.67413      893.30953      299.58011     -2.687757       0.13392936   
  40320000   16.787906      869.59151      886.37941      282.95822     -0.89511392     0.13392936   
  40330000  -6.1079647      877.86376      871.75579      285.64995      2.1324944      0.13392936   
  40340000  -0.18463531     931.31777      931.13314      303.04347     -1.1174749      0.13392936   
  40350000  -43.897957      922.15226      878.2543       300.06108      0.58614995     0.13392936   
  40360000  -23.86708       930.0646       906.19752      302.63569      0.61098609     0.13392936   
