
# ===============================
# FORCE FIELD (same as original)
# ===============================
bond_style harmonic
bond_coeff 1 7.5 5.9

angle_style harmonic
angle_coeff 1 5.0 150.0

pair_style hybrid/overlay lj/cut 10.0 base/rna 18.0
pair_modify shift yes
pair_coeff * * lj/cut 2.0 8.9089871814

pair_coeff 1 1 base/rna 0.00000 3.0 13.8 1.5 0.5 1.8326 0.9425 1.8326 1.1345
pair_coeff 1 2 base/rna 0.00000 3.0 13.8 1.5 0.5 1.8326 0.9425 1.8326 1.1345
pair_coeff 1 3 base/rna 0.00000 3.0 13.8 1.5 0.5 1.8326 0.9425 1.8326 1.1345
pair_coeff 1 4 base/rna 3.33333 3.0 13.8 1.5 0.5 1.8326 0.9425 1.8326 1.1345
pair_coeff 2 2 base/rna 0.00000 3.0 13.8 1.5 0.5 1.8326 0.9425 1.8326 1.1345
pair_coeff 2 3 base/rna 5.00000 3.0 13.8 1.5 0.5 1.8326 0.9425 1.8326 1.1345
pair_coeff 2 4 base/rna 0.00000 3.0 13.8 1.5 0.5 1.8326 0.9425 1.8326 1.1345
pair_coeff 3 3 base/rna 0.00000 3.0 13.8 1.5 0.5 1.8326 0.9425 1.8326 1.1345
pair_coeff 3 4 base/rna 3.33333 3.0 13.8 1.5 0.5 1.8326 0.9425 1.8326 1.1345
pair_coeff 4 4 base/rna 0.00000 3.0 13.8 1.5 0.5 1.8326 0.9425 1.8326 1.1345

special_bonds lj 0.0 0.0 1.0
Finding 1-2 1-3 1-4 neighbors ...
  special bond factors lj:    0        0        1       
  special bond factors coul:  0        0        0       
     2 = max # of 1-2 neighbors
     2 = max # of 1-3 neighbors
     4 = max # of 1-4 neighbors
     6 = max # of special neighbors
  special bonds CPU = 0.000 seconds
neighbor 15.0 bin
neigh_modify every 10 delay 0
comm_style tiled
timestep 10

# ===============================
# 1. MINIMIZATION
# ===============================
minimize 1.0e-4 1.0e-6 1000 10000

CITE-CITE-CITE-CITE-CITE-CITE-CITE-CITE-CITE-CITE-CITE-CITE-CITE

Your simulation uses code contributions which should be cited:

- Type Label Framework: https://doi.org/10.1021/acs.jpcb.3c08419

@Article{Gissinger24,
 author = {Jacob R. Gissinger, Ilia Nikiforov, Yaser Afshar, Brendon Waters, Moon-ki Choi, Daniel S. Karls, Alexander Stukowski, Wonpil Im, Hendrik Heinz, Axel Kohlmeyer, and Ellad B. Tadmor},
 title = {Type Label Framework for Bonded Force Fields in LAMMPS},
 journal = {J. Phys. Chem. B},
 year =    2024,
 volume =  128,
 number =  13,
 pages =   {3282–-3297}
}

CITE-CITE-CITE-CITE-CITE-CITE-CITE-CITE-CITE-CITE-CITE-CITE-CITE

Switching to 'neigh_modify every 1 delay 0 check yes' setting during minimization
Generated 0 of 6 mixed pair_coeff terms from geometric mixing rule
Neighbor list info ...
  update: every = 1 steps, delay = 0 steps, check = yes
  max neighbors/atom: 2000, page size: 100000
  master list distance cutoff = 33
  ghost atom cutoff = 33
  binsize = 16.5, bins = 10 10 10
  2 neighbor lists, perpetual/occasional/extra = 2 0 0
  (1) pair lj/cut, perpetual, trim from (2)
      attributes: half, newton on, cut 25
      pair build: trim
      stencil: none
      bin: none
  (2) pair base/rna, perpetual
      attributes: half, newton on
      pair build: half/bin/newton
      stencil: half/bin/3d
      bin: standard
Per MPI rank memory allocation (min/avg/max) = 8.423 | 8.424 | 8.424 Mbytes
   Step          Temp          E_pair         E_mol          TotEng         Press     
         0   0              5.8435938e+10  2470.137       5.843594e+10   3.9129783e+09
      1000   0             -496.14891      17.063692     -479.08522     -0.96398211   
Loop time of 0.634485 on 4 procs for 1000 steps with 1032 atoms

99.2% CPU use with 4 MPI tasks x 1 OpenMP threads

Minimization stats:
  Stopping criterion = max iterations
  Energy initial, next-to-last, final = 
      58435940148.6487  -478.678088174885  -479.085217452221
  Force two-norm initial, final = 7.2600084e+11 4.1017975
  Force max component initial, final = 4.6269509e+11 1.3346761
  Final line search alpha, max atom move = 0.045726934 0.061030646
  Iterations, force evaluations = 1000 1470

MPI task timing breakdown:
Section |  min time  |  avg time  |  max time  |%varavg| %total
---------------------------------------------------------------
Pair    | 0.34463    | 0.43923    | 0.5466     |  11.0 | 69.23
Bond    | 0.027982   | 0.030385   | 0.033368   |   1.4 |  4.79
Neigh   | 0.0033474  | 0.0033573  | 0.0033655  |   0.0 |  0.53
Comm    | 0.037683   | 0.14789    | 0.24481    |  19.5 | 23.31
Output  | 2.3609e-05 | 2.3991e-05 | 2.471e-05  |   0.0 |  0.00
Modify  | 0          | 0          | 0          |   0.0 |  0.00
Other   |            | 0.0136     |            |       |  2.14

Nlocal:            258 ave         283 max         236 min
Histogram: 1 1 0 0 0 0 0 1 0 1
Nghost:            818 ave         848 max         799 min
Histogram: 1 0 1 1 0 0 0 0 0 1
Neighs:        2488.75 ave        2882 max        1935 min
Histogram: 1 0 0 0 0 0 1 1 0 1

Total # of neighbors = 9955
Ave neighs/atom = 9.6463178
Ave special neighs/atom = 4.8255814
Neighbor list builds = 6
Dangerous builds = 0
reset_timestep 0

# ===============================
# 2. OUTPUTS
# ===============================
dump d1 all custom 50000 outputs/${tag}.lammpstrj id mol type q xu yu zu
dump d1 all custom 50000 outputs/100ASO_scrambled_unmodified.lammpstrj id mol type q xu yu zu
dump_modify d1 sort id

thermo_style custom step pe ke etotal temp press density
thermo 10000
thermo_modify flush yes

variable vpe equal pe
variable vke equal ke
variable vT  equal temp
variable vE  equal etotal
variable vRg equal gyration(all)

fix favg all ave/time 10000 10 100000 v_vpe v_vke v_vT v_vE v_vRg     file outputs/thermo_${tag}_averaged.dat
fix favg all ave/time 10000 10 100000 v_vpe v_vke v_vT v_vE v_vRg     file outputs/thermo_100ASO_scrambled_unmodified_averaged.dat

# ===============================
# 3. EQUILIBRATION (NVT)
# ===============================
velocity all create ${T_target} 62047 rot yes dist gaussian
velocity all create 300 62047 rot yes dist gaussian

# Langevin thermostat for equilibration
fix fxlang all langevin ${T_target} ${T_target} 1000.0 10025
fix fxlang all langevin 300 ${T_target} 1000.0 10025
fix fxlang all langevin 300 300 1000.0 10025
fix fxnve  all nve
fix recenter all momentum 1000 linear 1 1 1

# Equilibration run
run 5000000
Generated 0 of 6 mixed pair_coeff terms from geometric mixing rule
Per MPI rank memory allocation (min/avg/max) = 7.314 | 7.314 | 7.314 Mbytes
   Step         PotEng         KinEng         TotEng          Temp          Press         Density    
         0  -479.08522      921.96455      442.87933      300            9.3253486      0.134578     
     10000   364.73164      921.08535      1285.817       299.71392      1.6304534      0.134578     
     20000   272.1553       937.04698      1209.2023      304.9077       3.2212485      0.134578     
     30000   246.84358      907.38352      1154.2271      295.25545      7.1828371      0.134578     
     40000   245.33191      911.24101      1156.5729      296.51065      0.13205506     0.134578     
     50000   211.31093      933.26456      1144.5755      303.67693      0.17630825     0.134578     
     60000   181.63399      912.77829      1094.4123      297.01086     -0.19946143     0.134578     
     70000   181.3095       913.21221      1094.5217      297.15206      5.1670899      0.134578     
     80000   170.57928      926.46785      1097.0471      301.46534      3.1314266      0.134578     
     90000   177.47157      937.33219      1114.8038      305.00051      2.4640581      0.134578     
    100000   145.05653      910.32387      1055.3804      296.21221      0.66498058     0.134578     
    110000   104.06829      902.8035       1006.8718      293.76515     -5.5668462      0.134578     
    120000   147.27288      919.17029      1066.4432      299.09077      3.8028947      0.134578     
    130000   81.422697      903.82283      985.24552      294.09683      2.8041545      0.134578     
    140000   75.243511      928.70977      1003.9533      302.19484     -0.10747296     0.134578     
    150000   82.606378      890.93647      973.54284      289.90371     -3.4471659      0.134578     
    160000   19.41951       924.47505      943.89456      300.8169       0.86856071     0.134578     
    170000   54.37548       954.18163      1008.5571      310.48318      4.3943134      0.134578     
    180000   29.562417      958.32201      987.88443      311.83043     -2.8258174      0.134578     
    190000  -27.20572       905.43667      878.23095      294.62196      6.2971159      0.134578     
    200000   3.7389376      908.13234      911.87128      295.49911      8.6248649      0.134578     
    210000   74.561279      957.10812      1031.6694      311.43544     -3.2771281      0.134578     
    220000   33.962691      931.2034       965.16609      303.00625      7.1811101      0.134578     
    230000   23.813143      962.37486      986.188        313.1492       2.3079339      0.134578     
    240000   42.984506      950.92233      993.90683      309.42263      0.45160911     0.134578     
    250000  -15.752917      919.9226       904.16969      299.33557      1.1274389      0.134578     
    260000   23.89285       886.84369      910.73654      288.57195     -4.9537265      0.134578     
    270000  -22.692087      929.03144      906.33935      302.29951     -0.31132923     0.134578     
    280000  -14.413564      894.40274      879.98917      291.0316       6.5849534      0.134578     
    290000   10.447727      904.18803      914.63576      294.21566      4.0582638      0.134578     
    300000   22.164618      933.23026      955.39487      303.66577     -3.1381174      0.134578     
    310000   10.743232      916.14363      926.88687      298.10592      0.32021634     0.134578     
    320000  -20.049964      951.91986      931.86989      309.74722      0.27118615     0.134578     
    330000  -46.27117       919.26893      872.99776      299.12287      2.2469008      0.134578     
    340000  -15.620095      914.74249      899.1224       297.65        -2.4180707      0.134578     
    350000   28.407343      918.48036      946.8877       298.86627      5.4824009      0.134578     
    360000  -2.3347595      937.37871      935.04395      305.01565     -1.1110091      0.134578     
    370000  -58.079701      916.42369      858.34399      298.19705      0.061269139    0.134578     
    380000   50.133045      923.88         974.01305      300.62327      1.9612014      0.134578     
    390000   30.103621      946.83257      976.9362       308.09186     -0.2772068      0.134578     
    400000   10.213584      938.84833      949.06191      305.49385      4.7525662      0.134578     
    410000  -11.418036      925.21137      913.79334      301.05649      5.3499826      0.134578     
    420000   57.761668      939.19709      996.95876      305.60733     -1.4910418      0.134578     
    430000   16.852899      911.97359      928.82649      296.74902      2.1521411      0.134578     
    440000   20.385843      952.94405      973.32989      310.08049      4.7407555      0.134578     
    450000   29.30621       896.22986      925.53607      291.62614      0.66787779     0.134578     
    460000   1.9151153      901.10315      903.01826      293.21186     -3.4121589      0.134578     
    470000   59.12491       953.77083      1012.8957      310.34951     -7.494994       0.134578     
    480000   75.908881      918.198        994.10688      298.77439      2.5288506      0.134578     
    490000   70.179342      904.79508      974.97442      294.41319      0.04585612     0.134578     
    500000   36.644582      931.60836      968.25295      303.13802     -5.7233193      0.134578     
    510000   38.757995      892.32774      931.08573      290.35641      5.5879892      0.134578     
    520000  -21.110315      919.76798      898.65766      299.28525     -0.3785         0.134578     
    530000   49.054675      915.29216      964.34684      297.82886     -0.0063530302   0.134578     
    540000  -4.1554369      925.19188      921.03644      301.05015      2.3682592      0.134578     
    550000  -1.1778497      974.17616      972.99831      316.98925      5.6748499      0.134578     
    560000   2.3984295      936.4729       938.87133      304.7209       0.34600854     0.134578     
    570000  -15.975861      950.77409      934.79823      309.3744       8.5972465      0.134578     
    580000   26.663619      958.49829      985.16191      311.88779      8.820215       0.134578     
    590000   4.5988019      892.96905      897.56785      290.56509      0.16586505     0.134578     
    600000   0.0084717619   928.24946      928.25793      302.04506      3.1225612      0.134578     
    610000   44.55784       940.35137      984.90921      305.98293      3.3846652      0.134578     
    620000  -6.0547793      928.46283      922.40805      302.11449      4.9410296      0.134578     
    630000  -22.848754      954.84336      931.99461      310.69851      1.8070199      0.134578     
    640000   69.576658      938.63917      1008.2158      305.42579      10.594603      0.134578     
    650000  -21.553593      885.62062      864.06703      288.17397     -1.7091095      0.134578     
    660000   22.891179      933.49347      956.38465      303.75142      0.32083063     0.134578     
    670000  -72.891286      930.9946       858.10331      302.93831      1.5501863      0.134578     
    680000   41.840156      928.47901      970.31916      302.11975     -4.0546014      0.134578     
    690000  -0.68928664     947.28808      946.59879      308.24008     -0.55671846     0.134578     
    700000  -16.510084      958.70391      942.19383      311.9547      -1.9587144      0.134578     
    710000  -76.164181      947.72773      871.56355      308.38314     -1.6872024      0.134578     
    720000  -43.778822      924.77335      880.99453      300.91396      0.088939584    0.134578     
    730000  -16.845823      908.22154      891.37572      295.52813      1.2417382      0.134578     
    740000  -18.826002      942.30287      923.47687      306.61793      2.03011        0.134578     
    750000  -63.363352      933.04573      869.68238      303.60573     -4.2331754      0.134578     
    760000  -20.952694      939.71686      918.76417      305.77646      8.9062638      0.134578     
    770000  -24.035687      932.43508      908.39939      303.40703     -4.1605313      0.134578     
    780000  -63.361424      900.14431      836.78289      292.89987      5.6611202      0.134578     
    790000   15.381149      914.9427       930.32385      297.71514     -0.85015982     0.134578     
    800000  -62.599925      901.03755      838.43762      293.19052     -0.30555138     0.134578     
    810000  -46.454901      894.6758       848.2209       291.12046     -2.5029814      0.134578     
    820000  -43.31344       922.5526       879.23916      300.19135     -0.84981002     0.134578     
    830000  -61.886782      957.36469      895.47791      311.51893      6.3813932      0.134578     
    840000   12.485789      871.00668      883.49247      283.41871      2.8104392      0.134578     
    850000   45.634522      902.56202      948.19654      293.68657      1.2963115      0.134578     
    860000   21.904039      904.70349      926.60752      294.38339      2.0980122      0.134578     
    870000  -20.451972      933.16727      912.7153       303.64528      2.3361091      0.134578     
    880000  -49.110862      965.08676      915.9759       314.03163      0.36263627     0.134578     
    890000  -51.970898      905.12012      853.14922      294.51896      0.27357944     0.134578     
    900000  -31.114701      905.6414       874.5267       294.68858     -2.7787981      0.134578     
    910000  -46.253906      947.19628      900.94238      308.21021      1.4118176      0.134578     
    920000  -34.681446      903.65001      868.96857      294.04059      3.280994       0.134578     
    930000  -4.3643366      927.91639      923.55205      301.93668      1.921145       0.134578     
    940000  -19.62753       936.34016      916.71263      304.67771     -1.1691304      0.134578     
    950000  -73.479963      930.44005      856.96009      302.75786      7.8017095      0.134578     
    960000  -65.647801      921.43568      855.78788      299.82791     -0.31213622     0.134578     
    970000  -59.201083      967.716        908.51491      314.88716     -1.0055768      0.134578     
    980000  -32.091652      976.39327      944.30162      317.71068     -2.8441045      0.134578     
    990000  -29.392242      927.75939      898.36714      301.88559      9.1063781      0.134578     
   1000000   23.076853      932.46991      955.54677      303.41836      4.0813105      0.134578     
   1010000  -21.982403      908.86232      886.87992      295.73664     -3.3545931      0.134578     
   1020000   11.173337      896.14365      907.31699      291.59808      3.6008246      0.134578     
   1030000   31.626232      907.14252      938.76876      295.17703      1.6197027      0.134578     
   1040000   34.207302      923.24223      957.44953      300.41575     -4.8848632      0.134578     
   1050000  -23.17489       930.50177      907.32688      302.77794      1.2623152      0.134578     
   1060000   74.189941      948.04535      1022.2353      308.48649      1.1814834      0.134578     
   1070000  -21.210883      904.47688      883.266        294.30965      1.4533953      0.134578     
   1080000  -40.003547      940.09387      900.09032      305.89914     -2.0977313      0.134578     
   1090000  -6.1099906      926.00119      919.8912       301.31349     -3.309463       0.134578     
   1100000   31.225713      908.28049      939.50621      295.54732     -2.45709        0.134578     
   1110000   20.573823      916.87049      937.44431      298.34243      6.5486027      0.134578     
   1120000   26.520071      951.68793      978.208        309.67175     -3.651095       0.134578     
   1130000  -19.844327      926.19089      906.34657      301.37522      5.8567228      0.134578     
   1140000  -7.6680216      944.30602      936.638        307.26974     -4.8517386      0.134578     
   1150000  -65.998823      888.46407      822.46525      289.09921     -5.947544       0.134578     
   1160000  -1.8658505      894.23214      892.36629      290.97609     -0.48782806     0.134578     
   1170000   18.489065      931.34727      949.83634      303.05306     -0.82322881     0.134578     
   1180000  -30.113155      910.8414       880.72824      296.38061      5.4769109      0.134578     
   1190000  -19.282686      923.8932       904.61051      300.62757     -0.12318051     0.134578     
   1200000  -49.795153      920.40505      870.6099       299.49255      4.4946274      0.134578     
   1210000  -12.832983      866.38553      853.55254      281.91502     -3.4780062      0.134578     
   1220000  -22.153712      895.92465      873.77093      291.52682      4.9973433      0.134578     
   1230000  -18.289286      945.61851      927.32922      307.69681     -6.7967333      0.134578     
   1240000  -42.782932      934.90913      892.12619      304.21206     -0.60232491     0.134578     
   1250000  -26.845273      934.06546      907.22018      303.93754     -2.7649653      0.134578     
   1260000  -23.553829      898.39973      874.8459       292.33219      5.1109518      0.134578     
   1270000  -52.007846      916.94108      864.93323      298.3654       0.557783       0.134578     
   1280000  -55.426518      938.98737      883.56085      305.53909     -1.5069942      0.134578     
   1290000  -28.001238      915.49354      887.4923       297.89438     -3.1521098      0.134578     
   1300000  -25.385126      943.83087      918.44575      307.11513      3.5744825      0.134578     
   1310000   1.653135       950.46781      952.12094      309.27474     -1.5056939      0.134578     
   1320000   6.839267       915.24061      922.07988      297.81208      0.78956587     0.134578     
   1330000  -0.67142108     915.00528      914.33386      297.73551      3.3066366      0.134578     
   1340000   1.150236       900.53547      901.6857       293.02715     -6.4692485      0.134578     
   1350000  -52.214378      903.42592      851.21154      293.96767      2.3252259      0.134578     
   1360000  -24.690319      903.86894      879.17863      294.11183      0.82067996     0.134578     
   1370000  -40.361573      943.45798      903.09641      306.99379      2.8543451      0.134578     
   1380000  -56.047545      968.97084      912.9233       315.29548     -1.1789815      0.134578     
   1390000  -62.913549      876.77295      813.8594       285.29501      10.262384      0.134578     
   1400000  -53.031698      941.54912      888.51742      306.37267      0.57183829     0.134578     
   1410000  -29.313177      895.01571      865.70253      291.23106      4.8069141      0.134578     
   1420000   1.4564216      943.65935      945.11577      307.05932      0.084396641    0.134578     
   1430000  -2.2102831      904.32377      902.11349      294.25983     -6.6718526      0.134578     
   1440000   15.724872      930.53841      946.26329      302.78987      7.1853466      0.134578     
   1450000   0.47808152     989.24232      989.7204       321.89166     -1.3646916      0.134578     
   1460000   20.839717      906.50602      927.34574      294.96992      1.6285724      0.134578     
   1470000   10.421062      980.82036      991.24142      319.15122     -3.9502017      0.134578     
   1480000  -1.4179837      927.41558      925.99759      301.77372     -0.18421509     0.134578     
   1490000  -30.539359      900.95584      870.41648      293.16393      3.658721       0.134578     
   1500000   9.6528503      917.74556      927.39841      298.62717      6.5050296      0.134578     
   1510000  -23.658742      927.48607      903.82733      301.79666     -3.8130667      0.134578     
   1520000  -50.685138      928.54502      877.85988      302.14123     -5.9378973      0.134578     
   1530000  -9.1318231      935.44064      926.30882      304.38501      2.3944692      0.134578     
   1540000   4.4962361      908.42952      912.92576      295.59581     -2.6803899      0.134578     
   1550000  -1.4776832      897.0335       895.55582      291.88763     -2.7009726      0.134578     
   1560000  -24.313243      930.59649      906.28325      302.80877      1.945413       0.134578     
   1570000  -36.916435      934.50127      897.58484      304.07935     -2.4658635      0.134578     
   1580000   23.299697      905.38457      928.68427      294.60501      4.3090874      0.134578     
   1590000   2.0723858      868.45365      870.52603      282.58797      2.0315191      0.134578     
   1600000   8.863663       912.62698      921.49064      296.96163      5.3883142      0.134578     
   1610000  -0.80048423     883.21584      882.41536      287.39148     -1.6811033      0.134578     
   1620000   7.1827754      899.2995       906.48227      292.62497     -2.6828341      0.134578     
   1630000   3.762167       926.28708      930.04925      301.40652      4.3154903      0.134578     
   1640000  -17.148688      946.6458       929.49711      308.03108      5.652364       0.134578     
   1650000   4.5073997      950.54971      955.05711      309.30139      4.8458805      0.134578     
   1660000   9.4695578      937.72033      947.18989      305.12681      0.55928587     0.134578     
   1670000  -1.1480201      960.60297      959.45495      312.57264     -4.7264971      0.134578     
   1680000   36.28711       928.56193      964.84904      302.14673      1.550606       0.134578     
   1690000  -3.9907606      901.25859      897.26783      293.26245     -2.7037397      0.134578     
   1700000  -33.939102      912.06298      878.12388      296.77811     -3.5494248      0.134578     
   1710000  -72.468349      948.54577      876.07742      308.64932      3.6966688      0.134578     
   1720000  -41.71041       890.93032      849.21991      289.90171     -1.3131038      0.134578     
   1730000   38.937608      884.02408      922.96169      287.65447     -2.0145824      0.134578     
   1740000   0.40616331     905.80119      906.20735      294.74057      3.3596357      0.134578     
   1750000   3.8690463      948.65145      952.52049      308.68371      10.472581      0.134578     
   1760000  -65.314757      908.52074      843.20598      295.62549      2.2595997      0.134578     
   1770000  -7.296746       903.82109      896.52435      294.09626     -4.8511609      0.134578     
   1780000  -67.911755      927.63297      859.72122      301.84446     -6.3561634      0.134578     
   1790000  -77.261953      898.64919      821.38723      292.41336     -4.4620967      0.134578     
   1800000  -69.683168      870.35873      800.67556      283.20787      1.1476694      0.134578     
   1810000  -53.826249      910.11374      856.28749      296.14384      3.7422084      0.134578     
   1820000  -34.229046      917.91121      883.68217      298.68108      9.9290649      0.134578     
   1830000  -40.865612      929.12757      888.26196      302.33079      5.0896273      0.134578     
   1840000  -48.988108      928.95837      879.97026      302.27573     -1.5775278      0.134578     
   1850000  -40.268414      934.13888      893.87046      303.96143     -2.1386078      0.134578     
   1860000   9.340608       892.64425      901.98486      290.45941     -6.2451472      0.134578     
   1870000  -4.2764758      951.49674      947.22026      309.60954      6.7774542      0.134578     
   1880000  -27.722808      940.72839      913.00558      306.10561     -2.1760064      0.134578     
   1890000  -21.881672      906.52708      884.64541      294.97677     -4.1877728      0.134578     
   1900000  -81.681257      912.67661      830.99535      296.97778      1.2693669      0.134578     
   1910000  -27.700839      911.05978      883.35894      296.45167      4.7647765      0.134578     
   1920000   18.578969      943.05926      961.63823      306.86405      4.3659948      0.134578     
   1930000  -111.05644      973.93624      862.87979      316.91118     -6.8853193      0.134578     
   1940000  -64.995748      918.98836      853.99262      299.03157     -1.9074649      0.134578     
   1950000  -9.4427429      883.57551      874.13277      287.50851      1.7416509      0.134578     
   1960000  -29.512592      955.72584      926.21325      310.98566      13.605505      0.134578     
   1970000  -0.54725026     896.35896      895.81171      291.66814      1.1223059      0.134578     
   1980000  -38.224667      907.38168      869.15701      295.25485     -1.1252939      0.134578     
   1990000  -32.681198      912.84129      880.16009      297.03136     -2.4429649      0.134578     
   2000000   10.77069       916.09858      926.86928      298.09126     -5.1034716      0.134578     
   2010000  -33.561148      935.22171      901.66056      304.31377     -1.2297183      0.134578     
   2020000   10.811683      951.62596      962.43764      309.65159     -0.023434584    0.134578     
   2030000  -21.768133      899.09496      877.32683      292.55842     -6.7529506      0.134578     
   2040000   0.58206812     942.15228      942.73435      306.56893      6.4006608      0.134578     
   2050000  -26.381529      929.04438      902.66285      302.30372     -2.3610818      0.134578     
   2060000  -21.387997      938.20172      916.81372      305.28345      2.6633554      0.134578     
   2070000   16.682569      909.90313      926.5857       296.07531      5.72346        0.134578     
   2080000   6.6739232      918.95547      925.62939      299.02087     -0.5378426      0.134578     
   2090000   9.1765938      929.62531      938.80191      302.49275     -3.418838       0.134578     
   2100000  -54.853712      940.77498      885.92127      306.12077      11.517067      0.134578     
   2110000  -15.61169       903.08382      887.47213      293.85636     -2.2276902      0.134578     
   2120000  -52.683448      935.63637      882.95293      304.4487       3.1519788      0.134578     
   2130000  -85.259998      896.71128      811.45128      291.78279      5.2044308      0.134578     
   2140000  -14.315473      940.98122      926.66574      306.18787      0.94394075     0.134578     
   2150000  -17.264924      915.36932      898.10439      297.85396     -1.9124464      0.134578     
   2160000  -46.44432       893.24313      846.79881      290.65428      2.5735836      0.134578     
   2170000  -15.352027      886.22689      870.87486      288.37125      2.8343623      0.134578     
   2180000  -85.03508       916.13752      831.10244      298.10393      8.1366283      0.134578     
   2190000  -25.059251      920.70362      895.64436      299.5897       1.7346973      0.134578     
   2200000  -45.874657      930.73157      884.85691      302.85272     -3.1067451      0.134578     
   2210000   1.8804021      948.00165      949.88205      308.47227      7.6493014      0.134578     
   2220000  -82.990995      957.93906      874.94807      311.70582      4.1157208      0.134578     
   2230000  -16.468049      946.39277      929.92472      307.94875      2.0099425      0.134578     
   2240000  -91.993738      876.55729      784.56355      285.22484      0.39772747     0.134578     
   2250000  -77.975589      875.61245      797.63686      284.91739      0.24964505     0.134578     
   2260000  -56.394275      916.26668      859.87241      298.14596      2.0555056      0.134578     
   2270000  -85.44568       908.74083      823.29515      295.69711     -0.2147655      0.134578     
   2280000  -66.000749      920.24643      854.24568      299.44094     -3.4699911      0.134578     
   2290000  -64.362962      899.40061      835.03765      292.65787      2.9794002      0.134578     
   2300000  -27.999708      960.86469      932.86498      312.6578      -3.7599094      0.134578     
   2310000  -2.5553278      911.98423      909.4289       296.75248      5.3043778      0.134578     
   2320000  -5.1311748      932.89385      927.76268      303.55631      2.4227165      0.134578     
   2330000  -31.337592      898.93974      867.60215      292.50791     -3.482843       0.134578     
   2340000  -40.335983      904.86797      864.53198      294.43691     -0.50366125     0.134578     
   2350000  -44.188989      944.10611      899.91712      307.20469     -2.6821825      0.134578     
   2360000  -11.245136      917.64344      906.3983       298.59394      6.3414998      0.134578     
   2370000   9.3692657      962.44657      971.81584      313.17253      3.3229224      0.134578     
   2380000  -7.5198849      865.83117      858.31129      281.73464      0.42949253     0.134578     
   2390000   11.831069      947.2845       959.11557      308.23891      1.8021491      0.134578     
   2400000  -26.052132      911.63083      885.5787       296.63749      2.6356636      0.134578     
   2410000  -30.540768      960.66162      930.12085      312.59172      5.3614545      0.134578     
   2420000  -64.621796      900.46253      835.84073      293.00341     -3.4756452      0.134578     
   2430000  -91.125506      917.4334       826.3079       298.5256       2.9170759      0.134578     
   2440000  -27.285296      921.72286      894.43756      299.92136      9.56712        0.134578     
   2450000  -71.118652      929.09519      857.97654      302.32025     -9.2292216      0.134578     
   2460000  -28.164431      895.73985      867.57542      291.46669      2.898832       0.134578     
   2470000  -37.544448      891.46999      853.92555      290.07731      2.3925487      0.134578     
   2480000  -32.685882      933.14875      900.46287      303.63925      3.3673836      0.134578     
   2490000  -0.078655442    950.03496      949.9563       309.13389      6.6192403      0.134578     
   2500000  -45.675849      894.47447      848.79862      291.05494      1.3782142      0.134578     
   2510000  -37.937349      959.45847      921.52112      312.20023      4.9393496      0.134578     
   2520000  -22.693989      910.24878      887.55479      296.18778      0.69574717     0.134578     
   2530000  -13.071016      928.80628      915.73526      302.22624      2.0044326      0.134578     
   2540000   11.790077      932.19197      943.98205      303.32792      4.9355809      0.134578     
   2550000   8.2221577      917.22232      925.44448      298.45692      6.2428363      0.134578     
   2560000   52.529546      932.73168      985.26123      303.50354      1.284402       0.134578     
   2570000  -2.9461259      906.5636       903.61747      294.98865      0.98919901     0.134578     
   2580000  -6.6466984      970.63742      963.99072      315.83777      3.185203       0.134578     
   2590000  -9.2048144      941.74873      932.54392      306.43762      4.4153675      0.134578     
   2600000  -5.1522692      940.5864       935.43413      306.0594       4.6665269      0.134578     
   2610000   12.54352       902.23971      914.78323      293.58169     -1.1083792      0.134578     
   2620000   39.621775      903.39531      943.01708      293.95772     -3.4163483      0.134578     
   2630000   2.7404218      882.12292      884.86334      287.03585     -3.7496509      0.134578     
   2640000  -46.051423      925.44412      879.3927       301.13223      0.60577937     0.134578     
   2650000  -24.076363      952.72725      928.65089      310.00994     -1.7708059      0.134578     
   2660000   37.787476      907.81284      945.60031      295.39515     -1.6004526      0.134578     
   2670000   83.789836      893.0747       976.86454      290.59947     -3.9312891      0.134578     
   2680000   16.15308       932.17731      948.33039      303.32315      1.3327043      0.134578     
   2690000   22.588178      962.12167      984.70985      313.06681      5.6237663      0.134578     
   2700000   39.321085      914.79676      954.11784      297.66766     -1.7456196      0.134578     
   2710000   35.239682      920.41871      955.65839      299.497       -4.2452269      0.134578     
   2720000   59.655452      883.77322      943.42867      287.57284      0.19389692     0.134578     
   2730000   8.2076967      925.78131      933.98901      301.24194      2.1541098      0.134578     
   2740000   26.025116      913.55255      939.57766      297.2628      -3.5544436      0.134578     
   2750000   52.705617      925.53177      978.23738      301.16074      10.050806      0.134578     
   2760000  -44.639992      898.12912      853.48913      292.24414      5.9309536      0.134578     
   2770000  -16.56673       905.13115      888.56442      294.52255     -0.96242293     0.134578     
   2780000  -39.110401      978.71703      939.60663      318.46681     -0.93399917     0.134578     
   2790000  -16.197652      909.66218      893.46453      295.99691      0.70764181     0.134578     
   2800000   11.417469      924.05155      935.46902      300.67909      3.6720478      0.134578     
   2810000  -8.2219636      924.88374      916.66178      300.94988      1.5054889      0.134578     
   2820000   11.695872      934.68498      946.38086      304.13913      1.2165476      0.134578     
   2830000   6.9359804      899.26264      906.19862      292.61298      4.5222884      0.134578     
   2840000   28.557626      910.25974      938.81737      296.19135      1.2589987      0.134578     
   2850000   36.716376      911.05724      947.77362      296.45085      2.2123582      0.134578     
   2860000  -14.423918      914.99226      900.56834      297.73127      1.2629538      0.134578     
   2870000   72.309664      906.69915      979.00882      295.03276     -0.27677821     0.134578     
   2880000   21.905858      979.35164      1001.2575      318.67331      3.8981528      0.134578     
   2890000   19.964112      911.06069      931.0248       296.45197     -1.2184314      0.134578     
   2900000  -8.7397821      910.43605      901.69627      296.24872      0.90216524     0.134578     
   2910000   29.786465      930.54075      960.32721      302.79063     -1.269288       0.134578     
   2920000   1.5513438      908.76563      910.31697      295.70518      1.2537808      0.134578     
   2930000  -7.7821205      927.05468      919.27256      301.65629     -0.56218571     0.134578     
   2940000   8.9776387      943.0024       951.98004      306.84555      0.81182809     0.134578     
   2950000  -30.648504      942.64404      911.99553      306.72894      1.4525148      0.134578     
   2960000  -16.332385      949.68528      933.3529       309.02011      4.4063698      0.134578     
   2970000   1.2817214      927.52979      928.81151      301.81089     -0.042897774    0.134578     
   2980000   19.070855      911.97714      931.048        296.75018      0.21379294     0.134578     
   2990000   33.73906       938.9224       972.66146      305.51795     -6.387926       0.134578     
   3000000   9.1099301      911.07796      920.18789      296.45759      7.7014107      0.134578     
   3010000   23.131266      944.2518       967.38307      307.2521       1.9124144      0.134578     
   3020000   42.587228      868.2093       910.79653      282.50847      2.9568399      0.134578     
   3030000   30.045192      915.7767       945.82189      297.98652      6.6107821      0.134578     
   3040000  -11.352349      885.03286      873.68051      287.98272     -6.9893015      0.134578     
   3050000   23.973552      933.99058      957.96413      303.91317      4.5526897      0.134578     
   3060000   38.056757      908.49413      946.55089      295.61683     -2.509991       0.134578     
   3070000   28.712927      885.01632      913.72924      287.97734     -1.6981293      0.134578     
   3080000   29.363488      896.9374       926.30088      291.85636      7.3839602      0.134578     
   3090000  -25.339434      868.00754      842.6681       282.44281      2.5775326      0.134578     
   3100000  -43.526493      952.46645      908.93996      309.92508      0.82208915     0.134578     
   3110000  -13.326027      943.67998      930.35395      307.06603      6.0977677      0.134578     
   3120000  -32.69923       909.02298      876.32375      295.78892      9.2018757      0.134578     
   3130000   6.6660874      882.80564      889.47173      287.258        6.6759783      0.134578     
   3140000   73.54701       947.36506      1020.9121      308.26513      9.8657958      0.134578     
   3150000   29.993527      921.20448      951.19801      299.75268     -3.5242102      0.134578     
   3160000   0.84279275     912.96509      913.80788      297.07165      4.7828874      0.134578     
   3170000   32.439753      936.17214      968.61189      304.62304      4.8891386      0.134578     
   3180000  -32.120524      893.26278      861.14226      290.66067      4.6931607      0.134578     
   3190000  -17.966841      900.33433      882.36749      292.9617       3.2735584      0.134578     
   3200000   28.926512      932.68129      961.6078       303.48714     -1.11502        0.134578     
   3210000   32.7741        940.30456      973.07866      305.96769      2.2544254      0.134578     
   3220000   42.91657       929.64993      972.5665       302.50076      1.25037        0.134578     
   3230000   3.6895558      929.11631      932.80586      302.32713      2.381325       0.134578     
   3240000   9.9832414      924.77953      934.76278      300.91597      1.8313472      0.134578     
   3250000   19.985294      930.62013      950.60542      302.81646     -0.055012952    0.134578     
   3260000   13.262398      925.87674      939.13914      301.273        1.6211408      0.134578     
   3270000  -9.0237319      892.50342      883.47969      290.41358     -0.79265055     0.134578     
   3280000  -32.55915       894.82338      862.26423      291.16848     -7.6523105      0.134578     
   3290000  -0.42400252     916.41094      915.98693      298.1929      -1.030461       0.134578     
   3300000   67.29607       918.02329      985.31937      298.71755     -2.638007       0.134578     
   3310000   83.039657      895.34257      978.38222      291.33742      4.19661        0.134578     
   3320000   17.522088      938.47062      955.99271      305.37095      4.8272693      0.134578     
   3330000   25.315401      934.58403      959.89943      304.10628      0.42582521     0.134578     
   3340000  -17.582664      916.18495      898.60229      298.11936     -12.027604      0.134578     
   3350000  -7.4025631      909.74452      902.34196      296.0237       7.3052151      0.134578     
   3360000  -16.072836      933.18282      917.10998      303.65034     -6.5419481      0.134578     
   3370000  -19.955609      931.73489      911.77928      303.17919     -0.68331058     0.134578     
   3380000   9.1608459      951.46906      960.6299       309.60053     -4.0638678      0.134578     
   3390000   28.619351      933.40765      962.027        303.7235      -3.190767       0.134578     
   3400000  -11.329115      871.56752      860.23841      283.60121     -5.5390704      0.134578     
   3410000  -27.09153       915.8177       888.72617      297.99986      4.4072387      0.134578     
   3420000   4.1872908      891.44036      895.62766      290.06767     -3.0593744      0.134578     
   3430000   49.784753      936.44474      986.2295       304.71174      4.1374349      0.134578     
   3440000   37.120564      893.89696      931.01752      290.86703      0.75556837     0.134578     
   3450000  -0.50058986     956.23655      955.73596      311.15184     -1.0777636      0.134578     
   3460000  -1.9756146      950.35303      948.37742      309.23739      0.25075604     0.134578     
   3470000   9.420487       913.86016      923.28065      297.3629      -1.3667919      0.134578     
   3480000   70.227188      973.95         1044.1772      316.91566     -3.4579918      0.134578     
   3490000   56.678561      907.5706       964.24916      295.31632      3.1728999      0.134578     
   3500000   45.667112      944.08706      989.75417      307.19849      5.7898331      0.134578     
   3510000   29.315091      895.6789       924.99399      291.44686     -3.7834646      0.134578     
   3520000  -1.9228572      905.19807      903.27521      294.54432     -0.8148774      0.134578     
   3530000   8.4424219      941.48121      949.92363      306.35057      1.0726513      0.134578     
   3540000   77.200111      916.72013      993.92024      298.29351      4.2148363      0.134578     
   3550000   63.501323      954.09732      1017.5986      310.45575      9.4953073      0.134578     
   3560000   3.502895       909.9538       913.45669      296.0918       2.779603       0.134578     
   3570000   75.075167      957.30459      1032.3798      311.49937      1.1531776      0.134578     
   3580000  -3.832277       916.58605      912.75377      298.24988     -0.61309137     0.134578     
   3590000  -30.489927      920.91632      890.42639      299.65892      1.6221744      0.134578     
   3600000  -29.562077      868.19601      838.63393      282.50414     -2.8191158      0.134578     
   3610000  -56.189795      880.22038      824.03059      286.41678      3.2921852      0.134578     
   3620000  -21.643192      940.67731      919.03411      306.08898      5.894502       0.134578     
   3630000   23.595845      919.00485      942.6007       299.03694      6.3043208      0.134578     
   3640000  -15.68254       926.20613      910.52359      301.38018     -2.0708774      0.134578     
   3650000   24.794867      931.04344      955.8383       302.9542       6.4021608      0.134578     
   3660000   35.694324      949.85662      985.55095      309.07586      2.6015173      0.134578     
   3670000   29.918109      970.97947      1000.8976      315.94907     -4.5307154      0.134578     
   3680000   99.13706       930.70631      1029.8434      302.8445       0.94595489     0.134578     
   3690000   21.493975      917.17284      938.66681      298.44081      4.5983779      0.134578     
   3700000   20.733795      903.89024      924.62404      294.11876     -0.20794419     0.134578     
   3710000   80.336172      914.70501      995.04118      297.6378      -2.7259883      0.134578     
   3720000   67.299606      916.14911      983.44872      298.1077       1.2276743      0.134578     
   3730000   56.018063      949.72689      1005.745       309.03365      7.2629816      0.134578     
   3740000   86.495939      956.62284      1043.1188      311.27754     -0.69022708     0.134578     
   3750000   83.33273       928.04932      1011.382       301.97994      6.8012439      0.134578     
   3760000   32.279127      960.93868      993.2178       312.68187      3.6613828      0.134578     
   3770000   28.072593      880.48736      908.55995      286.50365      6.9566227      0.134578     
   3780000   73.611102      912.27607      985.88717      296.84745     -7.4898163      0.134578     
   3790000   52.747472      923.72318      976.47065      300.57224      0.82243988     0.134578     
   3800000   101.41785      928.75207      1030.1699      302.20861      1.2956461      0.134578     
   3810000   28.427211      928.17863      956.60584      302.02201      9.2901143      0.134578     
   3820000   29.347579      883.44492      912.7925       287.46602     -2.8491983      0.134578     
   3830000  -8.2114725      906.89907      898.68759      295.09781     -3.1601863      0.134578     
   3840000   23.660137      927.37138      951.03151      301.75934      5.4509957      0.134578     
   3850000   23.106658      927.40877      950.51543      301.77151     -0.19049076     0.134578     
   3860000  -0.22594449     931.16449      930.93855      302.99359      2.3316809      0.134578     
   3870000  -11.983027      928.4125       916.42947      302.09811      0.15915462     0.134578     
   3880000   21.97519       932.12105      954.09624      303.30484     -3.4525009      0.134578     
   3890000  -8.3566539      924.78155      916.4249       300.91663     -0.057372526    0.134578     
   3900000  -33.029705      926.04449      893.01479      301.32758     -1.8965151      0.134578     
   3910000  -1.3202228      964.76314      963.44292      313.92632     -0.82560121     0.134578     
   3920000   17.25008       919.53077      936.78085      299.20807     -2.0904364      0.134578     
   3930000   1.6741218      905.16417      906.83829      294.53329     -3.443516       0.134578     
   3940000   57.272732      920.07191      977.34464      299.38415      1.8936339      0.134578     
   3950000   33.404802      965.82315      999.22795      314.27124      1.7982268      0.134578     
   3960000   46.707845      938.2626       984.97045      305.30326      3.3081489      0.134578     
   3970000   42.456223      944.01998      986.4762       307.17666      7.873613       0.134578     
   3980000   37.011298      912.42395      949.43525      296.89557      3.8453021      0.134578     
   3990000  -35.147119      911.57785      876.43073      296.62025     -0.67503651     0.134578     
   4000000   26.019123      923.5933       949.61242      300.52998      6.5780765      0.134578     
   4010000   42.050507      870.53659      912.58709      283.26575     -0.48179732     0.134578     
   4020000   39.047207      913.10385      952.15106      297.1168       0.68608701     0.134578     
   4030000   66.708998      903.55911      970.2681       294.01101      0.69380261     0.134578     
   4040000  -5.4899933      868.6833       863.19331      282.6627       5.9871819      0.134578     
   4050000   5.0895822      929.09443      934.18401      302.32001      6.0941527      0.134578     
   4060000   30.609727      978.34439      1008.9541      318.34556      4.385925       0.134578     
   4070000   10.000955      906.4228       916.42376      294.94284     -1.9332585      0.134578     
   4080000  -13.097948      945.59442      932.49647      307.68897      5.4954786      0.134578     
   4090000   48.382881      931.29217      979.67505      303.03513      1.8882093      0.134578     
   4100000   28.088595      939.45782      967.54642      305.69217     -0.17257494     0.134578     
   4110000   29.98971       930.211        960.20071      302.68333      2.1111244      0.134578     
   4120000   87.23847       893.36972      980.60819      290.69547     -9.9974712      0.134578     
   4130000   22.956852      908.35344      931.31029      295.57105     -6.4903542      0.134578     
   4140000   62.390163      941.97699      1004.3671      306.51189     -2.1461798      0.134578     
   4150000   56.001514      929.12765      985.12916      302.33082      0.61878663     0.134578     
   4160000   70.655198      944.41745      1015.0727      307.306       -7.1838319      0.134578     
   4170000   83.478935      916.54721      1000.0261      298.23724     -2.4788862      0.134578     
   4180000   49.110485      950.50363      999.61412      309.28639      0.63556616     0.134578     
   4190000  -14.198992      932.08736      917.88837      303.29388     -3.334649       0.134578     
   4200000  -18.263123      919.87231      901.60919      299.3192       6.8510405      0.134578     
   4210000  -8.6400246      901.68672      893.0467       293.40175      2.2520077      0.134578     
   4220000   8.0604296      916.8135       924.87393      298.32389     -0.43893995     0.134578     
   4230000  -0.17908936     945.54515      945.36606      307.67294      3.3771087      0.134578     
   4240000   30.588261      921.40704      951.9953       299.81859      10.991244      0.134578     
   4250000  -1.7135712      902.19693      900.48336      293.56777     -1.7715434      0.134578     
   4260000  -39.515664      962.92049      923.40483      313.32674      7.674139       0.134578     
   4270000  -24.54265       921.97438      897.43173      300.0032       0.43260773     0.134578     
   4280000  -2.0612538      939.5458       937.48454      305.7208      -0.14204795     0.134578     
   4290000  -14.811401      948.94795      934.13655      308.78019      4.6819944      0.134578     
   4300000  -4.3504255      914.09122      909.7408       297.43808      6.7410698      0.134578     
   4310000  -9.9686854      947.07134      937.10266      308.16955      10.343066      0.134578     
   4320000   15.157267      877.99487      893.15214      285.69261      6.9377434      0.134578     
   4330000  -7.5000486      940.18496      932.68491      305.92878     -4.8913869      0.134578     
   4340000   50.254949      881.19782      931.45277      286.73483      10.403123      0.134578     
   4350000   24.348662      913.34478      937.69345      297.1952      -4.45065        0.134578     
   4360000   6.3259035      904.52492      910.85082      294.32528      1.621335       0.134578     
   4370000   40.452087      911.95352      952.40561      296.74249     -3.1278021      0.134578     
   4380000  -57.482303      930.00243      872.52013      302.61546      5.1500992      0.134578     
   4390000  -50.940903      916.83755      865.89665      298.33172     -2.8381209      0.134578     
   4400000  -34.724542      914.82759      880.10305      297.67769      0.0086294878   0.134578     
   4410000  -30.174888      968.38612      938.21123      315.10521      5.7588532      0.134578     
   4420000  -14.005525      887.34549      873.33997      288.73523     -4.8976853      0.134578     
   4430000  -5.2105324      914.19342      908.98289      297.47134     -1.4442238      0.134578     
   4440000  -64.510623      982.26239      917.75177      319.62044     -1.3523668      0.134578     
   4450000  -8.311215       918.55515      910.24393      298.89061     -2.7867554      0.134578     
   4460000  -11.085065      903.29076      892.20569      293.92369      2.12717        0.134578     
   4470000   19.569849      938.28978      957.85963      305.3121      -3.7645593      0.134578     
   4480000  -2.0371121      899.35463      897.31752      292.64291     -5.4531416      0.134578     
   4490000  -26.727527      892.85929      866.13177      290.52938     -1.5514281      0.134578     
   4500000  -43.568073      926.88745      883.31938      301.60187      10.38789       0.134578     
   4510000   17.733241      924.65897      942.39221      300.87674      4.4819336      0.134578     
   4520000  -11.609371      908.62264      897.01327      295.65865     -1.9776977      0.134578     
   4530000  -3.2635932      904.0511       900.78751      294.17111      9.6203454      0.134578     
   4540000   22.431274      923.16025      945.59152      300.38907     -0.37318792     0.134578     
   4550000   6.4922494      944.49226      950.98451      307.33034     -2.4754738      0.134578     
   4560000  -20.697931      902.53052      881.83259      293.67632      0.77228276     0.134578     
   4570000   18.853682      898.26394      917.11762      292.28801      6.0357933      0.134578     
   4580000  -11.080916      911.8607       900.77979      296.71229      3.2012938      0.134578     
   4590000  -22.682053      947.71886      925.03681      308.38025     -7.4346023      0.134578     
   4600000  -33.402224      929.96436      896.56213      302.60307      1.7187297      0.134578     
   4610000   12.701878      946.86145      959.56332      308.10125      1.9824198      0.134578     
   4620000  -51.415018      923.14226      871.72724      300.38322      8.8635952      0.134578     
   4630000   16.392368      919.86454      936.25691      299.31667     -4.6439323      0.134578     
   4640000  -3.5556301      923.97201      920.41638      300.65321     -0.068243275    0.134578     
   4650000  -6.3200038      947.25772      940.93772      308.2302       0.62387825     0.134578     
   4660000  -34.249116      897.65715      863.40803      292.09056      2.4877085      0.134578     
   4670000  -22.834562      935.57912      912.74455      304.43007     -11.275407      0.134578     
   4680000  -23.59879       897.80487      874.20608      292.13863      2.879699       0.134578     
   4690000  -13.099077      917.51043      904.41135      298.55066      1.9636324      0.134578     
   4700000  -38.460369      927.82398      889.36361      301.90661     -4.8722418      0.134578     
   4710000  -21.195089      905.7749       884.57981      294.73202      1.7083543      0.134578     
   4720000  -0.77165694     914.62889      913.85723      297.61303     -2.0306179      0.134578     
   4730000   22.340052      939.43961      961.77966      305.68625      7.3966322      0.134578     
   4740000  -60.088847      892.46317      832.37433      290.40048     -1.1815845      0.134578     
   4750000  -115.68177      877.06614      761.38437      285.39041      8.0480188      0.134578     
   4760000  -53.862952      934.25117      880.38822      303.99797     -0.59981467     0.134578     
   4770000  -34.5956        932.65419      898.05859      303.47833     -3.5931801      0.134578     
   4780000  -4.6817414      833.32687      828.64513      271.158       -3.5195406      0.134578     
   4790000   18.753652      904.15479      922.90844      294.20484     -5.1434254      0.134578     
   4800000  -8.0353053      929.45788      921.42257      302.43827     -2.5423017      0.134578     
   4810000  -6.1622283      897.38472      891.22249      292.00192      2.084426       0.134578     
   4820000   7.4560556      936.51731      943.97336      304.73535      0.73035871     0.134578     
   4830000   15.140763      923.59329      938.73405      300.52998     -0.59922653     0.134578     
   4840000  -0.59683069     887.18666      886.58983      288.68355      7.5706618      0.134578     
   4850000   36.586144      945.01235      981.59849      307.49957     -0.53934624     0.134578     
   4860000   18.699517      909.552        928.25152      295.96106     -6.0758579      0.134578     
   4870000  -44.880071      913.47637      868.5963       297.23801     -0.099340633    0.134578     
   4880000   17.347536      950.65957      968.00711      309.33713      1.5157362      0.134578     
   4890000  -7.8388669      945.39091      937.55204      307.62275     -0.84637177     0.134578     
   4900000   13.04344       919.93757      932.98101      299.34044     -2.3715782      0.134578     
   4910000   7.2744111      934.45899      941.7334       304.06559      1.7643575      0.134578     
   4920000  -23.541253      925.63934      902.09809      301.19575      0.010329762    0.134578     
   4930000  -50.218481      909.68128      859.4628       296.00312      7.8207673      0.134578     
   4940000   0.45586042     922.81789      923.27375      300.27767      0.050331957    0.134578     
   4950000   6.0517241      922.52747      928.5792       300.18317      5.6758836      0.134578     
   4960000  -8.3067443      937.92896      929.62222      305.19469      1.8610078      0.134578     
   4970000   2.6515706      946.328        948.97957      307.92767      1.5950493      0.134578     
   4980000   14.34045       927.44624      941.78669      301.7837       5.344287       0.134578     
   4990000  -34.151718      955.44448      921.29276      310.89411     -2.1243895      0.134578     
   5000000   2.0009267      914.50819      916.50912      297.57376      3.7765108      0.134578     
Loop time of 1861.14 on 4 procs for 5000000 steps with 1032 atoms

Performance: 2321.152 ns/day, 0.010 hours/ns, 2686.519 timesteps/s, 2.772 Matom-step/s
99.5% CPU use with 4 MPI tasks x 1 OpenMP threads

MPI task timing breakdown:
Section |  min time  |  avg time  |  max time  |%varavg| %total
---------------------------------------------------------------
Pair    | 1255.4     | 1354.5     | 1436.4     | 177.3 | 72.78
Bond    | 74.268     | 77.334     | 79.646     |  22.2 |  4.16
Neigh   | 4.613      | 4.6158     | 4.6177     |   0.1 |  0.25
Comm    | 301.37     | 385.86     | 489.68     | 345.9 | 20.73
Output  | 0.15422    | 0.2374     | 0.38335    |  18.0 |  0.01
Modify  | 32.362     | 34.308     | 35.735     |  21.1 |  1.84
Other   |            | 4.316      |            |       |  0.23

Nlocal:            258 ave         307 max         203 min
Histogram: 1 0 0 0 0 2 0 0 0 1
Nghost:          994.5 ave        1079 max         947 min
Histogram: 1 1 0 1 0 0 0 0 0 1
Neighs:        2641.25 ave        3173 max        1906 min
Histogram: 1 0 0 0 0 1 0 1 0 1

Total # of neighbors = 10565
Ave neighs/atom = 10.237403
Ave special neighs/atom = 4.8255814
Neighbor list builds = 10549
Dangerous builds = 0

# ===============================
# 4. PRODUCTION
# ===============================
# Reset averages for production
unfix favg
fix favg all ave/time 10000 10 100000 v_vpe v_vke v_vT v_vE v_vRg     file outputs/thermo_${tag}_production.dat
fix favg all ave/time 10000 10 100000 v_vpe v_vke v_vT v_vE v_vRg     file outputs/thermo_100ASO_scrambled_unmodified_production.dat

restart 10000000 outputs/backup_${tag}.*.restart
restart 10000000 outputs/backup_100ASO_scrambled_unmodified.*.restart
run 100000000
Generated 0 of 6 mixed pair_coeff terms from geometric mixing rule
Per MPI rank memory allocation (min/avg/max) = 8.612 | 8.612 | 8.612 Mbytes
   Step         PotEng         KinEng         TotEng          Temp          Press         Density    
   5000000   2.0009267      914.50819      916.50912      297.57376      3.7765108      0.134578     
   5010000  -42.007011      932.86489      890.85788      303.54689     -1.9412047      0.134578     
   5020000  -44.518425      932.3111       887.79268      303.36669      0.045591865    0.134578     
   5030000   15.427427      931.36662      946.79405      303.05936      2.4016061      0.134578     
   5040000  -20.108854      938.28686      918.17801      305.31115      9.1407806      0.134578     
   5050000   62.180584      910.31058      972.49117      296.20789     -4.6356495      0.134578     
   5060000   5.6036861      903.01649      908.62018      293.83445     -5.2774475      0.134578     
   5070000  -21.877599      913.50092      891.62332      297.246        7.8230935      0.134578     
   5080000   9.7021067      916.26728      925.96938      298.14615      4.5781538      0.134578     
   5090000   23.844239      943.26374      967.10798      306.93059      5.9141874      0.134578     
   5100000   47.864416      919.74981      967.61422      299.27934      7.4617426      0.134578     
   5110000   5.8078144      904.20751      910.01533      294.222       -2.9105768      0.134578     
   5120000   18.966903      908.1126       927.0795       295.49268     -2.6778121      0.134578     
   5130000   44.622123      935.94483      980.56695      304.54907      4.3346111      0.134578     
   5140000   2.000956       919.59122      921.59218      299.22774     -0.97466627     0.134578     
   5150000  -11.727356      939.22782      927.50046      305.61733      6.5055034      0.134578     
   5160000   26.564246      921.0664       947.63064      299.70775     -8.8063002      0.134578     
   5170000  -7.9047421      924.09196      916.18722      300.69224      7.5655374      0.134578     
   5180000   5.2885153      902.5497       907.83821      293.68256     -0.29344551     0.134578     
   5190000  -32.804033      951.47863      918.67459      309.60365      12.147228      0.134578     
   5200000  -4.5051366      887.49982      882.99468      288.78545      2.0046708      0.134578     
   5210000  -51.159306      1022.1474      970.98811      332.59871      0.35674849     0.134578     
   5220000  -70.811189      935.98249      865.1713       304.56133      5.1801061      0.134578     
   5230000  -23.288361      945.52438      922.23601      307.66618      0.74833001     0.134578     
   5240000  -6.6565845      916.80829      910.1517       298.32219     -4.255108       0.134578     
   5250000  -4.415699       922.15366      917.73796      300.06153      4.425727       0.134578     
   5260000  -7.1729991      927.20973      920.03673      301.70674     -1.7196044      0.134578     
   5270000   1.079304       936.72587      937.80517      304.80322     -1.7462843      0.134578     
   5280000   10.277486      932.70792      942.98541      303.49581     -4.8480385      0.134578     
   5290000   100.59346      933.36939      1033.9628      303.71104     -0.14670461     0.134578     
   5300000   76.280773      931.73912      1008.0199      303.18057      1.4093155      0.134578     
   5310000   66.740616      929.04124      995.78185      302.3027      -1.0520712      0.134578     
   5320000   22.217241      905.52217      927.73941      294.64978     -0.25257217     0.134578     
   5330000  -6.3309942      926.95024      920.61924      301.6223      -0.057219831    0.134578     
   5340000   44.343831      923.04289      967.38672      300.35088     -0.40496251     0.134578     
   5350000  -36.190921      926.75649      890.56557      301.55926      0.98110104     0.134578     
   5360000   52.23761       930.36925      982.60686      302.73482      5.3710673      0.134578     
   5370000   0.28292249     908.28227      908.56519      295.5479       1.4337771      0.134578     
   5380000   32.134986      946.79536      978.93034      308.07975      5.164832       0.134578     
   5390000  -7.5089532      978.06081      970.55185      318.25328      2.519038       0.134578     
   5400000   24.292719      924.70605      948.99877      300.89206     -2.5481013      0.134578     
   5410000   2.2497164      914.38117      916.63089      297.53243      4.0268104      0.134578     
   5420000  -2.064333       901.67013      899.6058       293.39636     -1.741398       0.134578     
   5430000   8.8477562      919.37978      928.22754      299.15894      1.9751464      0.134578     
   5440000   30.874425      911.50298      942.3774       296.59589      6.8750928      0.134578     
   5450000   11.34363       898.6165       909.96013      292.40273      0.4546201      0.134578     
   5460000   16.744321      959.26525      976.00957      312.13735     -1.665571       0.134578     
   5470000  -19.954001      925.80379      905.84979      301.24926      4.7083607      0.134578     
   5480000  -50.416605      886.31199      835.89539      288.39894     -0.89844654     0.134578     
   5490000  -55.895228      884.00528      828.11006      287.64835      2.9317522      0.134578     
   5500000  -20.031476      941.06113      921.02965      306.21388      4.8132195      0.134578     
   5510000  -30.304507      927.48005      897.17554      301.7947       0.77502866     0.134578     
   5520000  -38.10355       912.77068      874.66713      297.00839      6.0431973      0.134578     
   5530000  -20.992052      941.45971      920.46766      306.34357     -6.1354397      0.134578     
   5540000  -60.679439      924.81456      864.13512      300.92737      2.2687761      0.134578     
   5550000  -26.688278      904.67725      877.98897      294.37485      3.9805965      0.134578     
   5560000  -4.5436521      938.45588      933.91223      305.36615      0.021231205    0.134578     
   5570000  -66.397034      913.20076      846.80373      297.14833      0.35269965     0.134578     
   5580000  -81.845811      948.67757      866.83176      308.69221     -1.4789966      0.134578     
   5590000  -7.0080886      926.74158      919.73349      301.55441      3.4646969      0.134578     
   5600000  -51.903218      950.52209      898.61887      309.2924      -3.8854995      0.134578     
   5610000  -1.7389958      906.7205       904.9815       295.03971      4.0867016      0.134578     
   5620000   21.847515      894.07074      915.91825      290.92357      2.1012955      0.134578     
   5630000  -29.971126      956.14958      926.17846      311.12354      1.7784386      0.134578     
   5640000   2.7836689      931.52681      934.31048      303.11149     -0.39564942     0.134578     
   5650000  -22.220542      929.0433       906.82276      302.30337      1.1323101      0.134578     
   5660000   37.62738       923.98696      961.61434      300.65808     -3.247578       0.134578     
   5670000   22.630018      878.39262      901.02264      285.82204      0.9364405      0.134578     
   5680000  -50.036112      904.27812      854.242        294.24497     -3.8760304      0.134578     
   5690000  -46.888231      928.27929      881.39106      302.05477      1.5392371      0.134578     
   5700000   54.908563      899.96508      954.87365      292.84155     -1.3906776      0.134578     
   5710000  -18.299697      919.40041      901.10071      299.16565      6.6665178      0.134578     
   5720000  -15.712508      900.91571      885.2032       293.15087     -0.056491391    0.134578     
   5730000  -26.059425      916.33615      890.27673      298.16856     -2.7473476      0.134578     
   5740000   28.905043      934.95428      963.85933      304.22676      4.7152348      0.134578     
   5750000   44.887669      918.01849      962.90616      298.71598      4.0795414      0.134578     
   5760000   27.480274      899.88135      927.36162      292.8143      -3.9400804      0.134578     
   5770000  -31.932667      903.13601      871.20335      293.87334      3.395505       0.134578     
   5780000  -50.940722      911.66382      860.7231       296.64822      7.5995863      0.134578     
   5790000  -20.904221      870.03385      849.12962      283.10216     -0.89123942     0.134578     
   5800000  -48.73328       892.7816       844.04832      290.5041       4.0244235      0.134578     
   5810000  -28.87541       947.87871      919.0033       308.43227      2.1113179      0.134578     
   5820000  -36.768296      958.60901      921.84071      311.92382      5.8099631      0.134578     
   5830000  -57.698219      850.37728      792.67906      276.70607      0.03470347     0.134578     
   5840000  -31.020046      918.5163       887.49625      298.87797      1.4933154      0.134578     
   5850000  -55.057806      926.98174      871.92394      301.63256      6.2749103      0.134578     
   5860000  -11.775822      909.37406      897.59824      295.90316      9.6040383      0.134578     
   5870000  -31.347053      924.57003      893.22297      300.8478      -7.5333332      0.134578     
   5880000  -44.158455      921.40901      877.25055      299.81923     -0.024239875    0.134578     
   5890000  -42.000747      914.30893      872.30818      297.50892     -6.4312288      0.134578     
   5900000  -40.536785      935.89317      895.35639      304.53226     -3.3479599      0.134578     
   5910000  -98.340822      911.41515      813.07432      296.56731     -1.1810894      0.134578     
   5920000  -70.783391      898.47878      827.69539      292.35792     -3.2089775      0.134578     
   5930000  -32.546243      904.36271      871.81647      294.2725      -2.3905972      0.134578     
   5940000  -33.476739      904.63052      871.15378      294.35964      0.66392231     0.134578     
   5950000  -69.905087      966.82435      896.91926      314.59702      10.912543      0.134578     
   5960000  -71.121963      923.32692      852.20496      300.44331     -4.0886638      0.134578     
   5970000  -57.288755      905.8744       848.58565      294.76439      4.5011851      0.134578     
   5980000  -12.577932      920.71694      908.13901      299.59404      4.2670732      0.134578     
   5990000   11.319048      943.91499      955.23404      307.1425       4.6806454      0.134578     
   6000000  -19.328929      942.06426      922.73533      306.54029      2.2688367      0.134578     
   6010000  -46.758765      922.76445      876.00568      300.26028      2.4368913      0.134578     
   6020000  -27.395799      946.19588      918.80008      307.88469     -3.1723846      0.134578     
   6030000  -12.815672      955.17328      942.35761      310.80586      3.6782726      0.134578     
   6040000  -67.021122      903.19486      836.17373      293.89249     -0.79466761     0.134578     
   6050000  -42.656929      910.37787      867.72094      296.22979      6.3710093      0.134578     
   6060000  -73.234667      904.69693      831.46226      294.38125      0.43036711     0.134578     
   6070000   4.8999451      936.33322      941.23317      304.67545      6.55005        0.134578     
   6080000  -27.121404      962.09072      934.96931      313.05674      7.4944558      0.134578     
   6090000   7.3171874      907.5594       914.87659      295.31268      4.2817668      0.134578     
   6100000  -23.971666      942.79033      918.81866      306.77654      5.0821274      0.134578     
   6110000   71.641668      917.39273      989.0344       298.51237      5.6125121      0.134578     
   6120000  -1.3323643      942.19361      940.86124      306.58238      5.1517078      0.134578     
   6130000   9.3570368      940.11738      949.47442      305.90679     -0.45374917     0.134578     
   6140000  -19.55127       955.08702      935.53575      310.77779     -2.9090317      0.134578     
   6150000   19.608695      879.29855      898.90725      286.11682     -3.873917       0.134578     
   6160000   0.26980804     894.94855      895.21836      291.20921     -7.5251454      0.134578     
   6170000   57.207472      941.89254      999.10001      306.48441      6.5788658      0.134578     
   6180000  -10.885902      927.15673      916.27082      301.68949     -1.8057612      0.134578     
   6190000   5.9254606      875.32839      881.25385      284.82496      0.92901936     0.134578     
   6200000   10.668851      895.33045      905.9993       291.33347     -3.8116946      0.134578     
   6210000   1.953659       926.61113      928.56479      301.51196      2.1045238      0.134578     
   6220000  -25.959445      879.0949       853.13546      286.05056      1.4402964      0.134578     
   6230000  -7.967464       897.91296      889.9455       292.1738      -6.8003921      0.134578     
   6240000   22.972779      870.81691      893.78969      283.35696      2.700186       0.134578     
   6250000   43.433511      904.99604      948.42955      294.47858      0.74001739     0.134578     
   6260000   44.128978      939.76249      983.89146      305.79131      2.6663609      0.134578     
   6270000   69.822513      952.30286      1022.1254      309.87185     -1.4192587      0.134578     
   6280000   108.83354      922.7825       1031.616       300.26615     -3.7691381      0.134578     
   6290000  -15.242647      924.79616      909.55352      300.92139     -1.9011496      0.134578     
   6300000   33.703617      942.85272      976.55634      306.79685      7.3314756      0.134578     
   6310000   58.554341      903.43983      961.99417      293.9722      -4.4367344      0.134578     
   6320000   51.651279      910.76025      962.41153      296.35421      2.3437492      0.134578     
   6330000  -4.2111535      924.75334      920.54219      300.90745     -1.1803992      0.134578     
   6340000   13.658624      919.52433      933.18295      299.20597     -0.60979781     0.134578     
   6350000  -57.514628      930.07318      872.55856      302.63849      4.4307552      0.134578     
   6360000  -36.817254      918.6194       881.80214      298.91151     -1.4613373      0.134578     
   6370000  -30.119157      947.30552      917.18636      308.24575     -2.2932627      0.134578     
   6380000  -47.438742      942.82801      895.38927      306.78881      1.2801699      0.134578     
   6390000  -53.279491      925.9988       872.7193       301.31271      5.1009242      0.134578     
   6400000   18.722104      923.04338      941.76549      300.35104     -0.16581381     0.134578     
   6410000  -9.4669995      912.07654      902.60954      296.78252      0.44597437     0.134578     
   6420000  -46.795312      943.94625      897.15094      307.15267     -1.1633835      0.134578     
   6430000  -39.543884      925.71216      886.16827      301.21944      4.8318888      0.134578     
   6440000  -25.196591      889.61641      864.41982      289.47417     -1.244232       0.134578     
   6450000  -5.761586       917.40112      911.63954      298.5151       1.7909556      0.134578     
   6460000   15.012091      916.20526      931.21735      298.12597      2.2189449      0.134578     
   6470000   0.13248729     922.00774      922.14022      300.01405      0.32673069     0.134578     
   6480000  -15.873909      915.41809      899.54418      297.86983     -0.82357101     0.134578     
   6490000  -18.493541      915.87638      897.38284      298.01896      1.1364078      0.134578     
   6500000  -15.162479      896.33958      881.1771       291.66184      3.9895091      0.134578     
   6510000   5.6106584      938.90544      944.5161       305.51243      8.699349       0.134578     
   6520000  -19.049172      926.34002      907.29085      301.42374      4.7073232      0.134578     
   6530000   30.263451      917.79081      948.05426      298.6419       3.4593273      0.134578     
   6540000   28.296825      952.90633      981.20315      310.06821     -5.5377543      0.134578     
   6550000   9.0838748      945.46382      954.54769      307.64648      2.2418515      0.134578     
   6560000  -18.880738      904.92419      886.04346      294.4552      -2.8252804      0.134578     
   6570000  -14.050883      937.6605       923.60961      305.10734      1.1890363      0.134578     
   6580000  -24.886457      945.92281      921.03635      307.79583     -0.046051471    0.134578     
   6590000   24.744705      889.8249       914.56961      289.54201     -0.008520165    0.134578     
   6600000   31.186754      917.19796      948.38471      298.44899      3.4616339      0.134578     
   6610000   0.32616508     885.19328      885.51945      288.03492     -3.9294906      0.134578     
   6620000   25.976129      931.0978       957.07393      302.97189      11.422402      0.134578     
   6630000   11.751061      928.09804      939.8491       301.99579     -1.00947        0.134578     
   6640000  -15.69139       886.35929      870.6679       288.41433      3.2157754      0.134578     
   6650000  -4.5502082      912.91965      908.36944      297.05686     -7.498406       0.134578     
   6660000  -20.811251      971.41782      950.60657      316.0917       3.6579549      0.134578     
   6670000   50.82603       906.49351      957.31954      294.96585      1.9603012      0.134578     
   6680000  -52.672108      933.88639      881.21428      303.87927      2.0808111      0.134578     
   6690000   35.231689      898.28731      933.519        292.29561      5.3045351      0.134578     
   6700000   46.507444      914.73902      961.24647      297.64887     -0.21426528     0.134578     
   6710000   16.061256      894.65659      910.71785      291.11421      3.6590281      0.134578     
   6720000   13.466475      924.43604      937.90251      300.8042       0.82124082     0.134578     
   6730000  -2.8322365      972.45976      969.62752      316.43074      6.388124       0.134578     
   6740000   72.576938      932.761        1005.3379      303.51308     -2.4155819      0.134578     
   6750000   47.467308      883.99446      931.46177      287.64483     -6.4923209      0.134578     
   6760000   14.927631      930.71341      945.64104      302.84681      2.028329       0.134578     
   6770000  -6.1174203      917.95005      911.83263      298.69372      11.290014      0.134578     
   6780000  -40.602413      887.13385      846.53143      288.66636     -1.1088465      0.134578     
   6790000   16.933212      879.79796      896.73117      286.27932     -3.5368499      0.134578     
   6800000   7.3258859      917.18764      924.51352      298.44563      5.3514106      0.134578     
   6810000  -1.9477932      926.17526      924.22747      301.37013     -4.0467016      0.134578     
   6820000  -38.154303      942.70698      904.55267      306.74942      2.0451929      0.134578     
   6830000  -20.825589      915.04474      894.21915      297.74835      3.5497867      0.134578     
   6840000   4.932374       919.71059      924.64297      299.26658     -5.7278089      0.134578     
   6850000  -22.756542      944.2851       921.52856      307.26293      2.1806         0.134578     
   6860000   18.992696      921.8018       940.7945       299.94704      3.4711347      0.134578     
   6870000   20.596841      908.64871      929.24555      295.66713      1.7730607      0.134578     
   6880000  -7.0694455      960.41072      953.34128      312.51008      2.6863374      0.134578     
   6890000   54.592647      898.82699      953.41964      292.47122      8.6015337      0.134578     
   6900000   15.276923      959.23352      974.51044      312.12703     -5.3159272      0.134578     
   6910000   11.156013      938.55788      949.71389      305.39934     -3.251692       0.134578     
   6920000  -16.568061      910.94739      894.37933      296.4151      -8.6183176      0.134578     
   6930000  -0.89873589     941.88818      940.98945      306.48299     -6.4793256      0.134578     
   6940000  -4.9490161      937.80413      932.85512      305.15408     -4.6176862      0.134578     
   6950000  -11.610242      907.085        895.47476      295.15831     -2.8562552      0.134578     
   6960000  -30.412466      947.10771      916.69524      308.18139     -1.9724174      0.134578     
   6970000  -32.652849      919.1151       886.46225      299.07281      2.4610722      0.134578     
   6980000  -2.7009603      894.41762      891.71666      291.03645     -5.2510714      0.134578     
   6990000  -32.696123      942.52365      909.82753      306.68977     -0.39879458     0.134578     
   7000000   0.62419902     899.58018      900.20438      292.7163      -5.1196701      0.134578     
[...]
  37760000  -3.9824612      930.20513      926.22267      302.68142     -1.2024188      0.134578     
  37770000   3.2503136      905.13637      908.38669      294.52424      6.8049809      0.134578     
  37780000  -2.8891544      920.55581      917.66666      299.54161      5.2611155      0.134578     
  37790000   22.657477      931.58442      954.2419       303.13023     -3.3899788      0.134578     
  37800000  -36.171978      942.83081      906.65884      306.78972     -1.3043709      0.134578     
  37810000  -7.821154       865.61182      857.79067      281.66327     -4.9190366      0.134578     
  37820000  -29.576756      929.64247      900.06571      302.49833      12.446209      0.134578     
  37830000   3.4956848      895.68831      899.184        291.44992     -3.8600538      0.134578     
  37840000  -23.433976      894.15679      870.72281      290.95157      3.5311292      0.134578     
  37850000   23.810834      947.42043      971.23127      308.28314      5.7495243      0.134578     
  37860000  -14.090851      930.31488      916.22403      302.71713     -1.8859653      0.134578     
  37870000   24.65594       986.95233      1011.6083      321.14651      1.6851641      0.134578     
  37880000   3.1245229      951.41753      954.54205      309.58377     -1.6561977      0.134578     
  37890000   26.286485      897.85346      924.13995      292.15444     -6.6009213      0.134578     
  37900000   28.147372      929.16838      957.31575      302.34407      10.797081      0.134578     
  37910000   36.72454       925.97345      962.69799      301.30447     -0.019564328    0.134578     
  37920000   13.662836      963.3459       977.00874      313.46517     -4.1162614      0.134578     
  37930000   45.015641      905.4022       950.41784      294.61074      1.7779496      0.134578     
  37940000   11.862925      884.75499      896.61791      287.8923       1.5920968      0.134578     
  37950000   84.650954      882.25427      966.90522      287.07859     -0.35671507     0.134578     
  37960000   26.55899       917.12323      943.68222      298.42467     -4.2298641      0.134578     
  37970000   37.359006      939.93443      977.29344      305.84726      0.085911268    0.134578     
  37980000   17.514252      917.3415       934.85575      298.4957       4.5483751      0.134578     
  37990000   61.619966      923.17254      984.7925       300.39307     -3.4899964      0.134578     
  38000000   24.074606      931.80261      955.87721      303.20123      2.4163669      0.134578     
  38010000   25.261883      910.81371      936.07559      296.3716       10.455652      0.134578     
  38020000   61.370171      924.12479      985.49497      300.70293      5.4614286      0.134578     
  38030000   37.207929      930.99742      968.20534      302.93922      0.68224438     0.134578     
  38040000   5.4626695      907.03127      912.49394      295.14083      0.46675436     0.134578     
  38050000   75.848224      870.36656      946.21479      283.21042     -3.694639       0.134578     
  38060000   21.066464      899.80752      920.87398      292.79028     -0.3890122      0.134578     
  38070000   13.274875      922.19886      935.47374      300.07624      1.6149756      0.134578     
  38080000   20.717076      867.28572      888.0028       282.20794     -0.3287983      0.134578     
  38090000   20.098339      950.46173      970.56007      309.27276      2.3244542      0.134578     
  38100000   12.680245      919.56795      932.2482       299.22017      3.6146359      0.134578     
  38110000   42.357615      902.07202      944.42963      293.52713     -3.063049       0.134578     
  38120000   4.2924051      926.96891      931.26132      301.62838      1.2288702      0.134578     
  38130000  -47.275573      924.08522      876.80964      300.69005      3.5175548      0.134578     
  38140000  -37.614591      905.44287      867.82828      294.62397      0.4340811      0.134578     
  38150000   12.69934       924.67563      937.37497      300.88217     -2.2039575      0.134578     
  38160000   5.9461369      918.4655       924.41164      298.86144      0.3440746      0.134578     
  38170000   19.060871      895.57864      914.63951      291.41423      1.7682059      0.134578     
  38180000  -11.104254      893.02826      881.924        290.58436      3.2706709      0.134578     
  38190000  -32.915302      894.07492      861.15962      290.92494      0.6166253      0.134578     
  38200000  -15.286449      913.11415      897.8277       297.12015      1.4162557      0.134578     
  38210000  -25.803864      894.14766      868.34379      290.9486      -2.0571562      0.134578     
  38220000   2.2998838      911.22388      913.52377      296.50507     -0.64043347     0.134578     
  38230000  -19.667256      947.17977      927.51251      308.20483     -1.058799       0.134578     
  38240000  -29.663709      942.64894      912.98523      306.73054      5.6304471      0.134578     
  38250000   9.4456918      944.69361      954.1393       307.39586     -0.54723938     0.134578     
  38260000   4.1717511      903.02906      907.20081      293.83854     -2.2522393      0.134578     
  38270000   19.588366      895.45287      915.04124      291.37331     -6.9730639      0.134578     
  38280000  -1.7558456      905.19129      903.43544      294.54211     -6.6182787      0.134578     
  38290000   44.203089      967.40119      1011.6043      314.78473     -1.1220068      0.134578     
  38300000  -2.8826161      925.18377      922.30115      301.04751     -0.65292456     0.134578     
  38310000  -2.9236594      894.66939      891.74573      291.11837     -1.5643172      0.134578     
  38320000  -32.712849      952.01817      919.30532      309.77921      4.9991645      0.134578     
  38330000   64.480205      968.73966      1033.2199      315.22025      6.1675354      0.134578     
  38340000   21.784863      912.97888      934.76374      297.07613     -2.7100919      0.134578     
  38350000   24.37532       968.723        993.09832      315.21483     -3.4291686      0.134578     
  38360000   25.317255      896.83686      922.15412      291.82365     -1.1617612      0.134578     
  38370000   68.057613      926.88169      994.9393       301.6          0.50879781     0.134578     
  38380000   19.329547      944.11636      963.44591      307.20802      6.6233642      0.134578     
  38390000   43.269003      924.32283      967.59183      300.76737     -3.1649176      0.134578     
  38400000  -31.099574      891.18746      860.08788      289.98538      4.3357551      0.134578     
  38410000   22.915654      938.10817      961.02383      305.25301      2.3599216      0.134578     
  38420000  -44.005875      932.50296      888.49709      303.42912     -1.3777727      0.134578     
  38430000  -1.326994       893.67574      892.34874      290.79504      0.71964087     0.134578     
  38440000  -2.9243841      946.18956      943.26518      307.88263      1.4676867      0.134578     
  38450000  -7.0874511      930.56505      923.4776       302.79854     -2.4090428      0.134578     
  38460000   20.388099      935.2531       955.6412       304.32399      11.655754      0.134578     
  38470000  -44.464548      890.24892      845.78438      289.67999      4.8765187      0.134578     
  38480000  -46.069814      960.64123      914.57141      312.58509      0.9105221      0.134578     
  38490000   23.238626      976.34372      999.58234      317.69455      1.6973469      0.134578     
  38500000   24.805807      901.02871      925.83452      293.18764      2.8306338      0.134578     
  38510000   44.33501       919.68624      964.02125      299.25866      4.2088303      0.134578     
  38520000   45.573049      909.6793       955.25235      296.00248     -1.6214089      0.134578     
  38530000   70.388692      891.91813      962.30682      290.22313     -3.9951668      0.134578     
  38540000   17.315516      893.16473      910.48025      290.62877      0.88638058     0.134578     
  38550000   24.086407      903.23671      927.32312      293.90611      0.45033224     0.134578     
  38560000  -2.1295083      934.02959      931.90009      303.92587      8.1582003      0.134578     
  38570000   8.4977067      884.01268      892.51038      287.65076      1.8085555      0.134578     
  38580000   46.535122      947.80485      994.33997      308.40823      2.9278673      0.134578     
  38590000   22.896391      953.40594      976.30233      310.23078      6.2645225      0.134578     
  38600000   2.7001213      931.25756      933.95768      303.02387     -0.13537103     0.134578     
  38610000  -20.903783      927.20875      906.30497      301.70642      3.8749961      0.134578     
  38620000   5.58186        936.11339      941.69525      304.60392     -3.7372057      0.134578     
  38630000   0.34376561     926.83047      927.17423      301.58333      2.1495205      0.134578     
  38640000  -1.623996       899.22601      897.60201      292.60106      2.8984863      0.134578     
  38650000  -13.035259      929.49586      916.46061      302.45063      5.9477151      0.134578     
  38660000  -31.080776      884.04767      852.96689      287.66215      4.7670946      0.134578     
  38670000   15.17231       939.59437      954.76668      305.73661      3.0647547      0.134578     
  38680000  -50.993713      908.84329      857.84958      295.73045      0.27076441     0.134578     
  38690000   38.460209      892.3356       930.79581      290.35897      3.6551149      0.134578     
  38700000  -27.740283      915.29356      887.55328      297.82931      2.173954       0.134578     
  38710000   26.355912      956.69417      983.05008      311.30074     -0.88077554     0.134578     
  38720000   42.618643      943.99953      986.61818      307.17001     -0.63506359     0.134578     
  38730000  -37.016538      909.90121      872.88467      296.07469      2.8321216      0.134578     
  38740000   14.332182      925.23318      939.56536      301.06359      3.1933875      0.134578     
  38750000  -7.2966799      969.3996       962.10292      315.43499      0.96082856     0.134578     
  38760000   41.584906      934.92703      976.51194      304.21789      11.022164      0.134578     
  38770000  -21.876256      918.66104      896.78478      298.92506      5.4359594      0.134578     
  38780000   48.693951      952.91176      1001.6057      310.06998      4.0572209      0.134578     
  38790000   31.228124      932.18268      963.41081      303.3249       2.329102       0.134578     
  38800000   48.228535      926.20384      974.43238      301.37943      0.73495382     0.134578     
  38810000   42.044322      876.17174      918.21607      285.09938     -2.6391203      0.134578     
  38820000   39.785176      933.85648      973.64166      303.86954     -3.4490257      0.134578     
  38830000   10.599934      931.13615      941.73609      302.98437      4.3800331      0.134578     
  38840000  -46.08122       946.7828       900.70158      308.07566     -2.7128636      0.134578     
  38850000  -88.592233      895.62659      807.03436      291.42984      5.3895193      0.134578     
  38860000  -64.640713      915.9181       851.27739      298.03253      3.5219758      0.134578     
  38870000  -0.43878739     911.8566       911.41781      296.71095      2.8278782      0.134578     
  38880000  -14.834969      882.37472      867.53975      287.11778     -4.6686319      0.134578     
  38890000  -28.598469      931.23259      902.63412      303.01575     -1.1648863      0.134578     
  38900000  -34.395696      974.1934       939.7977       316.99486      2.1163191      0.134578     
  38910000  -0.22332578     965.3195       965.09617      314.10736      1.4511638      0.134578     
  38920000  -19.661949      916.65689      896.99494      298.27293     -5.000114       0.134578     
  38930000   44.284719      969.04734      1013.3321      315.32037     -3.1895374      0.134578     
  38940000   39.46955       946.54797      986.01752      307.99925     -4.5065398      0.134578     
  38950000   57.783096      950.48611      1008.2692      309.28069      3.3851409      0.134578     
  38960000  -6.451153       915.60285      909.1517       297.92995     -3.2947491      0.134578     
  38970000   10.140358      929.53485      939.67521      302.46332      10.183845      0.134578     
  38980000  -54.515925      874.06061      819.54468      284.41244      0.95484652     0.134578     
  38990000   10.563272      914.28843      924.8517       297.50225      4.4965835      0.134578     
  39000000  -0.93845677     942.46881      941.53035      306.67193     -1.8116141      0.134578     
  39010000  -4.7482954      961.39931      956.65102      312.83176     -2.2762005      0.134578     
  39020000  -9.2851034      962.91864      953.63354      313.32614      0.17100671     0.134578     
  39030000  -39.470657      936.05224      896.58158      304.58402     -7.3287297      0.134578     
  39040000  -35.785521      933.62029      897.83477      303.79269     -4.6079101      0.134578     
  39050000  -43.802754      917.12418      873.32143      298.42498      2.0573521      0.134578     
  39060000  -3.4302209      948.18967      944.75945      308.53345      5.5072247      0.134578     
  39070000  -5.2415238      936.21458      930.97306      304.63685      0.6778186      0.134578     
  39080000  -35.77985       896.97502      861.19517      291.8686      -2.0714651      0.134578     
  39090000  -28.461974      974.22941      945.76744      317.00657     -2.3318597      0.134578     
  39100000  -60.860063      957.46416      896.6041       311.55129      1.7928743      0.134578     
  39110000  -25.364861      937.82687      912.462        305.16147     -1.8642269      0.134578     
  39120000   3.1071082      947.41862      950.52573      308.28256      0.40644273     0.134578     
  39130000  -4.775499       884.57535      879.79985      287.83385      1.2940419      0.134578     
  39140000   11.90513       957.60803      969.51316      311.59811      1.5221351      0.134578     
  39150000   52.327334      937.63974      989.96707      305.10058      1.2661458      0.134578     
  39160000   61.691158      971.75105      1033.4422      316.20014      3.6509162      0.134578     
  39170000   1.3624639      941.50312      942.86558      306.3577       3.1375049      0.134578     
  39180000   48.126711      923.67788      971.8046       300.55751      10.264069      0.134578     
  39190000   60.484836      947.03815      1007.523       308.15875      1.3003597      0.134578     
  39200000  -43.586319      924.52387      880.93755      300.83278      4.1224519      0.134578     
  39210000   23.786634      967.25654      991.04317      314.73766      3.5919184      0.134578     
  39220000  -3.8326248      896.90397      893.07135      291.84549     -4.4791983      0.134578     
  39230000  -3.8679016      904.70656      900.83866      294.38439      3.0085034      0.134578     
  39240000  -9.1565421      945.73601      936.57947      307.73505     -1.2409188      0.134578     
  39250000  -11.424211      950.84673      939.42252      309.39803     -2.9177777      0.134578     
  39260000  -44.403699      908.31007      863.90637      295.55694      9.204646       0.134578     
  39270000  -54.760822      924.48148      869.72066      300.81899     -3.1517857      0.134578     
  39280000  -24.328607      902.3078       877.97919      293.60385      6.3586847      0.134578     
  39290000  -38.987317      935.34837      896.36105      304.35499     -5.494568       0.134578     
  39300000  -11.773022      935.69827      923.92525      304.46884      3.3425587      0.134578     
  39310000  -27.715856      913.99389      886.27803      297.40641     -1.2854595      0.134578     
  39320000   30.611848      901.61421      932.22605      293.37816      1.9338984      0.134578     
  39330000  -38.132904      886.07037      847.93747      288.32032     -4.8104795      0.134578     
  39340000   30.746307      897.21739      927.9637       291.94747      4.9632099      0.134578     
  39350000   33.521968      945.61317      979.13514      307.69507     -5.4137512      0.134578     
  39360000  -7.496867       938.25635      930.75949      305.30123      1.4895094      0.134578     
  39370000  -25.518641      949.07375      923.55511      308.82112     -4.8980618      0.134578     
  39380000   21.170431      907.46194      928.63237      295.28097     -3.3416302      0.134578     
  39390000   26.079884      949.29271      975.3726       308.89237      0.57440804     0.134578     
  39400000  -70.180916      936.32607      866.14516      304.67313      1.634864       0.134578     
  39410000  -32.909967      954.11943      921.20947      310.46295     -1.5040109      0.134578     
  39420000  -82.85758       931.54434      848.68676      303.11719      2.0686387      0.134578     
  39430000  -101.14374      902.35425      801.21051      293.61896      1.1405773      0.134578     
  39440000  -20.688329      892.77591      872.08758      290.50225     -8.2507202      0.134578     
  39450000  -91.675533      916.79463      825.11909      298.31775      0.89567966     0.134578     
  39460000  -57.825382      917.64696      859.82158      298.59509      4.4934         0.134578     
  39470000   21.311875      875.66884      896.98072      284.93574      4.5160499      0.134578     
  39480000  -24.732286      908.78554      884.05326      295.71166      0.76861653     0.134578     
  39490000   35.055106      901.16761      936.22272      293.23284     -6.6002406      0.134578     
  39500000  -0.07571159     910.3705       910.29479      296.22739     -6.910798       0.134578     
  39510000   9.2842003      889.72824      899.01244      289.51056     -3.2522394      0.134578     
  39520000   5.7856625      928.33369      934.11936      302.07247     -0.35577516     0.134578     
  39530000   6.9733138      921.59436      928.56768      299.87954      1.2349509      0.134578     
  39540000  -1.6395423      873.78672      872.14718      284.32332     -0.62994206     0.134578     
  39550000   20.396696      932.73287      953.12957      303.50393     -5.8675825      0.134578     
  39560000  -6.3129665      901.73731      895.42435      293.41822      0.73434957     0.134578     
  39570000   17.074743      920.75311      937.82785      299.60581      0.47224749     0.134578     
  39580000  -29.767921      897.814        868.04608      292.1416      -0.014008395    0.134578     
  39590000   25.524403      901.57446      927.09886      293.36523      3.9916105      0.134578     
  39600000   25.182382      928.85266      954.03504      302.24134      6.3026833      0.134578     
  39610000   92.828427      867.55684      960.38526      282.29616     -7.0823878      0.134578     
  39620000   69.40414       933.05258      1002.4567      303.60796     -5.2827584      0.134578     
  39630000   91.213545      926.97007      1018.1836      301.62876      1.6255952      0.134578     
  39640000   22.989805      880.35338      903.34319      286.46006      0.13469231     0.134578     
  39650000   29.490396      887.94423      917.43462      288.93006      1.004794       0.134578     
  39660000  -0.37693151     930.92528      930.54835      302.91575      10.091752      0.134578     
  39670000   21.548308      882.56658      904.11489      287.18021     -2.9756545      0.134578     
  39680000   27.824992      930.18133      958.00632      302.67367      0.92756878     0.134578     
  39690000   13.401302      905.58276      918.98406      294.66949      5.210286       0.134578     
  39700000   18.451842      906.49265      924.94449      294.96557      4.2279931      0.134578     
  39710000  -28.851793      940.13372      911.28192      305.9121      -1.4059373      0.134578     
