LAMMPS data file - 12mer extended ASO - 1 Docked + 99 Free + 1 Hairpin

1232 atoms
1131 bonds
1030 angles

4 atom types
1 bond types
1 angle types

-80.000000 80.000000 xlo xhi
-80.000000 80.000000 ylo yhi
-80.000000 80.000000 zlo zhi

Masses

1 329.20
2 305.20
3 345.20
4 306.20

Atoms

1 1 3 0.000000 -5.578000 20.548000 -14.353000
2 1 3 0.000000 -1.739000 18.304000 -16.435000
3 1 3 0.000000 4.202000 17.473000 -16.900000
4 1 2 0.000000 10.109000 16.307000 -15.724000
5 1 4 0.000000 13.892000 12.359000 -14.367000
6 1 3 0.000000 14.357000 7.101000 -12.805000
7 1 4 0.000000 17.219000 3.213000 -11.194000
8 1 4 0.000000 17.160000 -2.611000 -7.841000
9 1 4 0.000000 13.781000 -7.106000 -4.529000
10 1 4 0.000000 8.598000 -10.572000 -3.502000
11 1 1 0.000000 3.415000 -14.038000 -2.475000
12 1 1 0.000000 -1.768000 -17.504000 -1.448000
13 2 3 0.000000 6.200000 -18.293000 1.303000
14 2 2 0.000000 11.826000 -16.769000 -0.282000
15 2 4 0.000000 14.864000 -14.582000 -4.893000
16 2 3 0.000000 14.993000 -11.956000 -10.484000
17 2 1 0.000000 12.426000 -9.940000 -15.598000
18 2 2 0.000000 7.732000 -7.606000 -17.857000
19 2 4 0.000000 3.763000 -3.183000 -18.318000
20 2 4 0.000000 1.611000 0.624000 -14.480000
21 2 4 0.000000 0.089000 3.321000 -9.329000
22 2 2 0.000000 2.466000 6.071000 -5.189000
23 2 1 0.000000 6.436000 9.150000 -2.157000
24 2 3 0.000000 8.843000 14.297000 -1.868000
25 2 2 0.000000 9.022000 19.873000 -3.800000
26 2 2 0.000000 8.786000 23.869000 -7.968000
27 2 2 0.000000 6.160000 28.412000 -10.146000
28 2 2 0.000000 11.347000 31.588000 -11.576000
29 2 1 0.000000 12.725000 25.899000 -11.465000
30 2 1 0.000000 12.008000 20.723000 -14.164000
31 2 1 0.000000 16.188000 17.160000 -11.527000
32 2 2 0.000000 19.755000 13.589000 -10.756000
33 2 1 0.000000 19.715000 8.246000 -7.924000
34 2 1 0.000000 17.704000 3.884000 -4.612000
35 2 1 0.000000 14.080000 -0.712000 -1.421000
36 2 1 0.000000 9.302000 -2.868000 -0.830000
37 2 1 0.000000 4.380000 -5.707000 -2.379000
38 2 1 0.000000 -0.876000 -7.526000 -5.386000
39 2 3 0.000000 -2.393000 -11.401000 -8.758000
40 2 4 0.000000 -0.063000 -15.859000 -11.557000
41 2 2 0.000000 3.680000 -20.032000 -13.782000
42 2 1 0.000000 8.300000 -23.997000 -14.294000
43 2 3 0.000000 11.532000 -27.040000 -10.381000
44 2 2 0.000000 12.517000 -29.449000 -5.237000
45 3 3 0.000000 -54.530573 -38.949294 -69.521238
46 3 3 0.000000 -50.691573 -41.193294 -71.603238
47 3 3 0.000000 -44.750573 -42.024294 -72.068238
48 3 2 0.000000 -38.843573 -43.190294 -70.892238
49 3 4 0.000000 -35.060573 -47.138294 -69.535238
50 3 3 0.000000 -34.595573 -52.396294 -67.973238
51 3 4 0.000000 -31.733573 -56.284294 -66.362238
52 3 4 0.000000 -31.792573 -62.108294 -63.009238
53 3 4 0.000000 -35.171573 -66.603294 -59.697238
54 3 4 0.000000 -40.354573 -70.069294 -58.670238
55 3 1 0.000000 -45.537573 -73.535294 -57.643238
56 3 1 0.000000 -50.720573 -77.001294 -56.616238
57 4 3 0.000000 0.307886 45.385244 -67.407232
58 4 3 0.000000 4.146886 43.141244 -69.489232
59 4 3 0.000000 10.087886 42.310244 -69.954232
60 4 2 0.000000 15.994886 41.144244 -68.778232
61 4 4 0.000000 19.777886 37.196244 -67.421232
62 4 3 0.000000 20.242886 31.938244 -65.859232
63 4 4 0.000000 23.104886 28.050244 -64.248232
64 4 4 0.000000 23.045886 22.226244 -60.895232
65 4 4 0.000000 19.666886 17.731244 -57.583232
66 4 4 0.000000 14.483886 14.265244 -56.556232
67 4 1 0.000000 9.300886 10.799244 -55.529232
68 4 1 0.000000 4.117886 7.333244 -54.502232
69 5 3 0.000000 20.293751 3.242316 -41.414418
70 5 3 0.000000 24.132751 0.998316 -43.496418
71 5 3 0.000000 30.073751 0.167316 -43.961418
72 5 2 0.000000 35.980751 -0.998684 -42.785418
73 5 4 0.000000 39.763751 -4.946684 -41.428418
74 5 3 0.000000 40.228751 -10.204684 -39.866418
75 5 4 0.000000 43.090751 -14.092684 -38.255418
76 5 4 0.000000 43.031751 -19.916684 -34.902418
77 5 4 0.000000 39.652751 -24.411684 -31.590418
78 5 4 0.000000 34.469751 -27.877684 -30.563418
79 5 1 0.000000 29.286751 -31.343684 -29.536418
80 5 1 0.000000 24.103751 -34.809684 -28.509418
81 6 3 0.000000 -52.964311 67.847401 -66.319752
82 6 3 0.000000 -49.125311 65.603401 -68.401752
83 6 3 0.000000 -43.184311 64.772401 -68.866752
84 6 2 0.000000 -37.277311 63.606401 -67.690752
85 6 4 0.000000 -33.494311 59.658401 -66.333752
86 6 3 0.000000 -33.029311 54.400401 -64.771752
87 6 4 0.000000 -30.167311 50.512401 -63.160752
88 6 4 0.000000 -30.226311 44.688401 -59.807752
89 6 4 0.000000 -33.605311 40.193401 -56.495752
90 6 4 0.000000 -38.788311 36.727401 -55.468752
91 6 1 0.000000 -43.971311 33.261401 -54.441752
92 6 1 0.000000 -49.154311 29.795401 -53.414752
93 7 3 0.000000 -12.836581 -12.577950 39.988159
94 7 3 0.000000 -8.997581 -14.821950 37.906159
95 7 3 0.000000 -3.056581 -15.652950 37.441159
96 7 2 0.000000 2.850419 -16.818950 38.617159
97 7 4 0.000000 6.633419 -20.766950 39.974159
98 7 3 0.000000 7.098419 -26.024950 41.536159
99 7 4 0.000000 9.960419 -29.912950 43.147159
100 7 4 0.000000 9.901419 -35.736950 46.500159
101 7 4 0.000000 6.522419 -40.231950 49.812159
102 7 4 0.000000 1.339419 -43.697950 50.839159
103 7 1 0.000000 -3.843581 -47.163950 51.866159
104 7 1 0.000000 -9.026581 -50.629950 52.893159
105 8 3 0.000000 19.030448 -8.428316 9.486558
106 8 3 0.000000 22.869448 -10.672316 7.404558
107 8 3 0.000000 28.810448 -11.503316 6.939558
108 8 2 0.000000 34.717448 -12.669316 8.115558
109 8 4 0.000000 38.500448 -16.617316 9.472558
110 8 3 0.000000 38.965448 -21.875316 11.034558
111 8 4 0.000000 41.827448 -25.763316 12.645558
112 8 4 0.000000 41.768448 -31.587316 15.998558
113 8 4 0.000000 38.389448 -36.082316 19.310558
114 8 4 0.000000 33.206448 -39.548316 20.337558
115 8 1 0.000000 28.023448 -43.014316 21.364558
116 8 1 0.000000 22.840448 -46.480316 22.391558
117 9 3 0.000000 10.772466 -8.181717 -31.974896
118 9 3 0.000000 14.611466 -10.425717 -34.056896
119 9 3 0.000000 20.552466 -11.256717 -34.521896
120 9 2 0.000000 26.459466 -12.422717 -33.345896
121 9 4 0.000000 30.242466 -16.370717 -31.988896
122 9 3 0.000000 30.707466 -21.628717 -30.426896
123 9 4 0.000000 33.569466 -25.516717 -28.815896
124 9 4 0.000000 33.510466 -31.340717 -25.462896
125 9 4 0.000000 30.131466 -35.835717 -22.150896
126 9 4 0.000000 24.948466 -39.301717 -21.123896
127 9 1 0.000000 19.765466 -42.767717 -20.096896
128 9 1 0.000000 14.582466 -46.233717 -19.069896
129 10 3 0.000000 -63.325539 39.354906 -43.275933
130 10 3 0.000000 -59.486539 37.110906 -45.357933
131 10 3 0.000000 -53.545539 36.279906 -45.822933
132 10 2 0.000000 -47.638539 35.113906 -44.646933
133 10 4 0.000000 -43.855539 31.165906 -43.289933
134 10 3 0.000000 -43.390539 25.907906 -41.727933
135 10 4 0.000000 -40.528539 22.019906 -40.116933
136 10 4 0.000000 -40.587539 16.195906 -36.763933
137 10 4 0.000000 -43.966539 11.700906 -33.451933
138 10 4 0.000000 -49.149539 8.234906 -32.424933
139 10 1 0.000000 -54.332539 4.768906 -31.397933
140 10 1 0.000000 -59.515539 1.302906 -30.370933
141 11 3 0.000000 -41.311866 -44.540764 58.570919
142 11 3 0.000000 -37.472866 -46.784764 56.488919
143 11 3 0.000000 -31.531866 -47.615764 56.023919
144 11 2 0.000000 -25.624866 -48.781764 57.199919
145 11 4 0.000000 -21.841866 -52.729764 58.556919
146 11 3 0.000000 -21.376866 -57.987764 60.118919
147 11 4 0.000000 -18.514866 -61.875764 61.729919
148 11 4 0.000000 -18.573866 -67.699764 65.082919
149 11 4 0.000000 -21.952866 -72.194764 68.394919
150 11 4 0.000000 -27.135866 -75.660764 69.421919
151 11 1 0.000000 -32.318866 -79.126764 70.448919
152 11 1 0.000000 -37.501866 -82.592764 71.475919
153 12 3 0.000000 39.777945 74.546040 13.417123
154 12 3 0.000000 43.616945 72.302040 11.335123
155 12 3 0.000000 49.557945 71.471040 10.870123
156 12 2 0.000000 55.464945 70.305040 12.046123
157 12 4 0.000000 59.247945 66.357040 13.403123
158 12 3 0.000000 59.712945 61.099040 14.965123
159 12 4 0.000000 62.574945 57.211040 16.576123
160 12 4 0.000000 62.515945 51.387040 19.929123
161 12 4 0.000000 59.136945 46.892040 23.241123
162 12 4 0.000000 53.953945 43.426040 24.268123
163 12 1 0.000000 48.770945 39.960040 25.295123
164 12 1 0.000000 43.587945 36.494040 26.322123
165 13 3 0.000000 -23.573918 16.312077 61.898716
166 13 3 0.000000 -19.734918 14.068077 59.816716
167 13 3 0.000000 -13.793918 13.237077 59.351716
168 13 2 0.000000 -7.886918 12.071077 60.527716
169 13 4 0.000000 -4.103918 8.123077 61.884716
170 13 3 0.000000 -3.638918 2.865077 63.446716
171 13 4 0.000000 -0.776918 -1.022923 65.057716
172 13 4 0.000000 -0.835918 -6.846923 68.410716
173 13 4 0.000000 -4.214918 -11.341923 71.722716
174 13 4 0.000000 -9.397918 -14.807923 72.749716
175 13 1 0.000000 -14.580918 -18.273923 73.776716
176 13 1 0.000000 -19.763918 -21.739923 74.803716
177 14 3 0.000000 48.440097 40.913120 35.790727
178 14 3 0.000000 52.279097 38.669120 33.708727
179 14 3 0.000000 58.220097 37.838120 33.243727
180 14 2 0.000000 64.127097 36.672120 34.419727
181 14 4 0.000000 67.910097 32.724120 35.776727
182 14 3 0.000000 68.375097 27.466120 37.338727
183 14 4 0.000000 71.237097 23.578120 38.949727
184 14 4 0.000000 71.178097 17.754120 42.302727
185 14 4 0.000000 67.799097 13.259120 45.614727
186 14 4 0.000000 62.616097 9.793120 46.641727
187 14 1 0.000000 57.433097 6.327120 47.668727
188 14 1 0.000000 52.250097 2.861120 48.695727
189 15 3 0.000000 -38.759176 5.210615 -53.331452
190 15 3 0.000000 -34.920176 2.966615 -55.413452
191 15 3 0.000000 -28.979176 2.135615 -55.878452
192 15 2 0.000000 -23.072176 0.969615 -54.702452
193 15 4 0.000000 -19.289176 -2.978385 -53.345452
194 15 3 0.000000 -18.824176 -8.236385 -51.783452
195 15 4 0.000000 -15.962176 -12.124385 -50.172452
196 15 4 0.000000 -16.021176 -17.948385 -46.819452
197 15 4 0.000000 -19.400176 -22.443385 -43.507452
198 15 4 0.000000 -24.583176 -25.909385 -42.480452
199 15 1 0.000000 -29.766176 -29.375385 -41.453452
200 15 1 0.000000 -34.949176 -32.841385 -40.426452
201 16 3 0.000000 35.525731 -10.971735 24.838835
202 16 3 0.000000 39.364731 -13.215735 22.756835
203 16 3 0.000000 45.305731 -14.046735 22.291835
204 16 2 0.000000 51.212731 -15.212735 23.467835
205 16 4 0.000000 54.995731 -19.160735 24.824835
206 16 3 0.000000 55.460731 -24.418735 26.386835
207 16 4 0.000000 58.322731 -28.306735 27.997835
208 16 4 0.000000 58.263731 -34.130735 31.350835
209 16 4 0.000000 54.884731 -38.625735 34.662835
210 16 4 0.000000 49.701731 -42.091735 35.689835
211 16 1 0.000000 44.518731 -45.557735 36.716835
212 16 1 0.000000 39.335731 -49.023735 37.743835
213 17 3 0.000000 52.108066 24.945313 -55.448932
214 17 3 0.000000 55.947066 22.701313 -57.530932
215 17 3 0.000000 61.888066 21.870313 -57.995932
216 17 2 0.000000 67.795066 20.704313 -56.819932
217 17 4 0.000000 71.578066 16.756313 -55.462932
218 17 3 0.000000 72.043066 11.498313 -53.900932
219 17 4 0.000000 74.905066 7.610313 -52.289932
220 17 4 0.000000 74.846066 1.786313 -48.936932
221 17 4 0.000000 71.467066 -2.708687 -45.624932
222 17 4 0.000000 66.284066 -6.174687 -44.597932
223 17 1 0.000000 61.101066 -9.640687 -43.570932
224 17 1 0.000000 55.918066 -13.106687 -42.543932
225 18 3 0.000000 -49.381808 -24.607691 16.316903
226 18 3 0.000000 -45.542808 -26.851691 14.234903
227 18 3 0.000000 -39.601808 -27.682691 13.769903
228 18 2 0.000000 -33.694808 -28.848691 14.945903
229 18 4 0.000000 -29.911808 -32.796691 16.302903
230 18 3 0.000000 -29.446808 -38.054691 17.864903
231 18 4 0.000000 -26.584808 -41.942691 19.475903
232 18 4 0.000000 -26.643808 -47.766691 22.828903
233 18 4 0.000000 -30.022808 -52.261691 26.140903
234 18 4 0.000000 -35.205808 -55.727691 27.167903
235 18 1 0.000000 -40.388808 -59.193691 28.194903
236 18 1 0.000000 -45.571808 -62.659691 29.221903
237 19 3 0.000000 45.729655 65.523841 -61.276957
238 19 3 0.000000 49.568655 63.279841 -63.358957
239 19 3 0.000000 55.509655 62.448841 -63.823957
240 19 2 0.000000 61.416655 61.282841 -62.647957
241 19 4 0.000000 65.199655 57.334841 -61.290957
242 19 3 0.000000 65.664655 52.076841 -59.728957
243 19 4 0.000000 68.526655 48.188841 -58.117957
244 19 4 0.000000 68.467655 42.364841 -54.764957
245 19 4 0.000000 65.088655 37.869841 -51.452957
246 19 4 0.000000 59.905655 34.403841 -50.425957
247 19 1 0.000000 54.722655 30.937841 -49.398957
248 19 1 0.000000 49.539655 27.471841 -48.371957
249 20 3 0.000000 18.059860 -26.407407 -36.637294
250 20 3 0.000000 21.898860 -28.651407 -38.719294
251 20 3 0.000000 27.839860 -29.482407 -39.184294
252 20 2 0.000000 33.746860 -30.648407 -38.008294
253 20 4 0.000000 37.529860 -34.596407 -36.651294
254 20 3 0.000000 37.994860 -39.854407 -35.089294
255 20 4 0.000000 40.856860 -43.742407 -33.478294
256 20 4 0.000000 40.797860 -49.566407 -30.125294
257 20 4 0.000000 37.418860 -54.061407 -26.813294
258 20 4 0.000000 32.235860 -57.527407 -25.786294
259 20 1 0.000000 27.052860 -60.993407 -24.759294
260 20 1 0.000000 21.869860 -64.459407 -23.732294
261 21 3 0.000000 10.932069 31.334253 48.084948
262 21 3 0.000000 14.771069 29.090253 46.002948
263 21 3 0.000000 20.712069 28.259253 45.537948
264 21 2 0.000000 26.619069 27.093253 46.713948
265 21 4 0.000000 30.402069 23.145253 48.070948
266 21 3 0.000000 30.867069 17.887253 49.632948
267 21 4 0.000000 33.729069 13.999253 51.243948
268 21 4 0.000000 33.670069 8.175253 54.596948
269 21 4 0.000000 30.291069 3.680253 57.908948
270 21 4 0.000000 25.108069 0.214253 58.935948
271 21 1 0.000000 19.925069 -3.251747 59.962948
272 21 1 0.000000 14.742069 -6.717747 60.989948
273 22 3 0.000000 -57.039139 53.562665 27.180817
274 22 3 0.000000 -53.200139 51.318665 25.098817
275 22 3 0.000000 -47.259139 50.487665 24.633817
276 22 2 0.000000 -41.352139 49.321665 25.809817
277 22 4 0.000000 -37.569139 45.373665 27.166817
278 22 3 0.000000 -37.104139 40.115665 28.728817
279 22 4 0.000000 -34.242139 36.227665 30.339817
280 22 4 0.000000 -34.301139 30.403665 33.692817
281 22 4 0.000000 -37.680139 25.908665 37.004817
282 22 4 0.000000 -42.863139 22.442665 38.031817
283 22 1 0.000000 -48.046139 18.976665 39.058817
284 22 1 0.000000 -53.229139 15.510665 40.085817
285 23 3 0.000000 -5.142933 14.040356 47.504423
286 23 3 0.000000 -1.303933 11.796356 45.422423
287 23 3 0.000000 4.637067 10.965356 44.957423
288 23 2 0.000000 10.544067 9.799356 46.133423
289 23 4 0.000000 14.327067 5.851356 47.490423
290 23 3 0.000000 14.792067 0.593356 49.052423
291 23 4 0.000000 17.654067 -3.294644 50.663423
292 23 4 0.000000 17.595067 -9.118644 54.016423
293 23 4 0.000000 14.216067 -13.613644 57.328423
294 23 4 0.000000 9.033067 -17.079644 58.355423
295 23 1 0.000000 3.850067 -20.545644 59.382423
296 23 1 0.000000 -1.332933 -24.011644 60.409423
297 24 3 0.000000 -36.766996 80.907933 -72.075198
298 24 3 0.000000 -32.927996 78.663933 -74.157198
299 24 3 0.000000 -26.986996 77.832933 -74.622198
300 24 2 0.000000 -21.079996 76.666933 -73.446198
301 24 4 0.000000 -17.296996 72.718933 -72.089198
302 24 3 0.000000 -16.831996 67.460933 -70.527198
303 24 4 0.000000 -13.969996 63.572933 -68.916198
304 24 4 0.000000 -14.028996 57.748933 -65.563198
305 24 4 0.000000 -17.407996 53.253933 -62.251198
306 24 4 0.000000 -22.590996 49.787933 -61.224198
307 24 1 0.000000 -27.773996 46.321933 -60.197198
308 24 1 0.000000 -32.956996 42.855933 -59.170198
309 25 3 0.000000 47.820367 81.616025 -57.797649
310 25 3 0.000000 51.659367 79.372025 -59.879649
311 25 3 0.000000 57.600367 78.541025 -60.344649
312 25 2 0.000000 63.507367 77.375025 -59.168649
313 25 4 0.000000 67.290367 73.427025 -57.811649
314 25 3 0.000000 67.755367 68.169025 -56.249649
315 25 4 0.000000 70.617367 64.281025 -54.638649
316 25 4 0.000000 70.558367 58.457025 -51.285649
317 25 4 0.000000 67.179367 53.962025 -47.973649
318 25 4 0.000000 61.996367 50.496025 -46.946649
319 25 1 0.000000 56.813367 47.030025 -45.919649
320 25 1 0.000000 51.630367 43.564025 -44.892649
321 26 3 0.000000 56.558081 13.974089 -40.258871
322 26 3 0.000000 60.397081 11.730089 -42.340871
323 26 3 0.000000 66.338081 10.899089 -42.805871
324 26 2 0.000000 72.245081 9.733089 -41.629871
325 26 4 0.000000 76.028081 5.785089 -40.272871
326 26 3 0.000000 76.493081 0.527089 -38.710871
327 26 4 0.000000 79.355081 -3.360911 -37.099871
328 26 4 0.000000 79.296081 -9.184911 -33.746871
329 26 4 0.000000 75.917081 -13.679911 -30.434871
330 26 4 0.000000 70.734081 -17.145911 -29.407871
331 26 1 0.000000 65.551081 -20.611911 -28.380871
332 26 1 0.000000 60.368081 -24.077911 -27.353871
333 27 3 0.000000 1.234215 -24.442993 53.895788
334 27 3 0.000000 5.073215 -26.686993 51.813788
335 27 3 0.000000 11.014215 -27.517993 51.348788
336 27 2 0.000000 16.921215 -28.683993 52.524788
337 27 4 0.000000 20.704215 -32.631993 53.881788
338 27 3 0.000000 21.169215 -37.889993 55.443788
339 27 4 0.000000 24.031215 -41.777993 57.054788
340 27 4 0.000000 23.972215 -47.601993 60.407788
341 27 4 0.000000 20.593215 -52.096993 63.719788
342 27 4 0.000000 15.410215 -55.562993 64.746788
343 27 1 0.000000 10.227215 -59.028993 65.773788
344 27 1 0.000000 5.044215 -62.494993 66.800788
345 28 3 0.000000 -6.090899 55.497110 -20.929272
346 28 3 0.000000 -2.251899 53.253110 -23.011272
347 28 3 0.000000 3.689101 52.422110 -23.476272
348 28 2 0.000000 9.596101 51.256110 -22.300272
349 28 4 0.000000 13.379101 47.308110 -20.943272
350 28 3 0.000000 13.844101 42.050110 -19.381272
351 28 4 0.000000 16.706101 38.162110 -17.770272
352 28 4 0.000000 16.647101 32.338110 -14.417272
353 28 4 0.000000 13.268101 27.843110 -11.105272
354 28 4 0.000000 8.085101 24.377110 -10.078272
355 28 1 0.000000 2.902101 20.911110 -9.051272
356 28 1 0.000000 -2.280899 17.445110 -8.024272
357 29 3 0.000000 -11.587684 16.543988 -60.416764
358 29 3 0.000000 -7.748684 14.299988 -62.498764
359 29 3 0.000000 -1.807684 13.468988 -62.963764
360 29 2 0.000000 4.099316 12.302988 -61.787764
361 29 4 0.000000 7.882316 8.354988 -60.430764
362 29 3 0.000000 8.347316 3.096988 -58.868764
363 29 4 0.000000 11.209316 -0.791012 -57.257764
364 29 4 0.000000 11.150316 -6.615012 -53.904764
365 29 4 0.000000 7.771316 -11.110012 -50.592764
366 29 4 0.000000 2.588316 -14.576012 -49.565764
367 29 1 0.000000 -2.594684 -18.042012 -48.538764
368 29 1 0.000000 -7.777684 -21.508012 -47.511764
369 30 3 0.000000 54.002584 12.653826 43.340449
370 30 3 0.000000 57.841584 10.409826 41.258449
371 30 3 0.000000 63.782584 9.578826 40.793449
372 30 2 0.000000 69.689584 8.412826 41.969449
373 30 4 0.000000 73.472584 4.464826 43.326449
374 30 3 0.000000 73.937584 -0.793174 44.888449
375 30 4 0.000000 76.799584 -4.681174 46.499449
376 30 4 0.000000 76.740584 -10.505174 49.852449
377 30 4 0.000000 73.361584 -15.000174 53.164449
378 30 4 0.000000 68.178584 -18.466174 54.191449
379 30 1 0.000000 62.995584 -21.932174 55.218449
380 30 1 0.000000 57.812584 -25.398174 56.245449
381 31 3 0.000000 44.624270 -1.176144 -16.271693
382 31 3 0.000000 48.463270 -3.420144 -18.353693
383 31 3 0.000000 54.404270 -4.251144 -18.818693
384 31 2 0.000000 60.311270 -5.417144 -17.642693
385 31 4 0.000000 64.094270 -9.365144 -16.285693
386 31 3 0.000000 64.559270 -14.623144 -14.723693
387 31 4 0.000000 67.421270 -18.511144 -13.112693
388 31 4 0.000000 67.362270 -24.335144 -9.759693
389 31 4 0.000000 63.983270 -28.830144 -6.447693
390 31 4 0.000000 58.800270 -32.296144 -5.420693
391 31 1 0.000000 53.617270 -35.762144 -4.393693
392 31 1 0.000000 48.434270 -39.228144 -3.366693
393 32 3 0.000000 -4.628538 -22.096460 -53.792737
394 32 3 0.000000 -0.789538 -24.340460 -55.874737
395 32 3 0.000000 5.151462 -25.171460 -56.339737
396 32 2 0.000000 11.058462 -26.337460 -55.163737
397 32 4 0.000000 14.841462 -30.285460 -53.806737
398 32 3 0.000000 15.306462 -35.543460 -52.244737
399 32 4 0.000000 18.168462 -39.431460 -50.633737
400 32 4 0.000000 18.109462 -45.255460 -47.280737
401 32 4 0.000000 14.730462 -49.750460 -43.968737
402 32 4 0.000000 9.547462 -53.216460 -42.941737
403 32 1 0.000000 4.364462 -56.682460 -41.914737
404 32 1 0.000000 -0.818538 -60.148460 -40.887737
405 33 3 0.000000 -46.873625 77.791322 6.858093
406 33 3 0.000000 -43.034625 75.547322 4.776093
407 33 3 0.000000 -37.093625 74.716322 4.311093
408 33 2 0.000000 -31.186625 73.550322 5.487093
409 33 4 0.000000 -27.403625 69.602322 6.844093
410 33 3 0.000000 -26.938625 64.344322 8.406093
411 33 4 0.000000 -24.076625 60.456322 10.017093
412 33 4 0.000000 -24.135625 54.632322 13.370093
413 33 4 0.000000 -27.514625 50.137322 16.682093
414 33 4 0.000000 -32.697625 46.671322 17.709093
415 33 1 0.000000 -37.880625 43.205322 18.736093
416 33 1 0.000000 -43.063625 39.739322 19.763093
417 34 3 0.000000 -24.921070 -31.737236 -28.040777
418 34 3 0.000000 -21.082070 -33.981236 -30.122777
419 34 3 0.000000 -15.141070 -34.812236 -30.587777
420 34 2 0.000000 -9.234070 -35.978236 -29.411777
421 34 4 0.000000 -5.451070 -39.926236 -28.054777
422 34 3 0.000000 -4.986070 -45.184236 -26.492777
423 34 4 0.000000 -2.124070 -49.072236 -24.881777
424 34 4 0.000000 -2.183070 -54.896236 -21.528777
425 34 4 0.000000 -5.562070 -59.391236 -18.216777
426 34 4 0.000000 -10.745070 -62.857236 -17.189777
427 34 1 0.000000 -15.928070 -66.323236 -16.162777
428 34 1 0.000000 -21.111070 -69.789236 -15.135777
429 35 3 0.000000 -30.204432 63.595947 -4.319709
430 35 3 0.000000 -26.365432 61.351947 -6.401709
431 35 3 0.000000 -20.424432 60.520947 -6.866709
432 35 2 0.000000 -14.517432 59.354947 -5.690709
433 35 4 0.000000 -10.734432 55.406947 -4.333709
434 35 3 0.000000 -10.269432 50.148947 -2.771709
435 35 4 0.000000 -7.407432 46.260947 -1.160709
436 35 4 0.000000 -7.466432 40.436947 2.192291
437 35 4 0.000000 -10.845432 35.941947 5.504291
438 35 4 0.000000 -16.028432 32.475947 6.531291
439 35 1 0.000000 -21.211432 29.009947 7.558291
440 35 1 0.000000 -26.394432 25.543947 8.585291
441 36 3 0.000000 8.263115 42.803692 -38.196171
442 36 3 0.000000 12.102115 40.559692 -40.278171
443 36 3 0.000000 18.043115 39.728692 -40.743171
444 36 2 0.000000 23.950115 38.562692 -39.567171
445 36 4 0.000000 27.733115 34.614692 -38.210171
446 36 3 0.000000 28.198115 29.356692 -36.648171
447 36 4 0.000000 31.060115 25.468692 -35.037171
448 36 4 0.000000 31.001115 19.644692 -31.684171
449 36 4 0.000000 27.622115 15.149692 -28.372171
450 36 4 0.000000 22.439115 11.683692 -27.345171
451 36 1 0.000000 17.256115 8.217692 -26.318171
452 36 1 0.000000 12.073115 4.751692 -25.291171
453 37 3 0.000000 -14.698618 -29.522123 37.074655
454 37 3 0.000000 -10.859618 -31.766123 34.992655
455 37 3 0.000000 -4.918618 -32.597123 34.527655
456 37 2 0.000000 0.988382 -33.763123 35.703655
457 37 4 0.000000 4.771382 -37.711123 37.060655
458 37 3 0.000000 5.236382 -42.969123 38.622655
459 37 4 0.000000 8.098382 -46.857123 40.233655
460 37 4 0.000000 8.039382 -52.681123 43.586655
461 37 4 0.000000 4.660382 -57.176123 46.898655
462 37 4 0.000000 -0.522618 -60.642123 47.925655
463 37 1 0.000000 -5.705618 -64.108123 48.952655
464 37 1 0.000000 -10.888618 -67.574123 49.979655
465 38 3 0.000000 -59.684800 47.769061 -5.857632
466 38 3 0.000000 -55.845800 45.525061 -7.939632
467 38 3 0.000000 -49.904800 44.694061 -8.404632
468 38 2 0.000000 -43.997800 43.528061 -7.228632
469 38 4 0.000000 -40.214800 39.580061 -5.871632
470 38 3 0.000000 -39.749800 34.322061 -4.309632
471 38 4 0.000000 -36.887800 30.434061 -2.698632
472 38 4 0.000000 -36.946800 24.610061 0.654368
473 38 4 0.000000 -40.325800 20.115061 3.966368
474 38 4 0.000000 -45.508800 16.649061 4.993368
475 38 1 0.000000 -50.691800 13.183061 6.020368
476 38 1 0.000000 -55.874800 9.717061 7.047368
477 39 3 0.000000 44.983915 22.824326 15.631408
478 39 3 0.000000 48.822915 20.580326 13.549408
479 39 3 0.000000 54.763915 19.749326 13.084408
480 39 2 0.000000 60.670915 18.583326 14.260408
481 39 4 0.000000 64.453915 14.635326 15.617408
482 39 3 0.000000 64.918915 9.377326 17.179408
483 39 4 0.000000 67.780915 5.489326 18.790408
484 39 4 0.000000 67.721915 -0.334674 22.143408
485 39 4 0.000000 64.342915 -4.829674 25.455408
486 39 4 0.000000 59.159915 -8.295674 26.482408
487 39 1 0.000000 53.976915 -11.761674 27.509408
488 39 1 0.000000 48.793915 -15.227674 28.536408
489 40 3 0.000000 -75.159513 -48.339507 44.315717
490 40 3 0.000000 -71.320513 -50.583507 42.233717
491 40 3 0.000000 -65.379513 -51.414507 41.768717
492 40 2 0.000000 -59.472513 -52.580507 42.944717
493 40 4 0.000000 -55.689513 -56.528507 44.301717
494 40 3 0.000000 -55.224513 -61.786507 45.863717
495 40 4 0.000000 -52.362513 -65.674507 47.474717
496 40 4 0.000000 -52.421513 -71.498507 50.827717
497 40 4 0.000000 -55.800513 -75.993507 54.139717
498 40 4 0.000000 -60.983513 -79.459507 55.166717
499 40 1 0.000000 -66.166513 -82.925507 56.193717
500 40 1 0.000000 -71.349513 -86.391507 57.220717
501 41 3 0.000000 -25.647089 64.881427 -41.821242
502 41 3 0.000000 -21.808089 62.637427 -43.903242
503 41 3 0.000000 -15.867089 61.806427 -44.368242
504 41 2 0.000000 -9.960089 60.640427 -43.192242
505 41 4 0.000000 -6.177089 56.692427 -41.835242
506 41 3 0.000000 -5.712089 51.434427 -40.273242
507 41 4 0.000000 -2.850089 47.546427 -38.662242
508 41 4 0.000000 -2.909089 41.722427 -35.309242
509 41 4 0.000000 -6.288089 37.227427 -31.997242
510 41 4 0.000000 -11.471089 33.761427 -30.970242
511 41 1 0.000000 -16.654089 30.295427 -29.943242
512 41 1 0.000000 -21.837089 26.829427 -28.916242
513 42 3 0.000000 15.621739 -51.795029 -3.419308
514 42 3 0.000000 19.460739 -54.039029 -5.501308
515 42 3 0.000000 25.401739 -54.870029 -5.966308
516 42 2 0.000000 31.308739 -56.036029 -4.790308
517 42 4 0.000000 35.091739 -59.984029 -3.433308
518 42 3 0.000000 35.556739 -65.242029 -1.871308
519 42 4 0.000000 38.418739 -69.130029 -0.260308
520 42 4 0.000000 38.359739 -74.954029 3.092692
521 42 4 0.000000 34.980739 -79.449029 6.404692
522 42 4 0.000000 29.797739 -82.915029 7.431692
523 42 1 0.000000 24.614739 -86.381029 8.458692
524 42 1 0.000000 19.431739 -89.847029 9.485692
525 43 3 0.000000 -82.456270 24.155265 -72.562781
526 43 3 0.000000 -78.617270 21.911265 -74.644781
527 43 3 0.000000 -72.676270 21.080265 -75.109781
528 43 2 0.000000 -66.769270 19.914265 -73.933781
529 43 4 0.000000 -62.986270 15.966265 -72.576781
530 43 3 0.000000 -62.521270 10.708265 -71.014781
531 43 4 0.000000 -59.659270 6.820265 -69.403781
532 43 4 0.000000 -59.718270 0.996265 -66.050781
533 43 4 0.000000 -63.097270 -3.498735 -62.738781
534 43 4 0.000000 -68.280270 -6.964735 -61.711781
535 43 1 0.000000 -73.463270 -10.430735 -60.684781
536 43 1 0.000000 -78.646270 -13.896735 -59.657781
537 44 3 0.000000 -9.263529 -14.611130 62.625192
538 44 3 0.000000 -5.424529 -16.855130 60.543192
539 44 3 0.000000 0.516471 -17.686130 60.078192
540 44 2 0.000000 6.423471 -18.852130 61.254192
541 44 4 0.000000 10.206471 -22.800130 62.611192
542 44 3 0.000000 10.671471 -28.058130 64.173192
543 44 4 0.000000 13.533471 -31.946130 65.784192
544 44 4 0.000000 13.474471 -37.770130 69.137192
545 44 4 0.000000 10.095471 -42.265130 72.449192
546 44 4 0.000000 4.912471 -45.731130 73.476192
547 44 1 0.000000 -0.270529 -49.197130 74.503192
548 44 1 0.000000 -5.453529 -52.663130 75.530192
549 45 3 0.000000 -80.982036 60.767178 20.142697
550 45 3 0.000000 -77.143036 58.523178 18.060697
551 45 3 0.000000 -71.202036 57.692178 17.595697
552 45 2 0.000000 -65.295036 56.526178 18.771697
553 45 4 0.000000 -61.512036 52.578178 20.128697
554 45 3 0.000000 -61.047036 47.320178 21.690697
555 45 4 0.000000 -58.185036 43.432178 23.301697
556 45 4 0.000000 -58.244036 37.608178 26.654697
557 45 4 0.000000 -61.623036 33.113178 29.966697
558 45 4 0.000000 -66.806036 29.647178 30.993697
559 45 1 0.000000 -71.989036 26.181178 32.020697
560 45 1 0.000000 -77.172036 22.715178 33.047697
561 46 3 0.000000 29.481478 74.293438 -59.239617
562 46 3 0.000000 33.320478 72.049438 -61.321617
563 46 3 0.000000 39.261478 71.218438 -61.786617
564 46 2 0.000000 45.168478 70.052438 -60.610617
565 46 4 0.000000 48.951478 66.104438 -59.253617
566 46 3 0.000000 49.416478 60.846438 -57.691617
567 46 4 0.000000 52.278478 56.958438 -56.080617
568 46 4 0.000000 52.219478 51.134438 -52.727617
569 46 4 0.000000 48.840478 46.639438 -49.415617
570 46 4 0.000000 43.657478 43.173438 -48.388617
571 46 1 0.000000 38.474478 39.707438 -47.361617
572 46 1 0.000000 33.291478 36.241438 -46.334617
573 47 3 0.000000 -69.898055 -32.229185 -47.351429
574 47 3 0.000000 -66.059055 -34.473185 -49.433429
575 47 3 0.000000 -60.118055 -35.304185 -49.898429
576 47 2 0.000000 -54.211055 -36.470185 -48.722429
577 47 4 0.000000 -50.428055 -40.418185 -47.365429
578 47 3 0.000000 -49.963055 -45.676185 -45.803429
579 47 4 0.000000 -47.101055 -49.564185 -44.192429
580 47 4 0.000000 -47.160055 -55.388185 -40.839429
581 47 4 0.000000 -50.539055 -59.883185 -37.527429
582 47 4 0.000000 -55.722055 -63.349185 -36.500429
583 47 1 0.000000 -60.905055 -66.815185 -35.473429
584 47 1 0.000000 -66.088055 -70.281185 -34.446429
585 48 3 0.000000 -9.678162 61.055181 -36.796454
586 48 3 0.000000 -5.839162 58.811181 -38.878454
587 48 3 0.000000 0.101838 57.980181 -39.343454
588 48 2 0.000000 6.008838 56.814181 -38.167454
589 48 4 0.000000 9.791838 52.866181 -36.810454
590 48 3 0.000000 10.256838 47.608181 -35.248454
591 48 4 0.000000 13.118838 43.720181 -33.637454
592 48 4 0.000000 13.059838 37.896181 -30.284454
593 48 4 0.000000 9.680838 33.401181 -26.972454
594 48 4 0.000000 4.497838 29.935181 -25.945454
595 48 1 0.000000 -0.685162 26.469181 -24.918454
596 48 1 0.000000 -5.868162 23.003181 -23.891454
597 49 3 0.000000 -4.281694 85.557791 -42.601901
598 49 3 0.000000 -0.442694 83.313791 -44.683901
599 49 3 0.000000 5.498306 82.482791 -45.148901
600 49 2 0.000000 11.405306 81.316791 -43.972901
601 49 4 0.000000 15.188306 77.368791 -42.615901
602 49 3 0.000000 15.653306 72.110791 -41.053901
603 49 4 0.000000 18.515306 68.222791 -39.442901
604 49 4 0.000000 18.456306 62.398791 -36.089901
605 49 4 0.000000 15.077306 57.903791 -32.777901
606 49 4 0.000000 9.894306 54.437791 -31.750901
607 49 1 0.000000 4.711306 50.971791 -30.723901
608 49 1 0.000000 -0.471694 47.505791 -29.696901
609 50 3 0.000000 12.383828 65.626561 17.301084
610 50 3 0.000000 16.222828 63.382561 15.219084