LAMMPS data file - 14mer extended ASO - 1 Docked + 99 Free + 1 Hairpin

1432 atoms
1331 bonds
1230 angles

4 atom types
1 bond types
1 angle types

-80.000000 80.000000 xlo xhi
-80.000000 80.000000 ylo yhi
-80.000000 80.000000 zlo zhi

Masses

1 329.20
2 305.20
3 345.20
4 306.20

Atoms

1 1 3 0.000000 -5.578000 20.548000 -14.353000
2 1 3 0.000000 -1.739000 18.304000 -16.435000
3 1 3 0.000000 4.202000 17.473000 -16.900000
4 1 2 0.000000 10.109000 16.307000 -15.724000
5 1 4 0.000000 13.892000 12.359000 -14.367000
6 1 3 0.000000 14.357000 7.101000 -12.805000
7 1 4 0.000000 17.219000 3.213000 -11.194000
8 1 4 0.000000 17.160000 -2.611000 -7.841000
9 1 4 0.000000 13.781000 -7.106000 -4.529000
10 1 4 0.000000 8.598000 -10.572000 -3.502000
11 1 1 0.000000 3.415000 -14.038000 -2.475000
12 1 1 0.000000 -1.768000 -17.504000 -1.448000
13 1 3 0.000000 -6.951000 -20.970000 -0.421000
14 1 4 0.000000 -12.134000 -24.436000 0.606000
15 2 3 0.000000 6.200000 -18.293000 1.303000
16 2 2 0.000000 11.826000 -16.769000 -0.282000
17 2 4 0.000000 14.864000 -14.582000 -4.893000
18 2 3 0.000000 14.993000 -11.956000 -10.484000
19 2 1 0.000000 12.426000 -9.940000 -15.598000
20 2 2 0.000000 7.732000 -7.606000 -17.857000
21 2 4 0.000000 3.763000 -3.183000 -18.318000
22 2 4 0.000000 1.611000 0.624000 -14.480000
23 2 4 0.000000 0.089000 3.321000 -9.329000
24 2 2 0.000000 2.466000 6.071000 -5.189000
25 2 1 0.000000 6.436000 9.150000 -2.157000
26 2 3 0.000000 8.843000 14.297000 -1.868000
27 2 2 0.000000 9.022000 19.873000 -3.800000
28 2 2 0.000000 8.786000 23.869000 -7.968000
29 2 2 0.000000 6.160000 28.412000 -10.146000
30 2 2 0.000000 11.347000 31.588000 -11.576000
31 2 1 0.000000 12.725000 25.899000 -11.465000
32 2 1 0.000000 12.008000 20.723000 -14.164000
33 2 1 0.000000 16.188000 17.160000 -11.527000
34 2 2 0.000000 19.755000 13.589000 -10.756000
35 2 1 0.000000 19.715000 8.246000 -7.924000
36 2 1 0.000000 17.704000 3.884000 -4.612000
37 2 1 0.000000 14.080000 -0.712000 -1.421000
38 2 1 0.000000 9.302000 -2.868000 -0.830000
39 2 1 0.000000 4.380000 -5.707000 -2.379000
40 2 1 0.000000 -0.876000 -7.526000 -5.386000
41 2 3 0.000000 -2.393000 -11.401000 -8.758000
42 2 4 0.000000 -0.063000 -15.859000 -11.557000
43 2 2 0.000000 3.680000 -20.032000 -13.782000
44 2 1 0.000000 8.300000 -23.997000 -14.294000
45 2 3 0.000000 11.532000 -27.040000 -10.381000
46 2 2 0.000000 12.517000 -29.449000 -5.237000
47 3 3 0.000000 -61.262414 -5.272798 -12.542293
48 3 3 0.000000 -57.423414 -7.516798 -14.624293
49 3 3 0.000000 -51.482414 -8.347798 -15.089293
50 3 2 0.000000 -45.575414 -9.513798 -13.913293
51 3 4 0.000000 -41.792414 -13.461798 -12.556293
52 3 3 0.000000 -41.327414 -18.719798 -10.994293
53 3 4 0.000000 -38.465414 -22.607798 -9.383293
54 3 4 0.000000 -38.524414 -28.431798 -6.030293
55 3 4 0.000000 -41.903414 -32.926798 -2.718293
56 3 4 0.000000 -47.086414 -36.392798 -1.691293
57 3 1 0.000000 -52.269414 -39.858798 -0.664293
58 3 1 0.000000 -57.452414 -43.324798 0.362707
59 3 3 0.000000 -62.635414 -46.790798 1.389707
60 3 4 0.000000 -67.818414 -50.256798 2.416707
61 4 3 0.000000 -73.398352 0.951484 -74.340747
62 4 3 0.000000 -69.559352 -1.292516 -76.422747
63 4 3 0.000000 -63.618352 -2.123516 -76.887747
64 4 2 0.000000 -57.711352 -3.289516 -75.711747
65 4 4 0.000000 -53.928352 -7.237516 -74.354747
66 4 3 0.000000 -53.463352 -12.495516 -72.792747
67 4 4 0.000000 -50.601352 -16.383516 -71.181747
68 4 4 0.000000 -50.660352 -22.207516 -67.828747
69 4 4 0.000000 -54.039352 -26.702516 -64.516747
70 4 4 0.000000 -59.222352 -30.168516 -63.489747
71 4 1 0.000000 -64.405352 -33.634516 -62.462747
72 4 1 0.000000 -69.588352 -37.100516 -61.435747
73 4 3 0.000000 -74.771352 -40.566516 -60.408747
74 4 4 0.000000 -79.954352 -44.032516 -59.381747
75 5 3 0.000000 -61.789069 64.816232 59.253644
76 5 3 0.000000 -57.950069 62.572232 57.171644
77 5 3 0.000000 -52.009069 61.741232 56.706644
78 5 2 0.000000 -46.102069 60.575232 57.882644
79 5 4 0.000000 -42.319069 56.627232 59.239644
80 5 3 0.000000 -41.854069 51.369232 60.801644
81 5 4 0.000000 -38.992069 47.481232 62.412644
82 5 4 0.000000 -39.051069 41.657232 65.765644
83 5 4 0.000000 -42.430069 37.162232 69.077644
84 5 4 0.000000 -47.613069 33.696232 70.104644
85 5 1 0.000000 -52.796069 30.230232 71.131644
86 5 1 0.000000 -57.979069 26.764232 72.158644
87 5 3 0.000000 -63.162069 23.298232 73.185644
88 5 4 0.000000 -68.345069 19.832232 74.212644
89 6 3 0.000000 -22.715668 68.270852 -7.264497
90 6 3 0.000000 -18.876668 66.026852 -9.346497
91 6 3 0.000000 -12.935668 65.195852 -9.811497
92 6 2 0.000000 -7.028668 64.029852 -8.635497
93 6 4 0.000000 -3.245668 60.081852 -7.278497
94 6 3 0.000000 -2.780668 54.823852 -5.716497
95 6 4 0.000000 0.081332 50.935852 -4.105497
96 6 4 0.000000 0.022332 45.111852 -0.752497
97 6 4 0.000000 -3.356668 40.616852 2.559503
98 6 4 0.000000 -8.539668 37.150852 3.586503
99 6 1 0.000000 -13.722668 33.684852 4.613503
100 6 1 0.000000 -18.905668 30.218852 5.640503
101 6 3 0.000000 -24.088668 26.752852 6.667503
102 6 4 0.000000 -29.271668 23.286852 7.694503
103 7 3 0.000000 -69.330041 -44.993501 30.865498
104 7 3 0.000000 -65.491041 -47.237501 28.783498
105 7 3 0.000000 -59.550041 -48.068501 28.318498
106 7 2 0.000000 -53.643041 -49.234501 29.494498
107 7 4 0.000000 -49.860041 -53.182501 30.851498
108 7 3 0.000000 -49.395041 -58.440501 32.413498
109 7 4 0.000000 -46.533041 -62.328501 34.024498
110 7 4 0.000000 -46.592041 -68.152501 37.377498
111 7 4 0.000000 -49.971041 -72.647501 40.689498
112 7 4 0.000000 -55.154041 -76.113501 41.716498
113 7 1 0.000000 -60.337041 -79.579501 42.743498
114 7 1 0.000000 -65.520041 -83.045501 43.770498
115 7 3 0.000000 -70.703041 -86.511501 44.797498
116 7 4 0.000000 -75.886041 -89.977501 45.824498
117 8 3 0.000000 -40.011341 -10.834591 -0.417222
118 8 3 0.000000 -36.172341 -13.078591 -2.499222
119 8 3 0.000000 -30.231341 -13.909591 -2.964222
120 8 2 0.000000 -24.324341 -15.075591 -1.788222
121 8 4 0.000000 -20.541341 -19.023591 -0.431222
122 8 3 0.000000 -20.076341 -24.281591 1.130778
123 8 4 0.000000 -17.214341 -28.169591 2.741778
124 8 4 0.000000 -17.273341 -33.993591 6.094778
125 8 4 0.000000 -20.652341 -38.488591 9.406778
126 8 4 0.000000 -25.835341 -41.954591 10.433778
127 8 1 0.000000 -31.018341 -45.420591 11.460778
128 8 1 0.000000 -36.201341 -48.886591 12.487778
129 8 3 0.000000 -41.384341 -52.352591 13.514778
130 8 4 0.000000 -46.567341 -55.818591 14.541778
131 9 3 0.000000 -57.354672 14.710994 28.270127
132 9 3 0.000000 -53.515672 12.466994 26.188127
133 9 3 0.000000 -47.574672 11.635994 25.723127
134 9 2 0.000000 -41.667672 10.469994 26.899127
135 9 4 0.000000 -37.884672 6.521994 28.256127
136 9 3 0.000000 -37.419672 1.263994 29.818127
137 9 4 0.000000 -34.557672 -2.624006 31.429127
138 9 4 0.000000 -34.616672 -8.448006 34.782127
139 9 4 0.000000 -37.995672 -12.943006 38.094127
140 9 4 0.000000 -43.178672 -16.409006 39.121127
141 9 1 0.000000 -48.361672 -19.875006 40.148127
142 9 1 0.000000 -53.544672 -23.341006 41.175127
143 9 3 0.000000 -58.727672 -26.807006 42.202127
144 9 4 0.000000 -63.910672 -30.273006 43.229127
145 10 3 0.000000 26.324809 27.647666 -59.832889
146 10 3 0.000000 30.163809 25.403666 -61.914889
147 10 3 0.000000 36.104809 24.572666 -62.379889
148 10 2 0.000000 42.011809 23.406666 -61.203889
149 10 4 0.000000 45.794809 19.458666 -59.846889
150 10 3 0.000000 46.259809 14.200666 -58.284889
151 10 4 0.000000 49.121809 10.312666 -56.673889
152 10 4 0.000000 49.062809 4.488666 -53.320889
153 10 4 0.000000 45.683809 -0.006334 -50.008889
154 10 4 0.000000 40.500809 -3.472334 -48.981889
155 10 1 0.000000 35.317809 -6.938334 -47.954889
156 10 1 0.000000 30.134809 -10.404334 -46.927889
157 10 3 0.000000 24.951809 -13.870334 -45.900889
158 10 4 0.000000 19.768809 -17.336334 -44.873889
159 11 3 0.000000 -64.914997 59.201824 39.577165
160 11 3 0.000000 -61.075997 56.957824 37.495165
161 11 3 0.000000 -55.134997 56.126824 37.030165
162 11 2 0.000000 -49.227997 54.960824 38.206165
163 11 4 0.000000 -45.444997 51.012824 39.563165
164 11 3 0.000000 -44.979997 45.754824 41.125165
165 11 4 0.000000 -42.117997 41.866824 42.736165
166 11 4 0.000000 -42.176997 36.042824 46.089165
167 11 4 0.000000 -45.555997 31.547824 49.401165
168 11 4 0.000000 -50.738997 28.081824 50.428165
169 11 1 0.000000 -55.921997 24.615824 51.455165
170 11 1 0.000000 -61.104997 21.149824 52.482165
171 11 3 0.000000 -66.287997 17.683824 53.509165
172 11 4 0.000000 -71.470997 14.217824 54.536165
173 12 3 0.000000 -29.543280 65.851530 -69.856955
174 12 3 0.000000 -25.704280 63.607530 -71.938955
175 12 3 0.000000 -19.763280 62.776530 -72.403955
176 12 2 0.000000 -13.856280 61.610530 -71.227955
177 12 4 0.000000 -10.073280 57.662530 -69.870955
178 12 3 0.000000 -9.608280 52.404530 -68.308955
179 12 4 0.000000 -6.746280 48.516530 -66.697955
180 12 4 0.000000 -6.805280 42.692530 -63.344955
181 12 4 0.000000 -10.184280 38.197530 -60.032955
182 12 4 0.000000 -15.367280 34.731530 -59.005955
183 12 1 0.000000 -20.550280 31.265530 -57.978955
184 12 1 0.000000 -25.733280 27.799530 -56.951955
185 12 3 0.000000 -30.916280 24.333530 -55.924955
186 12 4 0.000000 -36.099280 20.867530 -54.897955
187 13 3 0.000000 19.753305 27.175458 62.886173
188 13 3 0.000000 23.592305 24.931458 60.804173
189 13 3 0.000000 29.533305 24.100458 60.339173
190 13 2 0.000000 35.440305 22.934458 61.515173
191 13 4 0.000000 39.223305 18.986458 62.872173
192 13 3 0.000000 39.688305 13.728458 64.434173
193 13 4 0.000000 42.550305 9.840458 66.045173
194 13 4 0.000000 42.491305 4.016458 69.398173
195 13 4 0.000000 39.112305 -0.478542 72.710173
196 13 4 0.000000 33.929305 -3.944542 73.737173
197 13 1 0.000000 28.746305 -7.410542 74.764173
198 13 1 0.000000 23.563305 -10.876542 75.791173
199 13 3 0.000000 18.380305 -14.342542 76.818173
200 13 4 0.000000 13.197305 -17.808542 77.845173
201 14 3 0.000000 -39.224678 90.589774 -12.719901
202 14 3 0.000000 -35.385678 88.345774 -14.801901
203 14 3 0.000000 -29.444678 87.514774 -15.266901
204 14 2 0.000000 -23.537678 86.348774 -14.090901
205 14 4 0.000000 -19.754678 82.400774 -12.733901
206 14 3 0.000000 -19.289678 77.142774 -11.171901
207 14 4 0.000000 -16.427678 73.254774 -9.560901
208 14 4 0.000000 -16.486678 67.430774 -6.207901
209 14 4 0.000000 -19.865678 62.935774 -2.895901
210 14 4 0.000000 -25.048678 59.469774 -1.868901
211 14 1 0.000000 -30.231678 56.003774 -0.841901
212 14 1 0.000000 -35.414678 52.537774 0.185099
213 14 3 0.000000 -40.597678 49.071774 1.212099
214 14 4 0.000000 -45.780678 45.605774 2.239099
215 15 3 0.000000 58.250147 59.274431 -42.509981
216 15 3 0.000000 62.089147 57.030431 -44.591981
217 15 3 0.000000 68.030147 56.199431 -45.056981
218 15 2 0.000000 73.937147 55.033431 -43.880981
219 15 4 0.000000 77.720147 51.085431 -42.523981
220 15 3 0.000000 78.185147 45.827431 -40.961981
221 15 4 0.000000 81.047147 41.939431 -39.350981
222 15 4 0.000000 80.988147 36.115431 -35.997981
223 15 4 0.000000 77.609147 31.620431 -32.685981
224 15 4 0.000000 72.426147 28.154431 -31.658981
225 15 1 0.000000 67.243147 24.688431 -30.631981
226 15 1 0.000000 62.060147 21.222431 -29.604981
227 15 3 0.000000 56.877147 17.756431 -28.577981
228 15 4 0.000000 51.694147 14.290431 -27.550981
229 16 3 0.000000 32.594452 32.995346 -26.594111
230 16 3 0.000000 36.433452 30.751346 -28.676111
231 16 3 0.000000 42.374452 29.920346 -29.141111
232 16 2 0.000000 48.281452 28.754346 -27.965111
233 16 4 0.000000 52.064452 24.806346 -26.608111
234 16 3 0.000000 52.529452 19.548346 -25.046111
235 16 4 0.000000 55.391452 15.660346 -23.435111
236 16 4 0.000000 55.332452 9.836346 -20.082111
237 16 4 0.000000 51.953452 5.341346 -16.770111
238 16 4 0.000000 46.770452 1.875346 -15.743111
239 16 1 0.000000 41.587452 -1.590654 -14.716111
240 16 1 0.000000 36.404452 -5.056654 -13.689111
241 16 3 0.000000 31.221452 -8.522654 -12.662111
242 16 4 0.000000 26.038452 -11.988654 -11.635111
243 17 3 0.000000 18.601626 39.273888 -52.445002
244 17 3 0.000000 22.440626 37.029888 -54.527002
245 17 3 0.000000 28.381626 36.198888 -54.992002
246 17 2 0.000000 34.288626 35.032888 -53.816002
247 17 4 0.000000 38.071626 31.084888 -52.459002
248 17 3 0.000000 38.536626 25.826888 -50.897002
249 17 4 0.000000 41.398626 21.938888 -49.286002
250 17 4 0.000000 41.339626 16.114888 -45.933002
251 17 4 0.000000 37.960626 11.619888 -42.621002
252 17 4 0.000000 32.777626 8.153888 -41.594002
253 17 1 0.000000 27.594626 4.687888 -40.567002
254 17 1 0.000000 22.411626 1.221888 -39.540002
255 17 3 0.000000 17.228626 -2.244112 -38.513002
256 17 4 0.000000 12.045626 -5.710112 -37.486002
257 18 3 0.000000 -61.411033 -20.387248 -46.710448
258 18 3 0.000000 -57.572033 -22.631248 -48.792448
259 18 3 0.000000 -51.631033 -23.462248 -49.257448
260 18 2 0.000000 -45.724033 -24.628248 -48.081448
261 18 4 0.000000 -41.941033 -28.576248 -46.724448
262 18 3 0.000000 -41.476033 -33.834248 -45.162448
263 18 4 0.000000 -38.614033 -37.722248 -43.551448
264 18 4 0.000000 -38.673033 -43.546248 -40.198448
265 18 4 0.000000 -42.052033 -48.041248 -36.886448
266 18 4 0.000000 -47.235033 -51.507248 -35.859448
267 18 1 0.000000 -52.418033 -54.973248 -34.832448
268 18 1 0.000000 -57.601033 -58.439248 -33.805448
269 18 3 0.000000 -62.784033 -61.905248 -32.778448
270 18 4 0.000000 -67.967033 -65.371248 -31.751448
271 19 3 0.000000 -72.593832 -0.199833 -36.330526
272 19 3 0.000000 -68.754832 -2.443833 -38.412526
273 19 3 0.000000 -62.813832 -3.274833 -38.877526
274 19 2 0.000000 -56.906832 -4.440833 -37.701526
275 19 4 0.000000 -53.123832 -8.388833 -36.344526
276 19 3 0.000000 -52.658832 -13.646833 -34.782526
277 19 4 0.000000 -49.796832 -17.534833 -33.171526
278 19 4 0.000000 -49.855832 -23.358833 -29.818526
279 19 4 0.000000 -53.234832 -27.853833 -26.506526
280 19 4 0.000000 -58.417832 -31.319833 -25.479526
281 19 1 0.000000 -63.600832 -34.785833 -24.452526
282 19 1 0.000000 -68.783832 -38.251833 -23.425526
283 19 3 0.000000 -73.966832 -41.717833 -22.398526
284 19 4 0.000000 -79.149832 -45.183833 -21.371526
285 20 3 0.000000 -40.397274 -11.885971 44.439930
286 20 3 0.000000 -36.558274 -14.129971 42.357930
287 20 3 0.000000 -30.617274 -14.960971 41.892930
288 20 2 0.000000 -24.710274 -16.126971 43.068930
289 20 4 0.000000 -20.927274 -20.074971 44.425930
290 20 3 0.000000 -20.462274 -25.332971 45.987930
291 20 4 0.000000 -17.600274 -29.220971 47.598930
292 20 4 0.000000 -17.659274 -35.044971 50.951930
293 20 4 0.000000 -21.038274 -39.539971 54.263930
294 20 4 0.000000 -26.221274 -43.005971 55.290930
295 20 1 0.000000 -31.404274 -46.471971 56.317930
296 20 1 0.000000 -36.587274 -49.937971 57.344930
297 20 3 0.000000 -41.770274 -53.403971 58.371930
298 20 4 0.000000 -46.953274 -56.869971 59.398930
299 21 3 0.000000 57.064434 45.787904 -62.350906
300 21 3 0.000000 60.903434 43.543904 -64.432906
301 21 3 0.000000 66.844434 42.712904 -64.897906
302 21 2 0.000000 72.751434 41.546904 -63.721906
303 21 4 0.000000 76.534434 37.598904 -62.364906
304 21 3 0.000000 76.999434 32.340904 -60.802906
305 21 4 0.000000 79.861434 28.452904 -59.191906
306 21 4 0.000000 79.802434 22.628904 -55.838906
307 21 4 0.000000 76.423434 18.133904 -52.526906
308 21 4 0.000000 71.240434 14.667904 -51.499906
309 21 1 0.000000 66.057434 11.201904 -50.472906
310 21 1 0.000000 60.874434 7.735904 -49.445906
311 21 3 0.000000 55.691434 4.269904 -48.418906
312 21 4 0.000000 50.508434 0.803904 -47.391906
313 22 3 0.000000 53.884151 60.682747 52.945191
314 22 3 0.000000 57.723151 58.438747 50.863191
315 22 3 0.000000 63.664151 57.607747 50.398191
316 22 2 0.000000 69.571151 56.441747 51.574191
317 22 4 0.000000 73.354151 52.493747 52.931191
318 22 3 0.000000 73.819151 47.235747 54.493191
319 22 4 0.000000 76.681151 43.347747 56.104191
320 22 4 0.000000 76.622151 37.523747 59.457191
321 22 4 0.000000 73.243151 33.028747 62.769191
322 22 4 0.000000 68.060151 29.562747 63.796191
323 22 1 0.000000 62.877151 26.096747 64.823191
324 22 1 0.000000 57.694151 22.630747 65.850191
325 22 3 0.000000 52.511151 19.164747 66.877191
326 22 4 0.000000 47.328151 15.698747 67.904191
327 23 3 0.000000 58.044143 72.072663 -57.918085
328 23 3 0.000000 61.883143 69.828663 -60.000085
329 23 3 0.000000 67.824143 68.997663 -60.465085
330 23 2 0.000000 73.731143 67.831663 -59.289085
331 23 4 0.000000 77.514143 63.883663 -57.932085
332 23 3 0.000000 77.979143 58.625663 -56.370085
333 23 4 0.000000 80.841143 54.737663 -54.759085
334 23 4 0.000000 80.782143 48.913663 -51.406085
335 23 4 0.000000 77.403143 44.418663 -48.094085
336 23 4 0.000000 72.220143 40.952663 -47.067085
337 23 1 0.000000 67.037143 37.486663 -46.040085
338 23 1 0.000000 61.854143 34.020663 -45.013085
339 23 3 0.000000 56.671143 30.554663 -43.986085
340 23 4 0.000000 51.488143 27.088663 -42.959085
341 24 3 0.000000 40.347103 -14.359186 23.912850
342 24 3 0.000000 44.186103 -16.603186 21.830850
343 24 3 0.000000 50.127103 -17.434186 21.365850
344 24 2 0.000000 56.034103 -18.600186 22.541850
345 24 4 0.000000 59.817103 -22.548186 23.898850
346 24 3 0.000000 60.282103 -27.806186 25.460850
347 24 4 0.000000 63.144103 -31.694186 27.071850
348 24 4 0.000000 63.085103 -37.518186 30.424850
349 24 4 0.000000 59.706103 -42.013186 33.736850
350 24 4 0.000000 54.523103 -45.479186 34.763850
351 24 1 0.000000 49.340103 -48.945186 35.790850
352 24 1 0.000000 44.157103 -52.411186 36.817850
353 24 3 0.000000 38.974103 -55.877186 37.844850
354 24 4 0.000000 33.791103 -59.343186 38.871850
355 25 3 0.000000 35.083524 57.292302 18.990409
356 25 3 0.000000 38.922524 55.048302 16.908409
357 25 3 0.000000 44.863524 54.217302 16.443409
358 25 2 0.000000 50.770524 53.051302 17.619409
359 25 4 0.000000 54.553524 49.103302 18.976409
360 25 3 0.000000 55.018524 43.845302 20.538409
361 25 4 0.000000 57.880524 39.957302 22.149409
362 25 4 0.000000 57.821524 34.133302 25.502409
363 25 4 0.000000 54.442524 29.638302 28.814409
364 25 4 0.000000 49.259524 26.172302 29.841409
365 25 1 0.000000 44.076524 22.706302 30.868409
366 25 1 0.000000 38.893524 19.240302 31.895409
367 25 3 0.000000 33.710524 15.774302 32.922409
368 25 4 0.000000 28.527524 12.308302 33.949409
369 26 3 0.000000 42.313583 -36.280730 -3.496542
370 26 3 0.000000 46.152583 -38.524730 -5.578542
371 26 3 0.000000 52.093583 -39.355730 -6.043542
372 26 2 0.000000 58.000583 -40.521730 -4.867542
373 26 4 0.000000 61.783583 -44.469730 -3.510542
374 26 3 0.000000 62.248583 -49.727730 -1.948542
375 26 4 0.000000 65.110583 -53.615730 -0.337542
376 26 4 0.000000 65.051583 -59.439730 3.015458
377 26 4 0.000000 61.672583 -63.934730 6.327458
378 26 4 0.000000 56.489583 -67.400730 7.354458
379 26 1 0.000000 51.306583 -70.866730 8.381458
380 26 1 0.000000 46.123583 -74.332730 9.408458
381 26 3 0.000000 40.940583 -77.798730 10.435458
382 26 4 0.000000 35.757583 -81.264730 11.462458
383 27 3 0.000000 52.131642 -3.493501 -75.336197
384 27 3 0.000000 55.970642 -5.737501 -77.418197
385 27 3 0.000000 61.911642 -6.568501 -77.883197
386 27 2 0.000000 67.818642 -7.734501 -76.707197
387 27 4 0.000000 71.601642 -11.682501 -75.350197
388 27 3 0.000000 72.066642 -16.940501 -73.788197
389 27 4 0.000000 74.928642 -20.828501 -72.177197
390 27 4 0.000000 74.869642 -26.652501 -68.824197
391 27 4 0.000000 71.490642 -31.147501 -65.512197
392 27 4 0.000000 66.307642 -34.613501 -64.485197
393 27 1 0.000000 61.124642 -38.079501 -63.458197
394 27 1 0.000000 55.941642 -41.545501 -62.431197
395 27 3 0.000000 50.758642 -45.011501 -61.404197
396 27 4 0.000000 45.575642 -48.477501 -60.377197
397 28 3 0.000000 -72.037633 25.505425 -45.186238
398 28 3 0.000000 -68.198633 23.261425 -47.268238
399 28 3 0.000000 -62.257633 22.430425 -47.733238
400 28 2 0.000000 -56.350633 21.264425 -46.557238
401 28 4 0.000000 -52.567633 17.316425 -45.200238
402 28 3 0.000000 -52.102633 12.058425 -43.638238
403 28 4 0.000000 -49.240633 8.170425 -42.027238
404 28 4 0.000000 -49.299633 2.346425 -38.674238
405 28 4 0.000000 -52.678633 -2.148575 -35.362238
406 28 4 0.000000 -57.861633 -5.614575 -34.335238
407 28 1 0.000000 -63.044633 -9.080575 -33.308238
408 28 1 0.000000 -68.227633 -12.546575 -32.281238
409 28 3 0.000000 -73.410633 -16.012575 -31.254238
410 28 4 0.000000 -78.593633 -19.478575 -30.227238
411 29 3 0.000000 -20.753894 -19.654795 -38.087271
412 29 3 0.000000 -16.914894 -21.898795 -40.169271
413 29 3 0.000000 -10.973894 -22.729795 -40.634271
414 29 2 0.000000 -5.066894 -23.895795 -39.458271
415 29 4 0.000000 -1.283894 -27.843795 -38.101271
416 29 3 0.000000 -0.818894 -33.101795 -36.539271
417 29 4 0.000000 2.043106 -36.989795 -34.928271
418 29 4 0.000000 1.984106 -42.813795 -31.575271
419 29 4 0.000000 -1.394894 -47.308795 -28.263271
420 29 4 0.000000 -6.577894 -50.774795 -27.236271
421 29 1 0.000000 -11.760894 -54.240795 -26.209271
422 29 1 0.000000 -16.943894 -57.706795 -25.182271
423 29 3 0.000000 -22.126894 -61.172795 -24.155271
424 29 4 0.000000 -27.309894 -64.638795 -23.128271
425 30 3 0.000000 35.064178 -2.028278 5.228281
426 30 3 0.000000 38.903178 -4.272278 3.146281
427 30 3 0.000000 44.844178 -5.103278 2.681281
428 30 2 0.000000 50.751178 -6.269278 3.857281
429 30 4 0.000000 54.534178 -10.217278 5.214281
430 30 3 0.000000 54.999178 -15.475278 6.776281
431 30 4 0.000000 57.861178 -19.363278 8.387281
432 30 4 0.000000 57.802178 -25.187278 11.740281
433 30 4 0.000000 54.423178 -29.682278 15.052281
434 30 4 0.000000 49.240178 -33.148278 16.079281
435 30 1 0.000000 44.057178 -36.614278 17.106281
436 30 1 0.000000 38.874178 -40.080278 18.133281
437 30 3 0.000000 33.691178 -43.546278 19.160281
438 30 4 0.000000 28.508178 -47.012278 20.187281
439 31 3 0.000000 14.653341 -42.536703 -61.741965
440 31 3 0.000000 18.492341 -44.780703 -63.823965
441 31 3 0.000000 24.433341 -45.611703 -64.288965
442 31 2 0.000000 30.340341 -46.777703 -63.112965
443 31 4 0.000000 34.123341 -50.725703 -61.755965
444 31 3 0.000000 34.588341 -55.983703 -60.193965
445 31 4 0.000000 37.450341 -59.871703 -58.582965
446 31 4 0.000000 37.391341 -65.695703 -55.229965
447 31 4 0.000000 34.012341 -70.190703 -51.917965
448 31 4 0.000000 28.829341 -73.656703 -50.890965
449 31 1 0.000000 23.646341 -77.122703 -49.863965
450 31 1 0.000000 18.463341 -80.588703 -48.836965
451 31 3 0.000000 13.280341 -84.054703 -47.809965
452 31 4 0.000000 8.097341 -87.520703 -46.782965
453 32 3 0.000000 39.167295 12.466033 -75.587798
454 32 3 0.000000 43.006295 10.222033 -77.669798
455 32 3 0.000000 48.947295 9.391033 -78.134798
456 32 2 0.000000 54.854295 8.225033 -76.958798
457 32 4 0.000000 58.637295 4.277033 -75.601798
458 32 3 0.000000 59.102295 -0.980967 -74.039798
459 32 4 0.000000 61.964295 -4.868967 -72.428798
460 32 4 0.000000 61.905295 -10.692967 -69.075798
461 32 4 0.000000 58.526295 -15.187967 -65.763798
462 32 4 0.000000 53.343295 -18.653967 -64.736798
463 32 1 0.000000 48.160295 -22.119967 -63.709798
464 32 1 0.000000 42.977295 -25.585967 -62.682798
465 32 3 0.000000 37.794295 -29.051967 -61.655798
466 32 4 0.000000 32.611295 -32.517967 -60.628798
467 33 3 0.000000 -62.436096 41.685608 -53.425584
468 33 3 0.000000 -58.597096 39.441608 -55.507584
469 33 3 0.000000 -52.656096 38.610608 -55.972584
470 33 2 0.000000 -46.749096 37.444608 -54.796584
471 33 4 0.000000 -42.966096 33.496608 -53.439584
472 33 3 0.000000 -42.501096 28.238608 -51.877584
473 33 4 0.000000 -39.639096 24.350608 -50.266584
474 33 4 0.000000 -39.698096 18.526608 -46.913584
475 33 4 0.000000 -43.077096 14.031608 -43.601584
476 33 4 0.000000 -48.260096 10.565608 -42.574584
477 33 1 0.000000 -53.443096 7.099608 -41.547584
478 33 1 0.000000 -58.626096 3.633608 -40.520584
479 33 3 0.000000 -63.809096 0.167608 -39.493584
480 33 4 0.000000 -68.992096 -3.298392 -38.466584
481 34 3 0.000000 -45.849430 2.744127 50.849609
482 34 3 0.000000 -42.010430 0.500127 48.767609
483 34 3 0.000000 -36.069430 -0.330873 48.302609
484 34 2 0.000000 -30.162430 -1.496873 49.478609
485 34 4 0.000000 -26.379430 -5.444873 50.835609
486 34 3 0.000000 -25.914430 -10.702873 52.397609
487 34 4 0.000000 -23.052430 -14.590873 54.008609
488 34 4 0.000000 -23.111430 -20.414873 57.361609
489 34 4 0.000000 -26.490430 -24.909873 60.673609
490 34 4 0.000000 -31.673430 -28.375873 61.700609
491 34 1 0.000000 -36.856430 -31.841873 62.727609
492 34 1 0.000000 -42.039430 -35.307873 63.754609
493 34 3 0.000000 -47.222430 -38.773873 64.781609
494 34 4 0.000000 -52.405430 -42.239873 65.808609
495 35 3 0.000000 -57.730417 6.173819 -32.911134
496 35 3 0.000000 -53.891417 3.929819 -34.993134
497 35 3 0.000000 -47.950417 3.098819 -35.458134
498 35 2 0.000000 -42.043417 1.932819 -34.282134
499 35 4 0.000000 -38.260417 -2.015181 -32.925134
500 35 3 0.000000 -37.795417 -7.273181 -31.363134
501 35 4 0.000000 -34.933417 -11.161181 -29.752134
502 35 4 0.000000 -34.992417 -16.985181 -26.399134
503 35 4 0.000000 -38.371417 -21.480181 -23.087134
504 35 4 0.000000 -43.554417 -24.946181 -22.060134
505 35 1 0.000000 -48.737417 -28.412181 -21.033134
506 35 1 0.000000 -53.920417 -31.878181 -20.006134
507 35 3 0.000000 -59.103417 -35.344181 -18.979134
508 35 4 0.000000 -64.286417 -38.810181 -17.952134
509 36 3 0.000000 17.017863 -16.533862 16.085503
510 36 3 0.000000 20.856863 -18.777862 14.003503
511 36 3 0.000000 26.797863 -19.608862 13.538503
512 36 2 0.000000 32.704863 -20.774862 14.714503
513 36 4 0.000000 36.487863 -24.722862 16.071503
514 36 3 0.000000 36.952863 -29.980862 17.633503
515 36 4 0.000000 39.814863 -33.868862 19.244503
516 36 4 0.000000 39.755863 -39.692862 22.597503
517 36 4 0.000000 36.376863 -44.187862 25.909503
518 36 4 0.000000 31.193863 -47.653862 26.936503
519 36 1 0.000000 26.010863 -51.119862 27.963503
520 36 1 0.000000 20.827863 -54.585862 28.990503
521 36 3 0.000000 15.644863 -58.051862 30.017503
522 36 4 0.000000 10.461863 -61.517862 31.044503
523 37 3 0.000000 17.613797 -49.161917 -8.929489
524 37 3 0.000000 21.452797 -51.405917 -11.011489
525 37 3 0.000000 27.393797 -52.236917 -11.476489
526 37 2 0.000000 33.300797 -53.402917 -10.300489
527 37 4 0.000000 37.083797 -57.350917 -8.943489
528 37 3 0.000000 37.548797 -62.608917 -7.381489
529 37 4 0.000000 40.410797 -66.496917 -5.770489
530 37 4 0.000000 40.351797 -72.320917 -2.417489
531 37 4 0.000000 36.972797 -76.815917 0.894511
532 37 4 0.000000 31.789797 -80.281917 1.921511
533 37 1 0.000000 26.606797 -83.747917 2.948511
534 37 1 0.000000 21.423797 -87.213917 3.975511
535 37 3 0.000000 16.240797 -90.679917 5.002511
536 37 4 0.000000 11.057797 -94.145917 6.029511
537 38 3 0.000000 -62.325958 -17.647279 19.515153
538 38 3 0.000000 -58.486958 -19.891279 17.433153
539 38 3 0.000000 -52.545958 -20.722279 16.968153
540 38 2 0.000000 -46.638958 -21.888279 18.144153
541 38 4 0.000000 -42.855958 -25.836279 19.501153
542 38 3 0.000000 -42.390958 -31.094279 21.063153
543 38 4 0.000000 -39.528958 -34.982279 22.674153
544 38 4 0.000000 -39.587958 -40.806279 26.027153
545 38 4 0.000000 -42.966958 -45.301279 29.339153
546 38 4 0.000000 -48.149958 -48.767279 30.366153
547 38 1 0.000000 -53.332958 -52.233279 31.393153
548 38 1 0.000000 -58.515958 -55.699279 32.420153
549 38 3 0.000000 -63.698958 -59.165279 33.447153
550 38 4 0.000000 -68.881958 -62.631279 34.474153
551 39 3 0.000000 -79.603756 48.069595 38.712835
552 39 3 0.000000 -75.764756 45.825595 36.630835
553 39 3 0.000000 -69.823756 44.994595 36.165835
554 39 2 0.000000 -63.916756 43.828595 37.341835
555 39 4 0.000000 -60.133756 39.880595 38.698835
556 39 3 0.000000 -59.668756 34.622595 40.260835
557 39 4 0.000000 -56.806756 30.734595 41.871835
558 39 4 0.000000 -56.865756 24.910595 45.224835
559 39 4 0.000000 -60.244756 20.415595 48.536835
560 39 4 0.000000 -65.427756 16.949595 49.563835
561 39 1 0.000000 -70.610756 13.483595 50.590835
562 39 1 0.000000 -75.793756 10.017595 51.617835
563 39 3 0.000000 -80.976756 6.551595 52.644835
564 39 4 0.000000 -86.159756 3.085595 53.671835
565 40 3 0.000000 57.437759 9.809951 -57.177907
566 40 3 0.000000 61.276759 7.565951 -59.259907
567 40 3 0.000000 67.217759 6.734951 -59.724907
568 40 2 0.000000 73.124759 5.568951 -58.548907
569 40 4 0.000000 76.907759 1.620951 -57.191907
570 40 3 0.000000 77.372759 -3.637049 -55.629907
571 40 4 0.000000 80.234759 -7.525049 -54.018907
572 40 4 0.000000 80.175759 -13.349049 -50.665907
573 40 4 0.000000 76.796759 -17.844049 -47.353907
574 40 4 0.000000 71.613759 -21.310049 -46.326907
575 40 1 0.000000 66.430759 -24.776049 -45.299907
576 40 1 0.000000 61.247759 -28.242049 -44.272907
577 40 3 0.000000 56.064759 -31.708049 -43.245907
578 40 4 0.000000 50.881759 -35.174049 -42.218907
579 41 3 0.000000 -70.987966 4.315790 26.624445
580 41 3 0.000000 -67.148966 2.071790 24.542445
581 41 3 0.000000 -61.207966 1.240790 24.077445
582 41 2 0.000000 -55.300966 0.074790 25.253445
583 41 4 0.000000 -51.517966 -3.873210 26.610445
584 41 3 0.000000 -51.052966 -9.131210 28.172445
585 41 4 0.000000 -48.190966 -13.019210 29.783445
586 41 4 0.000000 -48.249966 -18.843210 33.136445
587 41 4 0.000000 -51.628966 -23.338210 36.448445
588 41 4 0.000000 -56.811966 -26.804210 37.475445
589 41 1 0.000000 -61.994966 -30.270210 38.502445
590 41 1 0.000000 -67.177966 -33.736210 39.529445
591 41 3 0.000000 -72.360966 -37.202210 40.556445
592 41 4 0.000000 -77.543966 -40.668210 41.583445
593 42 3 0.000000 -66.564125 -5.444793 47.656031
594 42 3 0.000000 -62.725125 -7.688793 45.574031
595 42 3 0.000000 -56.784125 -8.519793 45.109031
596 42 2 0.000000 -50.877125 -9.685793 46.285031
597 42 4 0.000000 -47.094125 -13.633793 47.642031
598 42 3 0.000000 -46.629125 -18.891793 49.204031
599 42 4 0.000000 -43.767125 -22.779793 50.815031
600 42 4 0.000000 -43.826125 -28.603793 54.168031
601 42 4 0.000000 -47.205125 -33.098793 57.480031
602 42 4 0.000000 -52.388125 -36.564793 58.507031
603 42 1 0.000000 -57.571125 -40.030793 59.534031
604 42 1 0.000000 -62.754125 -43.496793 60.561031
605 42 3 0.000000 -67.937125 -46.962793 61.588031
606 42 4 0.000000 -73.120125 -50.428793 62.615031
607 43 3 0.000000 -62.263456 89.697622 -55.682999
608 43 3 0.000000 -58.424456 87.453622 -57.764999