LAMMPS data file - 1 Docked ASO + 199 Free ASOs + 1 Hairpin (unmodified)

2032 atoms
1831 bonds
1630 angles

4 atom types
1 bond types
1 angle types

-110.000000 110.000000 xlo xhi
-110.000000 110.000000 ylo yhi
-110.000000 110.000000 zlo zhi

Masses

1 329.20
2 305.20
3 345.20
4 306.20

Atoms

1 1 3 0.000000 -5.578000 20.548000 -14.353000
2 1 3 0.000000 -1.739000 18.304000 -16.435000
3 1 3 0.000000 4.202000 17.473000 -16.900000
4 1 2 0.000000 10.109000 16.307000 -15.724000
5 1 4 0.000000 13.892000 12.359000 -14.367000
6 1 3 0.000000 14.357000 7.101000 -12.805000
7 1 4 0.000000 17.219000 3.213000 -11.194000
8 1 4 0.000000 17.160000 -2.611000 -7.841000
9 1 4 0.000000 13.781000 -7.106000 -4.529000
10 1 4 0.000000 8.598000 -10.572000 -3.502000
11 2 3 0.000000 6.200000 -18.293000 1.303000
12 2 2 0.000000 11.826000 -16.769000 -0.282000
13 2 4 0.000000 14.864000 -14.582000 -4.893000
14 2 3 0.000000 14.993000 -11.956000 -10.484000
15 2 1 0.000000 12.426000 -9.940000 -15.598000
16 2 2 0.000000 7.732000 -7.606000 -17.857000
17 2 4 0.000000 3.763000 -3.183000 -18.318000
18 2 4 0.000000 1.611000 0.624000 -14.480000
19 2 4 0.000000 0.089000 3.321000 -9.329000
20 2 2 0.000000 2.466000 6.071000 -5.189000
21 2 1 0.000000 6.436000 9.150000 -2.157000
22 2 3 0.000000 8.843000 14.297000 -1.868000
23 2 2 0.000000 9.022000 19.873000 -3.800000
24 2 2 0.000000 8.786000 23.869000 -7.968000
25 2 2 0.000000 6.160000 28.412000 -10.146000
26 2 2 0.000000 11.347000 31.588000 -11.576000
27 2 1 0.000000 12.725000 25.899000 -11.465000
28 2 1 0.000000 12.008000 20.723000 -14.164000
29 2 1 0.000000 16.188000 17.160000 -11.527000
30 2 2 0.000000 19.755000 13.589000 -10.756000
31 2 1 0.000000 19.715000 8.246000 -7.924000
32 2 1 0.000000 17.704000 3.884000 -4.612000
33 2 1 0.000000 14.080000 -0.712000 -1.421000
34 2 1 0.000000 9.302000 -2.868000 -0.830000
35 2 1 0.000000 4.380000 -5.707000 -2.379000
36 2 1 0.000000 -0.876000 -7.526000 -5.386000
37 2 3 0.000000 -2.393000 -11.401000 -8.758000
38 2 4 0.000000 -0.063000 -15.859000 -11.557000
39 2 2 0.000000 3.680000 -20.032000 -13.782000
40 2 1 0.000000 8.300000 -23.997000 -14.294000
41 2 3 0.000000 11.532000 -27.040000 -10.381000
42 2 2 0.000000 12.517000 -29.449000 -5.237000
43 3 3 0.000000 -32.128586 -49.437092 -30.232128
44 3 3 0.000000 -28.289586 -51.681092 -32.314128
45 3 3 0.000000 -22.348586 -52.512092 -32.779128
46 3 2 0.000000 -16.441586 -53.678092 -31.603128
47 3 4 0.000000 -12.658586 -57.626092 -30.246128
48 3 3 0.000000 -12.193586 -62.884092 -28.684128
49 3 4 0.000000 -9.331586 -66.772092 -27.073128
50 3 4 0.000000 -9.390586 -72.596092 -23.720128
51 3 4 0.000000 -12.769586 -77.091092 -20.408128
52 3 4 0.000000 -17.952586 -80.557092 -19.381128
53 4 3 0.000000 36.510531 38.128148 49.410107
54 4 3 0.000000 40.349531 35.884148 47.328107
55 4 3 0.000000 46.290531 35.053148 46.863107
56 4 2 0.000000 52.197531 33.887148 48.039107
57 4 4 0.000000 55.980531 29.939148 49.396107
58 4 3 0.000000 56.445531 24.681148 50.958107
59 4 4 0.000000 59.307531 20.793148 52.569107
60 4 4 0.000000 59.248531 14.969148 55.922107
61 4 4 0.000000 55.869531 10.474148 59.234107
62 4 4 0.000000 50.686531 7.008148 60.261107
63 5 3 0.000000 -74.066452 22.890328 82.946552
64 5 3 0.000000 -70.227452 20.646328 80.864552
65 5 3 0.000000 -64.286452 19.815328 80.399552
66 5 2 0.000000 -58.379452 18.649328 81.575552
67 5 4 0.000000 -54.596452 14.701328 82.932552
68 5 3 0.000000 -54.131452 9.443328 84.494552
69 5 4 0.000000 -51.269452 5.555328 86.105552
70 5 4 0.000000 -51.328452 -0.268672 89.458552
71 5 4 0.000000 -54.707452 -4.763672 92.770552
72 5 4 0.000000 -59.890452 -8.229672 93.797552
73 6 3 0.000000 -27.154881 52.696406 -78.302783
74 6 3 0.000000 -23.315881 50.452406 -80.384783
75 6 3 0.000000 -17.374881 49.621406 -80.849783
76 6 2 0.000000 -11.467881 48.455406 -79.673783
77 6 4 0.000000 -7.684881 44.507406 -78.316783
78 6 3 0.000000 -7.219881 39.249406 -76.754783
79 6 4 0.000000 -4.357881 35.361406 -75.143783
80 6 4 0.000000 -4.416881 29.537406 -71.790783
81 6 4 0.000000 -7.795881 25.042406 -68.478783
82 6 4 0.000000 -12.978881 21.576406 -67.451783
83 7 3 0.000000 79.851263 34.820733 -54.728508
84 7 3 0.000000 83.690263 32.576733 -56.810508
85 7 3 0.000000 89.631263 31.745733 -57.275508
86 7 2 0.000000 95.538263 30.579733 -56.099508
87 7 4 0.000000 99.321263 26.631733 -54.742508
88 7 3 0.000000 99.786263 21.373733 -53.180508
89 7 4 0.000000 102.648263 17.485733 -51.569508
90 7 4 0.000000 102.589263 11.661733 -48.216508
91 7 4 0.000000 99.210263 7.166733 -44.904508
92 7 4 0.000000 94.027263 3.700733 -43.877508
93 8 3 0.000000 -83.102467 23.214201 7.862282
94 8 3 0.000000 -79.263467 20.970201 5.780282
95 8 3 0.000000 -73.322467 20.139201 5.315282
96 8 2 0.000000 -67.415467 18.973201 6.491282
97 8 4 0.000000 -63.632467 15.025201 7.848282
98 8 3 0.000000 -63.167467 9.767201 9.410282
99 8 4 0.000000 -60.305467 5.879201 11.021282
100 8 4 0.000000 -60.364467 0.055201 14.374282
101 8 4 0.000000 -63.743467 -4.439799 17.686282
102 8 4 0.000000 -68.926467 -7.905799 18.713282
103 9 3 0.000000 -96.136260 111.497828 79.997976
104 9 3 0.000000 -92.297260 109.253828 77.915976
105 9 3 0.000000 -86.356260 108.422828 77.450976
106 9 2 0.000000 -80.449260 107.256828 78.626976
107 9 4 0.000000 -76.666260 103.308828 79.983976
108 9 3 0.000000 -76.201260 98.050828 81.545976
109 9 4 0.000000 -73.339260 94.162828 83.156976
110 9 4 0.000000 -73.398260 88.338828 86.509976
111 9 4 0.000000 -76.777260 83.843828 89.821976
112 9 4 0.000000 -81.960260 80.377828 90.848976
113 10 3 0.000000 -22.488521 -63.460370 63.840635
114 10 3 0.000000 -18.649521 -65.704370 61.758635
115 10 3 0.000000 -12.708521 -66.535370 61.293635
116 10 2 0.000000 -6.801521 -67.701370 62.469635
117 10 4 0.000000 -3.018521 -71.649370 63.826635
118 10 3 0.000000 -2.553521 -76.907370 65.388635
119 10 4 0.000000 0.308479 -80.795370 66.999635
120 10 4 0.000000 0.249479 -86.619370 70.352635
121 10 4 0.000000 -3.129521 -91.114370 73.664635
122 10 4 0.000000 -8.312521 -94.580370 74.691635
123 11 3 0.000000 -15.102999 56.367065 -0.813597
124 11 3 0.000000 -11.263999 54.123065 -2.895597
125 11 3 0.000000 -5.322999 53.292065 -3.360597
126 11 2 0.000000 0.584001 52.126065 -2.184597
127 11 4 0.000000 4.367001 48.178065 -0.827597
128 11 3 0.000000 4.832001 42.920065 0.734403
129 11 4 0.000000 7.694001 39.032065 2.345403
130 11 4 0.000000 7.635001 33.208065 5.698403
131 11 4 0.000000 4.256001 28.713065 9.010403
132 11 4 0.000000 -0.926999 25.247065 10.037403
133 12 3 0.000000 -60.093121 79.991189 93.460927
134 12 3 0.000000 -56.254121 77.747189 91.378927
135 12 3 0.000000 -50.313121 76.916189 90.913927
136 12 2 0.000000 -44.406121 75.750189 92.089927
137 12 4 0.000000 -40.623121 71.802189 93.446927
138 12 3 0.000000 -40.158121 66.544189 95.008927
139 12 4 0.000000 -37.296121 62.656189 96.619927
140 12 4 0.000000 -37.355121 56.832189 99.972927
141 12 4 0.000000 -40.734121 52.337189 103.284927
142 12 4 0.000000 -45.917121 48.871189 104.311927
143 13 3 0.000000 -66.031919 23.299415 -25.870797
144 13 3 0.000000 -62.192919 21.055415 -27.952797
145 13 3 0.000000 -56.251919 20.224415 -28.417797
146 13 2 0.000000 -50.344919 19.058415 -27.241797
147 13 4 0.000000 -46.561919 15.110415 -25.884797
148 13 3 0.000000 -46.096919 9.852415 -24.322797
149 13 4 0.000000 -43.234919 5.964415 -22.711797
150 13 4 0.000000 -43.293919 0.140415 -19.358797
151 13 4 0.000000 -46.672919 -4.354585 -16.046797
152 13 4 0.000000 -51.855919 -7.820585 -15.019797
153 14 3 0.000000 69.595530 14.694578 73.277251
154 14 3 0.000000 73.434530 12.450578 71.195251
155 14 3 0.000000 79.375530 11.619578 70.730251
156 14 2 0.000000 85.282530 10.453578 71.906251
157 14 4 0.000000 89.065530 6.505578 73.263251
158 14 3 0.000000 89.530530 1.247578 74.825251
159 14 4 0.000000 92.392530 -2.640422 76.436251
160 14 4 0.000000 92.333530 -8.464422 79.789251
161 14 4 0.000000 88.954530 -12.959422 83.101251
162 14 4 0.000000 83.771530 -16.425422 84.128251
163 15 3 0.000000 58.027287 -31.704119 55.413236
164 15 3 0.000000 61.866287 -33.948119 53.331236
165 15 3 0.000000 67.807287 -34.779119 52.866236
166 15 2 0.000000 73.714287 -35.945119 54.042236
167 15 4 0.000000 77.497287 -39.893119 55.399236
168 15 3 0.000000 77.962287 -45.151119 56.961236
169 15 4 0.000000 80.824287 -49.039119 58.572236
170 15 4 0.000000 80.765287 -54.863119 61.925236
171 15 4 0.000000 77.386287 -59.358119 65.237236
172 15 4 0.000000 72.203287 -62.824119 66.264236
173 16 3 0.000000 -31.789615 99.896079 -1.040465
174 16 3 0.000000 -27.950615 97.652079 -3.122465
175 16 3 0.000000 -22.009615 96.821079 -3.587465
176 16 2 0.000000 -16.102615 95.655079 -2.411465
177 16 4 0.000000 -12.319615 91.707079 -1.054465
178 16 3 0.000000 -11.854615 86.449079 0.507535
179 16 4 0.000000 -8.992615 82.561079 2.118535
180 16 4 0.000000 -9.051615 76.737079 5.471535
181 16 4 0.000000 -12.430615 72.242079 8.783535
182 16 4 0.000000 -17.613615 68.776079 9.810535
183 17 3 0.000000 49.331795 -30.385803 -42.876830
184 17 3 0.000000 53.170795 -32.629803 -44.958830
185 17 3 0.000000 59.111795 -33.460803 -45.423830
186 17 2 0.000000 65.018795 -34.626803 -44.247830
187 17 4 0.000000 68.801795 -38.574803 -42.890830
188 17 3 0.000000 69.266795 -43.832803 -41.328830
189 17 4 0.000000 72.128795 -47.720803 -39.717830
190 17 4 0.000000 72.069795 -53.544803 -36.364830
191 17 4 0.000000 68.690795 -58.039803 -33.052830
192 17 4 0.000000 63.507795 -61.505803 -32.025830
193 18 3 0.000000 2.609444 112.826867 -4.659931
194 18 3 0.000000 6.448444 110.582867 -6.741931
195 18 3 0.000000 12.389444 109.751867 -7.206931
196 18 2 0.000000 18.296444 108.585867 -6.030931
197 18 4 0.000000 22.079444 104.637867 -4.673931
198 18 3 0.000000 22.544444 99.379867 -3.111931
199 18 4 0.000000 25.406444 95.491867 -1.500931
200 18 4 0.000000 25.347444 89.667867 1.852069
201 18 4 0.000000 21.968444 85.172867 5.164069
202 18 4 0.000000 16.785444 81.706867 6.191069
203 19 3 0.000000 -85.059016 20.762516 -33.563212
204 19 3 0.000000 -81.220016 18.518516 -35.645212
205 19 3 0.000000 -75.279016 17.687516 -36.110212
206 19 2 0.000000 -69.372016 16.521516 -34.934212
207 19 4 0.000000 -65.589016 12.573516 -33.577212
208 19 3 0.000000 -65.124016 7.315516 -32.015212
209 19 4 0.000000 -62.262016 3.427516 -30.404212
210 19 4 0.000000 -62.321016 -2.396484 -27.051212
211 19 4 0.000000 -65.700016 -6.891484 -23.739212
212 19 4 0.000000 -70.883016 -10.357484 -22.712212
213 20 3 0.000000 -50.422630 -49.223125 36.911686
214 20 3 0.000000 -46.583630 -51.467125 34.829686
215 20 3 0.000000 -40.642630 -52.298125 34.364686
216 20 2 0.000000 -34.735630 -53.464125 35.540686
217 20 4 0.000000 -30.952630 -57.412125 36.897686
218 20 3 0.000000 -30.487630 -62.670125 38.459686
219 20 4 0.000000 -27.625630 -66.558125 40.070686
220 20 4 0.000000 -27.684630 -72.382125 43.423686
221 20 4 0.000000 -31.063630 -76.877125 46.735686
222 20 4 0.000000 -36.246630 -80.343125 47.762686
223 21 3 0.000000 -0.418572 -40.241111 52.520895
224 21 3 0.000000 3.420428 -42.485111 50.438895
225 21 3 0.000000 9.361428 -43.316111 49.973895
226 21 2 0.000000 15.268428 -44.482111 51.149895
227 21 4 0.000000 19.051428 -48.430111 52.506895
228 21 3 0.000000 19.516428 -53.688111 54.068895
229 21 4 0.000000 22.378428 -57.576111 55.679895
230 21 4 0.000000 22.319428 -63.400111 59.032895
231 21 4 0.000000 18.940428 -67.895111 62.344895
232 21 4 0.000000 13.757428 -71.361111 63.371895
233 22 3 0.000000 -106.048640 61.987430 38.457576
234 22 3 0.000000 -102.209640 59.743430 36.375576
235 22 3 0.000000 -96.268640 58.912430 35.910576
236 22 2 0.000000 -90.361640 57.746430 37.086576
237 22 4 0.000000 -86.578640 53.798430 38.443576
238 22 3 0.000000 -86.113640 48.540430 40.005576
239 22 4 0.000000 -83.251640 44.652430 41.616576
240 22 4 0.000000 -83.310640 38.828430 44.969576
241 22 4 0.000000 -86.689640 34.333430 48.281576
242 22 4 0.000000 -91.872640 30.867430 49.308576
243 23 3 0.000000 47.503681 -9.737850 30.149766
244 23 3 0.000000 51.342681 -11.981850 28.067766
245 23 3 0.000000 57.283681 -12.812850 27.602766
246 23 2 0.000000 63.190681 -13.978850 28.778766
247 23 4 0.000000 66.973681 -17.926850 30.135766
248 23 3 0.000000 67.438681 -23.184850 31.697766
249 23 4 0.000000 70.300681 -27.072850 33.308766
250 23 4 0.000000 70.241681 -32.896850 36.661766
251 23 4 0.000000 66.862681 -37.391850 39.973766
252 23 4 0.000000 61.679681 -40.857850 41.000766
253 24 3 0.000000 49.371410 109.210028 -3.522270
254 24 3 0.000000 53.210410 106.966028 -5.604270
255 24 3 0.000000 59.151410 106.135028 -6.069270
256 24 2 0.000000 65.058410 104.969028 -4.893270
257 24 4 0.000000 68.841410 101.021028 -3.536270
258 24 3 0.000000 69.306410 95.763028 -1.974270
259 24 4 0.000000 72.168410 91.875028 -0.363270
260 24 4 0.000000 72.109410 86.051028 2.989730
261 24 4 0.000000 68.730410 81.556028 6.301730
262 24 4 0.000000 63.547410 78.090028 7.328730
263 25 3 0.000000 -107.374178 13.504630 15.448086
264 25 3 0.000000 -103.535178 11.260630 13.366086
265 25 3 0.000000 -97.594178 10.429630 12.901086
266 25 2 0.000000 -91.687178 9.263630 14.077086
267 25 4 0.000000 -87.904178 5.315630 15.434086
268 25 3 0.000000 -87.439178 0.057630 16.996086
269 25 4 0.000000 -84.577178 -3.830370 18.607086
270 25 4 0.000000 -84.636178 -9.654370 21.960086
271 25 4 0.000000 -88.015178 -14.149370 25.272086
272 25 4 0.000000 -93.198178 -17.615370 26.299086
273 26 3 0.000000 59.161963 87.884475 -14.526758
274 26 3 0.000000 63.000963 85.640475 -16.608758
275 26 3 0.000000 68.941963 84.809475 -17.073758
276 26 2 0.000000 74.848963 83.643475 -15.897758
277 26 4 0.000000 78.631963 79.695475 -14.540758
278 26 3 0.000000 79.096963 74.437475 -12.978758
279 26 4 0.000000 81.958963 70.549475 -11.367758
280 26 4 0.000000 81.899963 64.725475 -8.014758
281 26 4 0.000000 78.520963 60.230475 -4.702758
282 26 4 0.000000 73.337963 56.764475 -3.675758
283 27 3 0.000000 -9.587883 4.432015 41.900766
284 27 3 0.000000 -5.748883 2.188015 39.818766
285 27 3 0.000000 0.192117 1.357015 39.353766
286 27 2 0.000000 6.099117 0.191015 40.529766
287 27 4 0.000000 9.882117 -3.756985 41.886766
288 27 3 0.000000 10.347117 -9.014985 43.448766
289 27 4 0.000000 13.209117 -12.902985 45.059766
290 27 4 0.000000 13.150117 -18.726985 48.412766
291 27 4 0.000000 9.771117 -23.221985 51.724766
292 27 4 0.000000 4.588117 -26.687985 52.751766
293 28 3 0.000000 -20.879980 106.887126 -34.875753
294 28 3 0.000000 -17.040980 104.643126 -36.957753
295 28 3 0.000000 -11.099980 103.812126 -37.422753
296 28 2 0.000000 -5.192980 102.646126 -36.246753
297 28 4 0.000000 -1.409980 98.698126 -34.889753
298 28 3 0.000000 -0.944980 93.440126 -33.327753
299 28 4 0.000000 1.917020 89.552126 -31.716753
300 28 4 0.000000 1.858020 83.728126 -28.363753
301 28 4 0.000000 -1.520980 79.233126 -25.051753
302 28 4 0.000000 -6.703980 75.767126 -24.024753
303 29 3 0.000000 23.762820 43.013731 67.765058
304 29 3 0.000000 27.601820 40.769731 65.683058
305 29 3 0.000000 33.542820 39.938731 65.218058
306 29 2 0.000000 39.449820 38.772731 66.394058
307 29 4 0.000000 43.232820 34.824731 67.751058
308 29 3 0.000000 43.697820 29.566731 69.313058
309 29 4 0.000000 46.559820 25.678731 70.924058
310 29 4 0.000000 46.500820 19.854731 74.277058
311 29 4 0.000000 43.121820 15.359731 77.589058
312 29 4 0.000000 37.938820 11.893731 78.616058
313 30 3 0.000000 -51.445869 56.789885 49.292362
314 30 3 0.000000 -47.606869 54.545885 47.210362
315 30 3 0.000000 -41.665869 53.714885 46.745362
316 30 2 0.000000 -35.758869 52.548885 47.921362
317 30 4 0.000000 -31.975869 48.600885 49.278362
318 30 3 0.000000 -31.510869 43.342885 50.840362
319 30 4 0.000000 -28.648869 39.454885 52.451362
320 30 4 0.000000 -28.707869 33.630885 55.804362
321 30 4 0.000000 -32.086869 29.135885 59.116362
322 30 4 0.000000 -37.269869 25.669885 60.143362
323 31 3 0.000000 59.698503 -79.773780 -88.903851
324 31 3 0.000000 63.537503 -82.017780 -90.985851
325 31 3 0.000000 69.478503 -82.848780 -91.450851
326 31 2 0.000000 75.385503 -84.014780 -90.274851
327 31 4 0.000000 79.168503 -87.962780 -88.917851
328 31 3 0.000000 79.633503 -93.220780 -87.355851
329 31 4 0.000000 82.495503 -97.108780 -85.744851
330 31 4 0.000000 82.436503 -102.932780 -82.391851
331 31 4 0.000000 79.057503 -107.427780 -79.079851
332 31 4 0.000000 73.874503 -110.893780 -78.052851
333 32 3 0.000000 11.454103 97.232220 96.897185
334 32 3 0.000000 15.293103 94.988220 94.815185
335 32 3 0.000000 21.234103 94.157220 94.350185
336 32 2 0.000000 27.141103 92.991220 95.526185
337 32 4 0.000000 30.924103 89.043220 96.883185
338 32 3 0.000000 31.389103 83.785220 98.445185
339 32 4 0.000000 34.251103 79.897220 100.056185
340 32 4 0.000000 34.192103 74.073220 103.409185
341 32 4 0.000000 30.813103 69.578220 106.721185
342 32 4 0.000000 25.630103 66.112220 107.748185
343 33 3 0.000000 34.575173 -0.159306 -82.899375
344 33 3 0.000000 38.414173 -2.403306 -84.981375
345 33 3 0.000000 44.355173 -3.234306 -85.446375
346 33 2 0.000000 50.262173 -4.400306 -84.270375
347 33 4 0.000000 54.045173 -8.348306 -82.913375
348 33 3 0.000000 54.510173 -13.606306 -81.351375
349 33 4 0.000000 57.372173 -17.494306 -79.740375
350 33 4 0.000000 57.313173 -23.318306 -76.387375
351 33 4 0.000000 53.934173 -27.813306 -73.075375
352 33 4 0.000000 48.751173 -31.279306 -72.048375
353 34 3 0.000000 11.971466 87.562247 -13.852290
354 34 3 0.000000 15.810466 85.318247 -15.934290
355 34 3 0.000000 21.751466 84.487247 -16.399290
356 34 2 0.000000 27.658466 83.321247 -15.223290
357 34 4 0.000000 31.441466 79.373247 -13.866290
358 34 3 0.000000 31.906466 74.115247 -12.304290
359 34 4 0.000000 34.768466 70.227247 -10.693290
360 34 4 0.000000 34.709466 64.403247 -7.340290
361 34 4 0.000000 31.330466 59.908247 -4.028290
362 34 4 0.000000 26.147466 56.442247 -3.001290
363 35 3 0.000000 24.022133 93.731212 -93.389806
364 35 3 0.000000 27.861133 91.487212 -95.471806
365 35 3 0.000000 33.802133 90.656212 -95.936806
366 35 2 0.000000 39.709133 89.490212 -94.760806
367 35 4 0.000000 43.492133 85.542212 -93.403806
368 35 3 0.000000 43.957133 80.284212 -91.841806
369 35 4 0.000000 46.819133 76.396212 -90.230806
370 35 4 0.000000 46.760133 70.572212 -86.877806
371 35 4 0.000000 43.381133 66.077212 -83.565806
372 35 4 0.000000 38.198133 62.611212 -82.538806
373 36 3 0.000000 44.450593 -28.280045 -27.619782
374 36 3 0.000000 48.289593 -30.524045 -29.701782
375 36 3 0.000000 54.230593 -31.355045 -30.166782
376 36 2 0.000000 60.137593 -32.521045 -28.990782
377 36 4 0.000000 63.920593 -36.469045 -27.633782
378 36 3 0.000000 64.385593 -41.727045 -26.071782
379 36 4 0.000000 67.247593 -45.615045 -24.460782
380 36 4 0.000000 67.188593 -51.439045 -21.107782
381 36 4 0.000000 63.809593 -55.934045 -17.795782
382 36 4 0.000000 58.626593 -59.400045 -16.768782
383 37 3 0.000000 43.725795 -52.956870 -86.794330
384 37 3 0.000000 47.564795 -55.200870 -88.876330
385 37 3 0.000000 53.505795 -56.031870 -89.341330
386 37 2 0.000000 59.412795 -57.197870 -88.165330
387 37 4 0.000000 63.195795 -61.145870 -86.808330
388 37 3 0.000000 63.660795 -66.403870 -85.246330
389 37 4 0.000000 66.522795 -70.291870 -83.635330
390 37 4 0.000000 66.463795 -76.115870 -80.282330
391 37 4 0.000000 63.084795 -80.610870 -76.970330
392 37 4 0.000000 57.901795 -84.076870 -75.943330
393 38 3 0.000000 59.389820 36.988474 -54.422042
394 38 3 0.000000 63.228820 34.744474 -56.504042
395 38 3 0.000000 69.169820 33.913474 -56.969042
396 38 2 0.000000 75.076820 32.747474 -55.793042
397 38 4 0.000000 78.859820 28.799474 -54.436042
398 38 3 0.000000 79.324820 23.541474 -52.874042
399 38 4 0.000000 82.186820 19.653474 -51.263042
400 38 4 0.000000 82.127820 13.829474 -47.910042
401 38 4 0.000000 78.748820 9.334474 -44.598042
402 38 4 0.000000 73.565820 5.868474 -43.571042
403 39 3 0.000000 67.787703 -58.330056 -10.358017
404 39 3 0.000000 71.626703 -60.574056 -12.440017
405 39 3 0.000000 77.567703 -61.405056 -12.905017
406 39 2 0.000000 83.474703 -62.571056 -11.729017
407 39 4 0.000000 87.257703 -66.519056 -10.372017
408 39 3 0.000000 87.722703 -71.777056 -8.810017
409 39 4 0.000000 90.584703 -75.665056 -7.199017
410 39 4 0.000000 90.525703 -81.489056 -3.846017
411 39 4 0.000000 87.146703 -85.984056 -0.534017
412 39 4 0.000000 81.963703 -89.450056 0.492983
413 40 3 0.000000 -63.982632 -35.888258 -100.708514
414 40 3 0.000000 -60.143632 -38.132258 -102.790514
415 40 3 0.000000 -54.202632 -38.963258 -103.255514
416 40 2 0.000000 -48.295632 -40.129258 -102.079514
417 40 4 0.000000 -44.512632 -44.077258 -100.722514
418 40 3 0.000000 -44.047632 -49.335258 -99.160514
419 40 4 0.000000 -41.185632 -53.223258 -97.549514
420 40 4 0.000000 -41.244632 -59.047258 -94.196514
421 40 4 0.000000 -44.623632 -63.542258 -90.884514
422 40 4 0.000000 -49.806632 -67.008258 -89.857514
423 41 3 0.000000 46.148515 93.288285 32.934177
424 41 3 0.000000 49.987515 91.044285 30.852177
425 41 3 0.000000 55.928515 90.213285 30.387177
426 41 2 0.000000 61.835515 89.047285 31.563177
427 41 4 0.000000 65.618515 85.099285 32.920177
428 41 3 0.000000 66.083515 79.841285 34.482177
429 41 4 0.000000 68.945515 75.953285 36.093177
430 41 4 0.000000 68.886515 70.129285 39.446177
431 41 4 0.000000 65.507515 65.634285 42.758177
432 41 4 0.000000 60.324515 62.168285 43.785177
433 42 3 0.000000 -83.182976 1.392357 -33.474875
434 42 3 0.000000 -79.343976 -0.851643 -35.556875
435 42 3 0.000000 -73.402976 -1.682643 -36.021875
436 42 2 0.000000 -67.495976 -2.848643 -34.845875
437 42 4 0.000000 -63.712976 -6.796643 -33.488875
438 42 3 0.000000 -63.247976 -12.054643 -31.926875
439 42 4 0.000000 -60.385976 -15.942643 -30.315875
440 42 4 0.000000 -60.444976 -21.766643 -26.962875
441 42 4 0.000000 -63.823976 -26.261643 -23.650875
442 42 4 0.000000 -69.006976 -29.727643 -22.623875
443 43 3 0.000000 -64.758455 82.107185 -62.744600
444 43 3 0.000000 -60.919455 79.863185 -64.826600
445 43 3 0.000000 -54.978455 79.032185 -65.291600
446 43 2 0.000000 -49.071455 77.866185 -64.115600
447 43 4 0.000000 -45.288455 73.918185 -62.758600
448 43 3 0.000000 -44.823455 68.660185 -61.196600
449 43 4 0.000000 -41.961455 64.772185 -59.585600
450 43 4 0.000000 -42.020455 58.948185 -56.232600
451 43 4 0.000000 -45.399455 54.453185 -52.920600
452 43 4 0.000000 -50.582455 50.987185 -51.893600
453 44 3 0.000000 -37.839450 9.688012 -55.146860
454 44 3 0.000000 -34.000450 7.444012 -57.228860
455 44 3 0.000000 -28.059450 6.613012 -57.693860
456 44 2 0.000000 -22.152450 5.447012 -56.517860
457 44 4 0.000000 -18.369450 1.499012 -55.160860
458 44 3 0.000000 -17.904450 -3.758988 -53.598860
459 44 4 0.000000 -15.042450 -7.646988 -51.987860
460 44 4 0.000000 -15.101450 -13.470988 -48.634860
461 44 4 0.000000 -18.480450 -17.965988 -45.322860
462 44 4 0.000000 -23.663450 -21.431988 -44.295860
463 45 3 0.000000 -0.393562 28.008786 95.950409
464 45 3 0.000000 3.445438 25.764786 93.868409
465 45 3 0.000000 9.386438 24.933786 93.403409
466 45 2 0.000000 15.293438 23.767786 94.579409
467 45 4 0.000000 19.076438 19.819786 95.936409
468 45 3 0.000000 19.541438 14.561786 97.498409
469 45 4 0.000000 22.403438 10.673786 99.109409
470 45 4 0.000000 22.344438 4.849786 102.462409
471 45 4 0.000000 18.965438 0.354786 105.774409
472 45 4 0.000000 13.782438 -3.111214 106.801409
473 46 3 0.000000 -55.731949 108.635297 29.057963
474 46 3 0.000000 -51.892949 106.391297 26.975963
475 46 3 0.000000 -45.951949 105.560297 26.510963
476 46 2 0.000000 -40.044949 104.394297 27.686963
477 46 4 0.000000 -36.261949 100.446297 29.043963
478 46 3 0.000000 -35.796949 95.188297 30.605963
479 46 4 0.000000 -32.934949 91.300297 32.216963
480 46 4 0.000000 -32.993949 85.476297 35.569963
481 46 4 0.000000 -36.372949 80.981297 38.881963
482 46 4 0.000000 -41.555949 77.515297 39.908963
483 47 3 0.000000 -59.882024 26.232203 34.571899
484 47 3 0.000000 -56.043024 23.988203 32.489899
485 47 3 0.000000 -50.102024 23.157203 32.024899
486 47 2 0.000000 -44.195024 21.991203 33.200899
487 47 4 0.000000 -40.412024 18.043203 34.557899
488 47 3 0.000000 -39.947024 12.785203 36.119899
489 47 4 0.000000 -37.085024 8.897203 37.730899
490 47 4 0.000000 -37.144024 3.073203 41.083899
491 47 4 0.000000 -40.523024 -1.421797 44.395899
492 47 4 0.000000 -45.706024 -4.887797 45.422899
493 48 3 0.000000 34.155668 -77.144750 18.693299
494 48 3 0.000000 37.994668 -79.388750 16.611299
495 48 3 0.000000 43.935668 -80.219750 16.146299
496 48 2 0.000000 49.842668 -81.385750 17.322299
497 48 4 0.000000 53.625668 -85.333750 18.679299
498 48 3 0.000000 54.090668 -90.591750 20.241299
499 48 4 0.000000 56.952668 -94.479750 21.852299
500 48 4 0.000000 56.893668 -100.303750 25.205299
501 48 4 0.000000 53.514668 -104.798750 28.517299
502 48 4 0.000000 48.331668 -108.264750 29.544299
503 49 3 0.000000 -15.432643 93.877458 -45.349170
504 49 3 0.000000 -11.593643 91.633458 -47.431170
505 49 3 0.000000 -5.652643 90.802458 -47.896170
506 49 2 0.000000 0.254357 89.636458 -46.720170
507 49 4 0.000000 4.037357 85.688458 -45.363170
508 49 3 0.000000 4.502357 80.430458 -43.801170
509 49 4 0.000000 7.364357 76.542458 -42.190170
510 49 4 0.000000 7.305357 70.718458 -38.837170
511 49 4 0.000000 3.926357 66.223458 -35.525170
512 49 4 0.000000 -1.256643 62.757458 -34.498170
513 50 3 0.000000 44.993924 34.459400 -32.123809
514 50 3 0.000000 48.832924 32.215400 -34.205809
515 50 3 0.000000 54.773924 31.384400 -34.670809
516 50 2 0.000000 60.680924 30.218400 -33.494809
517 50 4 0.000000 64.463924 26.270400 -32.137809
518 50 3 0.000000 64.928924 21.012400 -30.575809
519 50 4 0.000000 67.790924 17.124400 -28.964809
520 50 4 0.000000 67.731924 11.300400 -25.611809
521 50 4 0.000000 64.352924 6.805400 -22.299809
522 50 4 0.000000 59.169924 3.339400 -21.272809
523 51 3 0.000000 12.545476 37.224633 32.964892
524 51 3 0.000000 16.384476 34.980633 30.882892
525 51 3 0.000000 22.325476 34.149633 30.417892
526 51 2 0.000000 28.232476 32.983633 31.593892
527 51 4 0.000000 32.015476 29.035633 32.950892
528 51 3 0.000000 32.480476 23.777633 34.512892
529 51 4 0.000000 35.342476 19.889633 36.123892
530 51 4 0.000000 35.283476 14.065633 39.476892
531 51 4 0.000000 31.904476 9.570633 42.788892
532 51 4 0.000000 26.721476 6.104633 43.815892
533 52 3 0.000000 10.871521 93.727141 26.680122
534 52 3 0.000000 14.710521 91.483141 24.598122
535 52 3 0.000000 20.651521 90.652141 24.133122
536 52 2 0.000000 26.558521 89.486141 25.309122
537 52 4 0.000000 30.341521 85.538141 26.666122
538 52 3 0.000000 30.806521 80.280141 28.228122
539 52 4 0.000000 33.668521 76.392141 29.839122
540 52 4 0.000000 33.609521 70.568141 33.192122
541 52 4 0.000000 30.230521 66.073141 36.504122
542 52 4 0.000000 25.047521 62.607141 37.531122
543 53 3 0.000000 -52.991523 1.211038 13.326761
544 53 3 0.000000 -49.152523 -1.032962 11.244761
545 53 3 0.000000 -43.211523 -1.863962 10.779761
546 53 2 0.000000 -37.304523 -3.029962 11.955761
547 53 4 0.000000 -33.521523 -6.977962 13.312761
548 53 3 0.000000 -33.056523 -12.235962 14.874761
549 53 4 0.000000 -30.194523 -16.123962 16.485761
550 53 4 0.000000 -30.253523 -21.947962 19.838761
551 53 4 0.000000 -33.632523 -26.442962 23.150761
552 53 4 0.000000 -38.815523 -29.908962 24.177761
553 54 3 0.000000 31.693854 -68.926925 -43.565910
554 54 3 0.000000 35.532854 -71.170925 -45.647910
555 54 3 0.000000 41.473854 -72.001925 -46.112910
556 54 2 0.000000 47.380854 -73.167925 -44.936910
557 54 4 0.000000 51.163854 -77.115925 -43.579910
558 54 3 0.000000 51.628854 -82.373925 -42.017910
559 54 4 0.000000 54.490854 -86.261925 -40.406910
560 54 4 0.000000 54.431854 -92.085925 -37.053910
561 54 4 0.000000 51.052854 -96.580925 -33.741910
562 54 4 0.000000 45.869854 -100.046925 -32.714910
563 55 3 0.000000 67.919295 79.140924 -51.193983
564 55 3 0.000000 71.758295 76.896924 -53.275983
565 55 3 0.000000 77.699295 76.065924 -53.740983
566 55 2 0.000000 83.606295 74.899924 -52.564983
567 55 4 0.000000 87.389295 70.951924 -51.207983
568 55 3 0.000000 87.854295 65.693924 -49.645983
569 55 4 0.000000 90.716295 61.805924 -48.034983
570 55 4 0.000000 90.657295 55.981924 -44.681983
571 55 4 0.000000 87.278295 51.486924 -41.369983
572 55 4 0.000000 82.095295 48.020924 -40.342983
573 56 3 0.000000 50.159863 9.415966 58.709699
574 56 3 0.000000 53.998863 7.171966 56.627699
575 56 3 0.000000 59.939863 6.340966 56.162699
576 56 2 0.000000 65.846863 5.174966 57.338699
577 56 4 0.000000 69.629863 1.226966 58.695699
578 56 3 0.000000 70.094863 -4.031034 60.257699
579 56 4 0.000000 72.956863 -7.919034 61.868699
580 56 4 0.000000 72.897863 -13.743034 65.221699
581 56 4 0.000000 69.518863 -18.238034 68.533699
582 56 4 0.000000 64.335863 -21.704034 69.560699
583 57 3 0.000000 34.533770 -19.210549 -79.554059
584 57 3 0.000000 38.372770 -21.454549 -81.636059
585 57 3 0.000000 44.313770 -22.285549 -82.101059
586 57 2 0.000000 50.220770 -23.451549 -80.925059
587 57 4 0.000000 54.003770 -27.399549 -79.568059
588 57 3 0.000000 54.468770 -32.657549 -78.006059
589 57 4 0.000000 57.330770 -36.545549 -76.395059
590 57 4 0.000000 57.271770 -42.369549 -73.042059
591 57 4 0.000000 53.892770 -46.864549 -69.730059
592 57 4 0.000000 48.709770 -50.330549 -68.703059
593 58 3 0.000000 77.800559 -58.802197 90.712042
594 58 3 0.000000 81.639559 -61.046197 88.630042
595 58 3 0.000000 87.580559 -61.877197 88.165042
596 58 2 0.000000 93.487559 -63.043197 89.341042
597 58 4 0.000000 97.270559 -66.991197 90.698042
598 58 3 0.000000 97.735559 -72.249197 92.260042
599 58 4 0.000000 100.597559 -76.137197 93.871042
600 58 4 0.000000 100.538559 -81.961197 97.224042
601 58 4 0.000000 97.159559 -86.456197 100.536042
602 58 4 0.000000 91.976559 -89.922197 101.563042
603 59 3 0.000000 57.250019 57.889742 93.400449
604 59 3 0.000000 61.089019 55.645742 91.318449
605 59 3 0.000000 67.030019 54.814742 90.853449
606 59 2 0.000000 72.937019 53.648742 92.029449
607 59 4 0.000000 76.720019 49.700742 93.386449
608 59 3 0.000000 77.185019 44.442742 94.948449
609 59 4 0.000000 80.047019 40.554742 96.559449
610 59 4 0.000000 79.988019 34.730742 99.912449