LAMMPS data file - 1 Docked ASO + 49 Free ASOs + 1 Hairpin (unmodified)

532 atoms
481 bonds
430 angles

4 atom types
1 bond types
1 angle types

-80.000000 80.000000 xlo xhi
-80.000000 80.000000 ylo yhi
-80.000000 80.000000 zlo zhi

Masses

1 329.20
2 305.20
3 345.20
4 306.20

Atoms

1 1 3 0.000000 -5.578000 20.548000 -14.353000
2 1 3 0.000000 -1.739000 18.304000 -16.435000
3 1 3 0.000000 4.202000 17.473000 -16.900000
4 1 2 0.000000 10.109000 16.307000 -15.724000
5 1 4 0.000000 13.892000 12.359000 -14.367000
6 1 3 0.000000 14.357000 7.101000 -12.805000
7 1 4 0.000000 17.219000 3.213000 -11.194000
8 1 4 0.000000 17.160000 -2.611000 -7.841000
9 1 4 0.000000 13.781000 -7.106000 -4.529000
10 1 4 0.000000 8.598000 -10.572000 -3.502000
11 2 3 0.000000 6.200000 -18.293000 1.303000
12 2 2 0.000000 11.826000 -16.769000 -0.282000
13 2 4 0.000000 14.864000 -14.582000 -4.893000
14 2 3 0.000000 14.993000 -11.956000 -10.484000
15 2 1 0.000000 12.426000 -9.940000 -15.598000
16 2 2 0.000000 7.732000 -7.606000 -17.857000
17 2 4 0.000000 3.763000 -3.183000 -18.318000
18 2 4 0.000000 1.611000 0.624000 -14.480000
19 2 4 0.000000 0.089000 3.321000 -9.329000
20 2 2 0.000000 2.466000 6.071000 -5.189000
21 2 1 0.000000 6.436000 9.150000 -2.157000
22 2 3 0.000000 8.843000 14.297000 -1.868000
23 2 2 0.000000 9.022000 19.873000 -3.800000
24 2 2 0.000000 8.786000 23.869000 -7.968000
25 2 2 0.000000 6.160000 28.412000 -10.146000
26 2 2 0.000000 11.347000 31.588000 -11.576000
27 2 1 0.000000 12.725000 25.899000 -11.465000
28 2 1 0.000000 12.008000 20.723000 -14.164000
29 2 1 0.000000 16.188000 17.160000 -11.527000
30 2 2 0.000000 19.755000 13.589000 -10.756000
31 2 1 0.000000 19.715000 8.246000 -7.924000
32 2 1 0.000000 17.704000 3.884000 -4.612000
33 2 1 0.000000 14.080000 -0.712000 -1.421000
34 2 1 0.000000 9.302000 -2.868000 -0.830000
35 2 1 0.000000 4.380000 -5.707000 -2.379000
36 2 1 0.000000 -0.876000 -7.526000 -5.386000
37 2 3 0.000000 -2.393000 -11.401000 -8.758000
38 2 4 0.000000 -0.063000 -15.859000 -11.557000
39 2 2 0.000000 3.680000 -20.032000 -13.782000
40 2 1 0.000000 8.300000 -23.997000 -14.294000
41 2 3 0.000000 11.532000 -27.040000 -10.381000
42 2 2 0.000000 12.517000 -29.449000 -5.237000
43 3 3 0.000000 54.847509 -37.587156 -3.495783
44 3 3 0.000000 58.686509 -39.831156 -5.577783
45 3 3 0.000000 64.627509 -40.662156 -6.042783
46 3 2 0.000000 70.534509 -41.828156 -4.866783
47 3 4 0.000000 74.317509 -45.776156 -3.509783
48 3 3 0.000000 74.782509 -51.034156 -1.947783
49 3 4 0.000000 77.644509 -54.922156 -0.336783
50 3 4 0.000000 77.585509 -60.746156 3.016217
51 3 4 0.000000 74.206509 -65.241156 6.328217
52 3 4 0.000000 69.023509 -68.707156 7.355217
53 4 3 0.000000 21.031402 63.600807 -51.190215
54 4 3 0.000000 24.870402 61.356807 -53.272215
55 4 3 0.000000 30.811402 60.525807 -53.737215
56 4 2 0.000000 36.718402 59.359807 -52.561215
57 4 4 0.000000 40.501402 55.411807 -51.204215
58 4 3 0.000000 40.966402 50.153807 -49.642215
59 4 4 0.000000 43.828402 46.265807 -48.031215
60 4 4 0.000000 43.769402 40.441807 -44.678215
61 4 4 0.000000 40.390402 35.946807 -41.366215
62 4 4 0.000000 35.207402 32.480807 -40.339215
63 5 3 0.000000 -62.380620 38.313770 10.909264
64 5 3 0.000000 -58.541620 36.069770 8.827264
65 5 3 0.000000 -52.600620 35.238770 8.362264
66 5 2 0.000000 -46.693620 34.072770 9.538264
67 5 4 0.000000 -42.910620 30.124770 10.895264
68 5 3 0.000000 -42.445620 24.866770 12.457264
69 5 4 0.000000 -39.583620 20.978770 14.068264
70 5 4 0.000000 -39.642620 15.154770 17.421264
71 5 4 0.000000 -43.021620 10.659770 20.733264
72 5 4 0.000000 -48.204620 7.193770 21.760264
73 6 3 0.000000 -49.580123 20.498025 59.352321
74 6 3 0.000000 -45.741123 18.254025 57.270321
75 6 3 0.000000 -39.800123 17.423025 56.805321
76 6 2 0.000000 -33.893123 16.257025 57.981321
77 6 4 0.000000 -30.110123 12.309025 59.338321
78 6 3 0.000000 -29.645123 7.051025 60.900321
79 6 4 0.000000 -26.783123 3.163025 62.511321
80 6 4 0.000000 -26.842123 -2.660975 65.864321
81 6 4 0.000000 -30.221123 -7.155975 69.176321
82 6 4 0.000000 -35.404123 -10.621975 70.203321
83 7 3 0.000000 10.461577 -40.916356 51.282383
84 7 3 0.000000 14.300577 -43.160356 49.200383
85 7 3 0.000000 20.241577 -43.991356 48.735383
86 7 2 0.000000 26.148577 -45.157356 49.911383
87 7 4 0.000000 29.931577 -49.105356 51.268383
88 7 3 0.000000 30.396577 -54.363356 52.830383
89 7 4 0.000000 33.258577 -58.251356 54.441383
90 7 4 0.000000 33.199577 -64.075356 57.794383
91 7 4 0.000000 29.820577 -68.570356 61.106383
92 7 4 0.000000 24.637577 -72.036356 62.133383
93 8 3 0.000000 20.344792 50.650223 -24.963434
94 8 3 0.000000 24.183792 48.406223 -27.045434
95 8 3 0.000000 30.124792 47.575223 -27.510434
96 8 2 0.000000 36.031792 46.409223 -26.334434
97 8 4 0.000000 39.814792 42.461223 -24.977434
98 8 3 0.000000 40.279792 37.203223 -23.415434
99 8 4 0.000000 43.141792 33.315223 -21.804434
100 8 4 0.000000 43.082792 27.491223 -18.451434
101 8 4 0.000000 39.703792 22.996223 -15.139434
102 8 4 0.000000 34.520792 19.530223 -14.112434
103 9 3 0.000000 -43.688082 -34.811514 -72.133656
104 9 3 0.000000 -39.849082 -37.055514 -74.215656
105 9 3 0.000000 -33.908082 -37.886514 -74.680656
106 9 2 0.000000 -28.001082 -39.052514 -73.504656
107 9 4 0.000000 -24.218082 -43.000514 -72.147656
108 9 3 0.000000 -23.753082 -48.258514 -70.585656
109 9 4 0.000000 -20.891082 -52.146514 -68.974656
110 9 4 0.000000 -20.950082 -57.970514 -65.621656
111 9 4 0.000000 -24.329082 -62.465514 -62.309656
112 9 4 0.000000 -29.512082 -65.931514 -61.282656
113 10 3 0.000000 16.314789 43.801694 63.476334
114 10 3 0.000000 20.153789 41.557694 61.394334
115 10 3 0.000000 26.094789 40.726694 60.929334
116 10 2 0.000000 32.001789 39.560694 62.105334
117 10 4 0.000000 35.784789 35.612694 63.462334
118 10 3 0.000000 36.249789 30.354694 65.024334
119 10 4 0.000000 39.111789 26.466694 66.635334
120 10 4 0.000000 39.052789 20.642694 69.988334
121 10 4 0.000000 35.673789 16.147694 73.300334
122 10 4 0.000000 30.490789 12.681694 74.327334
123 11 3 0.000000 21.896608 14.121834 -57.690485
124 11 3 0.000000 25.735608 11.877834 -59.772485
125 11 3 0.000000 31.676608 11.046834 -60.237485
126 11 2 0.000000 37.583608 9.880834 -59.061485
127 11 4 0.000000 41.366608 5.932834 -57.704485
128 11 3 0.000000 41.831608 0.674834 -56.142485
129 11 4 0.000000 44.693608 -3.213166 -54.531485
130 11 4 0.000000 44.634608 -9.037166 -51.178485
131 11 4 0.000000 41.255608 -13.532166 -47.866485
132 11 4 0.000000 36.072608 -16.998166 -46.839485
133 12 3 0.000000 2.763927 60.880109 -1.515197
134 12 3 0.000000 6.602927 58.636109 -3.597197
135 12 3 0.000000 12.543927 57.805109 -4.062197
136 12 2 0.000000 18.450927 56.639109 -2.886197
137 12 4 0.000000 22.233927 52.691109 -1.529197
138 12 3 0.000000 22.698927 47.433109 0.032803
139 12 4 0.000000 25.560927 43.545109 1.643803
140 12 4 0.000000 25.501927 37.721109 4.996803
141 12 4 0.000000 22.122927 33.226109 8.308803
142 12 4 0.000000 16.939927 29.760109 9.335803
143 13 3 0.000000 -56.930546 -4.605661 -49.971135
144 13 3 0.000000 -53.091546 -6.849661 -52.053135
145 13 3 0.000000 -47.150546 -7.680661 -52.518135
146 13 2 0.000000 -41.243546 -8.846661 -51.342135
147 13 4 0.000000 -37.460546 -12.794661 -49.985135
148 13 3 0.000000 -36.995546 -18.052661 -48.423135
149 13 4 0.000000 -34.133546 -21.940661 -46.812135
150 13 4 0.000000 -34.192546 -27.764661 -43.459135
151 13 4 0.000000 -37.571546 -32.259661 -40.147135
152 13 4 0.000000 -42.754546 -35.725661 -39.120135
153 14 3 0.000000 48.711865 72.187171 56.001089
154 14 3 0.000000 52.550865 69.943171 53.919089
155 14 3 0.000000 58.491865 69.112171 53.454089
156 14 2 0.000000 64.398865 67.946171 54.630089
157 14 4 0.000000 68.181865 63.998171 55.987089
158 14 3 0.000000 68.646865 58.740171 57.549089
159 14 4 0.000000 71.508865 54.852171 59.160089
160 14 4 0.000000 71.449865 49.028171 62.513089
161 14 4 0.000000 68.070865 44.533171 65.825089
162 14 4 0.000000 62.887865 41.067171 66.852089
163 15 3 0.000000 -0.925858 11.451199 -56.926518
164 15 3 0.000000 2.913142 9.207199 -59.008518
165 15 3 0.000000 8.854142 8.376199 -59.473518
166 15 2 0.000000 14.761142 7.210199 -58.297518
167 15 4 0.000000 18.544142 3.262199 -56.940518
168 15 3 0.000000 19.009142 -1.995801 -55.378518
169 15 4 0.000000 21.871142 -5.883801 -53.767518
170 15 4 0.000000 21.812142 -11.707801 -50.414518
171 15 4 0.000000 18.433142 -16.202801 -47.102518
172 15 4 0.000000 13.250142 -19.668801 -46.075518
173 16 3 0.000000 -33.960793 80.991393 40.360473
174 16 3 0.000000 -30.121793 78.747393 38.278473
175 16 3 0.000000 -24.180793 77.916393 37.813473
176 16 2 0.000000 -18.273793 76.750393 38.989473
177 16 4 0.000000 -14.490793 72.802393 40.346473
178 16 3 0.000000 -14.025793 67.544393 41.908473
179 16 4 0.000000 -11.163793 63.656393 43.519473
180 16 4 0.000000 -11.222793 57.832393 46.872473
181 16 4 0.000000 -14.601793 53.337393 50.184473
182 16 4 0.000000 -19.784793 49.871393 51.211473
183 17 3 0.000000 -51.254777 -23.231577 6.841972
184 17 3 0.000000 -47.415777 -25.475577 4.759972
185 17 3 0.000000 -41.474777 -26.306577 4.294972
186 17 2 0.000000 -35.567777 -27.472577 5.470972
187 17 4 0.000000 -31.784777 -31.420577 6.827972
188 17 3 0.000000 -31.319777 -36.678577 8.389972
189 17 4 0.000000 -28.457777 -40.566577 10.000972
190 17 4 0.000000 -28.516777 -46.390577 13.353972
191 17 4 0.000000 -31.895777 -50.885577 16.665972
192 17 4 0.000000 -37.078777 -54.351577 17.692972
193 18 3 0.000000 -73.752113 45.513463 41.655255
194 18 3 0.000000 -69.913113 43.269463 39.573255
195 18 3 0.000000 -63.972113 42.438463 39.108255
196 18 2 0.000000 -58.065113 41.272463 40.284255
197 18 4 0.000000 -54.282113 37.324463 41.641255
198 18 3 0.000000 -53.817113 32.066463 43.203255
199 18 4 0.000000 -50.955113 28.178463 44.814255
200 18 4 0.000000 -51.014113 22.354463 48.167255
201 18 4 0.000000 -54.393113 17.859463 51.479255
202 18 4 0.000000 -59.576113 14.393463 52.506255
203 19 3 0.000000 52.139729 17.625264 -54.981528
204 19 3 0.000000 55.978729 15.381264 -57.063528
205 19 3 0.000000 61.919729 14.550264 -57.528528
206 19 2 0.000000 67.826729 13.384264 -56.352528
207 19 4 0.000000 71.609729 9.436264 -54.995528
208 19 3 0.000000 72.074729 4.178264 -53.433528
209 19 4 0.000000 74.936729 0.290264 -51.822528
210 19 4 0.000000 74.877729 -5.533736 -48.469528
211 19 4 0.000000 71.498729 -10.028736 -45.157528
212 19 4 0.000000 66.315729 -13.494736 -44.130528
213 20 3 0.000000 7.587015 75.605215 -49.470226
214 20 3 0.000000 11.426015 73.361215 -51.552226
215 20 3 0.000000 17.367015 72.530215 -52.017226
216 20 2 0.000000 23.274015 71.364215 -50.841226
217 20 4 0.000000 27.057015 67.416215 -49.484226
218 20 3 0.000000 27.522015 62.158215 -47.922226
219 20 4 0.000000 30.384015 58.270215 -46.311226
220 20 4 0.000000 30.325015 52.446215 -42.958226
221 20 4 0.000000 26.946015 47.951215 -39.646226
222 20 4 0.000000 21.763015 44.485215 -38.619226
223 21 3 0.000000 -10.903770 27.969548 62.422807
224 21 3 0.000000 -7.064770 25.725548 60.340807
225 21 3 0.000000 -1.123770 24.894548 59.875807
226 21 2 0.000000 4.783230 23.728548 61.051807
227 21 4 0.000000 8.566230 19.780548 62.408807
228 21 3 0.000000 9.031230 14.522548 63.970807
229 21 4 0.000000 11.893230 10.634548 65.581807
230 21 4 0.000000 11.834230 4.810548 68.934807
231 21 4 0.000000 8.455230 0.315548 72.246807
232 21 4 0.000000 3.272230 -3.150452 73.273807
233 22 3 0.000000 45.269789 48.783528 23.993468
234 22 3 0.000000 49.108789 46.539528 21.911468
235 22 3 0.000000 55.049789 45.708528 21.446468
236 22 2 0.000000 60.956789 44.542528 22.622468
237 22 4 0.000000 64.739789 40.594528 23.979468
238 22 3 0.000000 65.204789 35.336528 25.541468
239 22 4 0.000000 68.066789 31.448528 27.152468
240 22 4 0.000000 68.007789 25.624528 30.505468
241 22 4 0.000000 64.628789 21.129528 33.817468
242 22 4 0.000000 59.445789 17.663528 34.844468
243 23 3 0.000000 15.034756 -1.094678 21.448174
244 23 3 0.000000 18.873756 -3.338678 19.366174
245 23 3 0.000000 24.814756 -4.169678 18.901174
246 23 2 0.000000 30.721756 -5.335678 20.077174
247 23 4 0.000000 34.504756 -9.283678 21.434174
248 23 3 0.000000 34.969756 -14.541678 22.996174
249 23 4 0.000000 37.831756 -18.429678 24.607174
250 23 4 0.000000 37.772756 -24.253678 27.960174
251 23 4 0.000000 34.393756 -28.748678 31.272174
252 23 4 0.000000 29.210756 -32.214678 32.299174
253 24 3 0.000000 -32.499230 68.992372 -9.379940
254 24 3 0.000000 -28.660230 66.748372 -11.461940
255 24 3 0.000000 -22.719230 65.917372 -11.926940
256 24 2 0.000000 -16.812230 64.751372 -10.750940
257 24 4 0.000000 -13.029230 60.803372 -9.393940
258 24 3 0.000000 -12.564230 55.545372 -7.831940
259 24 4 0.000000 -9.702230 51.657372 -6.220940
260 24 4 0.000000 -9.761230 45.833372 -2.867940
261 24 4 0.000000 -13.140230 41.338372 0.444060
262 24 4 0.000000 -18.323230 37.872372 1.471060
263 25 3 0.000000 -7.229087 25.428016 -71.581283
264 25 3 0.000000 -3.390087 23.184016 -73.663283
265 25 3 0.000000 2.550913 22.353016 -74.128283
266 25 2 0.000000 8.457913 21.187016 -72.952283
267 25 4 0.000000 12.240913 17.239016 -71.595283
268 25 3 0.000000 12.705913 11.981016 -70.033283
269 25 4 0.000000 15.567913 8.093016 -68.422283
270 25 4 0.000000 15.508913 2.269016 -65.069283
271 25 4 0.000000 12.129913 -2.225984 -61.757283
272 25 4 0.000000 6.946913 -5.691984 -60.730283
273 26 3 0.000000 14.319633 -48.711273 -63.151954
274 26 3 0.000000 18.158633 -50.955273 -65.233954
275 26 3 0.000000 24.099633 -51.786273 -65.698954
276 26 2 0.000000 30.006633 -52.952273 -64.522954
277 26 4 0.000000 33.789633 -56.900273 -63.165954
278 26 3 0.000000 34.254633 -62.158273 -61.603954
279 26 4 0.000000 37.116633 -66.046273 -59.992954
280 26 4 0.000000 37.057633 -71.870273 -56.639954
281 26 4 0.000000 33.678633 -76.365273 -53.327954
282 26 4 0.000000 28.495633 -79.831273 -52.300954
283 27 3 0.000000 -80.380286 -10.693612 -0.606143
284 27 3 0.000000 -76.541286 -12.937612 -2.688143
285 27 3 0.000000 -70.600286 -13.768612 -3.153143
286 27 2 0.000000 -64.693286 -14.934612 -1.977143
287 27 4 0.000000 -60.910286 -18.882612 -0.620143
288 27 3 0.000000 -60.445286 -24.140612 0.941857
289 27 4 0.000000 -57.583286 -28.028612 2.552857
290 27 4 0.000000 -57.642286 -33.852612 5.905857
291 27 4 0.000000 -61.021286 -38.347612 9.217857
292 27 4 0.000000 -66.204286 -41.813612 10.244857
293 28 3 0.000000 16.491259 66.580031 8.081631
294 28 3 0.000000 20.330259 64.336031 5.999631
295 28 3 0.000000 26.271259 63.505031 5.534631
296 28 2 0.000000 32.178259 62.339031 6.710631
297 28 4 0.000000 35.961259 58.391031 8.067631
298 28 3 0.000000 36.426259 53.133031 9.629631
299 28 4 0.000000 39.288259 49.245031 11.240631
300 28 4 0.000000 39.229259 43.421031 14.593631
301 28 4 0.000000 35.850259 38.926031 17.905631
302 28 4 0.000000 30.667259 35.460031 18.932631
303 29 3 0.000000 -71.572488 35.303985 -22.986341
304 29 3 0.000000 -67.733488 33.059985 -25.068341
305 29 3 0.000000 -61.792488 32.228985 -25.533341
306 29 2 0.000000 -55.885488 31.062985 -24.357341
307 29 4 0.000000 -52.102488 27.114985 -23.000341
308 29 3 0.000000 -51.637488 21.856985 -21.438341
309 29 4 0.000000 -48.775488 17.968985 -19.827341
310 29 4 0.000000 -48.834488 12.144985 -16.474341
311 29 4 0.000000 -52.213488 7.649985 -13.162341
312 29 4 0.000000 -57.396488 4.183985 -12.135341
313 30 3 0.000000 -27.223781 63.983545 -65.004034
314 30 3 0.000000 -23.384781 61.739545 -67.086034
315 30 3 0.000000 -17.443781 60.908545 -67.551034
316 30 2 0.000000 -11.536781 59.742545 -66.375034
317 30 4 0.000000 -7.753781 55.794545 -65.018034
318 30 3 0.000000 -7.288781 50.536545 -63.456034
319 30 4 0.000000 -4.426781 46.648545 -61.845034
320 30 4 0.000000 -4.485781 40.824545 -58.492034
321 30 4 0.000000 -7.864781 36.329545 -55.180034
322 30 4 0.000000 -13.047781 32.863545 -54.153034
323 31 3 0.000000 6.705668 33.511565 -64.102226
324 31 3 0.000000 10.544668 31.267565 -66.184226
325 31 3 0.000000 16.485668 30.436565 -66.649226
326 31 2 0.000000 22.392668 29.270565 -65.473226
327 31 4 0.000000 26.175668 25.322565 -64.116226
328 31 3 0.000000 26.640668 20.064565 -62.554226
329 31 4 0.000000 29.502668 16.176565 -60.943226
330 31 4 0.000000 29.443668 10.352565 -57.590226
331 31 4 0.000000 26.064668 5.857565 -54.278226
332 31 4 0.000000 20.881668 2.391565 -53.251226
333 32 3 0.000000 -57.955490 18.126406 -52.962478
334 32 3 0.000000 -54.116490 15.882406 -55.044478
335 32 3 0.000000 -48.175490 15.051406 -55.509478
336 32 2 0.000000 -42.268490 13.885406 -54.333478
337 32 4 0.000000 -38.485490 9.937406 -52.976478
338 32 3 0.000000 -38.020490 4.679406 -51.414478
339 32 4 0.000000 -35.158490 0.791406 -49.803478
340 32 4 0.000000 -35.217490 -5.032594 -46.450478
341 32 4 0.000000 -38.596490 -9.527594 -43.138478
342 32 4 0.000000 -43.779490 -12.993594 -42.111478
343 33 3 0.000000 -59.089775 7.814330 49.840034
344 33 3 0.000000 -55.250775 5.570330 47.758034
345 33 3 0.000000 -49.309775 4.739330 47.293034
346 33 2 0.000000 -43.402775 3.573330 48.469034
347 33 4 0.000000 -39.619775 -0.374670 49.826034
348 33 3 0.000000 -39.154775 -5.632670 51.388034
349 33 4 0.000000 -36.292775 -9.520670 52.999034
350 33 4 0.000000 -36.351775 -15.344670 56.352034
351 33 4 0.000000 -39.730775 -19.839670 59.664034
352 33 4 0.000000 -44.913775 -23.305670 60.691034
353 34 3 0.000000 -82.712000 -43.896811 32.911171
354 34 3 0.000000 -78.873000 -46.140811 30.829171
355 34 3 0.000000 -72.932000 -46.971811 30.364171
356 34 2 0.000000 -67.025000 -48.137811 31.540171
357 34 4 0.000000 -63.242000 -52.085811 32.897171
358 34 3 0.000000 -62.777000 -57.343811 34.459171
359 34 4 0.000000 -59.915000 -61.231811 36.070171
360 34 4 0.000000 -59.974000 -67.055811 39.423171
361 34 4 0.000000 -63.353000 -71.550811 42.735171
362 34 4 0.000000 -68.536000 -75.016811 43.762171
363 35 3 0.000000 36.272955 69.388401 -49.538803
364 35 3 0.000000 40.111955 67.144401 -51.620803
365 35 3 0.000000 46.052955 66.313401 -52.085803
366 35 2 0.000000 51.959955 65.147401 -50.909803
367 35 4 0.000000 55.742955 61.199401 -49.552803
368 35 3 0.000000 56.207955 55.941401 -47.990803
369 35 4 0.000000 59.069955 52.053401 -46.379803
370 35 4 0.000000 59.010955 46.229401 -43.026803
371 35 4 0.000000 55.631955 41.734401 -39.714803
372 35 4 0.000000 50.448955 38.268401 -38.687803
373 36 3 0.000000 -84.476347 -2.294554 57.124530
374 36 3 0.000000 -80.637347 -4.538554 55.042530
375 36 3 0.000000 -74.696347 -5.369554 54.577530
376 36 2 0.000000 -68.789347 -6.535554 55.753530
377 36 4 0.000000 -65.006347 -10.483554 57.110530
378 36 3 0.000000 -64.541347 -15.741554 58.672530
379 36 4 0.000000 -61.679347 -19.629554 60.283530
380 36 4 0.000000 -61.738347 -25.453554 63.636530
381 36 4 0.000000 -65.117347 -29.948554 66.948530
382 36 4 0.000000 -70.300347 -33.414554 67.975530
383 37 3 0.000000 25.140010 -17.018708 24.934811
384 37 3 0.000000 28.979010 -19.262708 22.852811
385 37 3 0.000000 34.920010 -20.093708 22.387811
386 37 2 0.000000 40.827010 -21.259708 23.563811
387 37 4 0.000000 44.610010 -25.207708 24.920811
388 37 3 0.000000 45.075010 -30.465708 26.482811
389 37 4 0.000000 47.937010 -34.353708 28.093811
390 37 4 0.000000 47.878010 -40.177708 31.446811
391 37 4 0.000000 44.499010 -44.672708 34.758811
392 37 4 0.000000 39.316010 -48.138708 35.785811
393 38 3 0.000000 17.492644 52.717014 20.073984
394 38 3 0.000000 21.331644 50.473014 17.991984
395 38 3 0.000000 27.272644 49.642014 17.526984
396 38 2 0.000000 33.179644 48.476014 18.702984
397 38 4 0.000000 36.962644 44.528014 20.059984
398 38 3 0.000000 37.427644 39.270014 21.621984
399 38 4 0.000000 40.289644 35.382014 23.232984
400 38 4 0.000000 40.230644 29.558014 26.585984
401 38 4 0.000000 36.851644 25.063014 29.897984
402 38 4 0.000000 31.668644 21.597014 30.924984
403 39 3 0.000000 -16.644102 -30.367899 -42.109874
404 39 3 0.000000 -12.805102 -32.611899 -44.191874
405 39 3 0.000000 -6.864102 -33.442899 -44.656874
406 39 2 0.000000 -0.957102 -34.608899 -43.480874
407 39 4 0.000000 2.825898 -38.556899 -42.123874
408 39 3 0.000000 3.290898 -43.814899 -40.561874
409 39 4 0.000000 6.152898 -47.702899 -38.950874
410 39 4 0.000000 6.093898 -53.526899 -35.597874
411 39 4 0.000000 2.714898 -58.021899 -32.285874
412 39 4 0.000000 -2.468102 -61.487899 -31.258874
413 40 3 0.000000 -76.590439 46.049605 -64.053940
414 40 3 0.000000 -72.751439 43.805605 -66.135940
415 40 3 0.000000 -66.810439 42.974605 -66.600940
416 40 2 0.000000 -60.903439 41.808605 -65.424940
417 40 4 0.000000 -57.120439 37.860605 -64.067940
418 40 3 0.000000 -56.655439 32.602605 -62.505940
419 40 4 0.000000 -53.793439 28.714605 -60.894940
420 40 4 0.000000 -53.852439 22.890605 -57.541940
421 40 4 0.000000 -57.231439 18.395605 -54.229940
422 40 4 0.000000 -62.414439 14.929605 -53.202940
423 41 3 0.000000 -40.873427 -49.933673 -5.837608
424 41 3 0.000000 -37.034427 -52.177673 -7.919608
425 41 3 0.000000 -31.093427 -53.008673 -8.384608
426 41 2 0.000000 -25.186427 -54.174673 -7.208608
427 41 4 0.000000 -21.403427 -58.122673 -5.851608
428 41 3 0.000000 -20.938427 -63.380673 -4.289608
429 41 4 0.000000 -18.076427 -67.268673 -2.678608
430 41 4 0.000000 -18.135427 -73.092673 0.674392
431 41 4 0.000000 -21.514427 -77.587673 3.986392
432 41 4 0.000000 -26.697427 -81.053673 5.013392
433 42 3 0.000000 -75.263579 63.701088 -16.059423
434 42 3 0.000000 -71.424579 61.457088 -18.141423
435 42 3 0.000000 -65.483579 60.626088 -18.606423
436 42 2 0.000000 -59.576579 59.460088 -17.430423
437 42 4 0.000000 -55.793579 55.512088 -16.073423
438 42 3 0.000000 -55.328579 50.254088 -14.511423
439 42 4 0.000000 -52.466579 46.366088 -12.900423
440 42 4 0.000000 -52.525579 40.542088 -9.547423
441 42 4 0.000000 -55.904579 36.047088 -6.235423
442 42 4 0.000000 -61.087579 32.581088 -5.208423
443 43 3 0.000000 47.045358 22.800957 8.460668
444 43 3 0.000000 50.884358 20.556957 6.378668
445 43 3 0.000000 56.825358 19.725957 5.913668
446 43 2 0.000000 62.732358 18.559957 7.089668
447 43 4 0.000000 66.515358 14.611957 8.446668
448 43 3 0.000000 66.980358 9.353957 10.008668
449 43 4 0.000000 69.842358 5.465957 11.619668
450 43 4 0.000000 69.783358 -0.358043 14.972668
451 43 4 0.000000 66.404358 -4.853043 18.284668
452 43 4 0.000000 61.221358 -8.319043 19.311668
453 44 3 0.000000 -5.646331 -12.661822 -36.080803
454 44 3 0.000000 -1.807331 -14.905822 -38.162803
455 44 3 0.000000 4.133669 -15.736822 -38.627803
456 44 2 0.000000 10.040669 -16.902822 -37.451803
457 44 4 0.000000 13.823669 -20.850822 -36.094803
458 44 3 0.000000 14.288669 -26.108822 -34.532803
459 44 4 0.000000 17.150669 -29.996822 -32.921803
460 44 4 0.000000 17.091669 -35.820822 -29.568803
461 44 4 0.000000 13.712669 -40.315822 -26.256803
462 44 4 0.000000 8.529669 -43.781822 -25.229803
463 45 3 0.000000 -66.455141 33.416510 -8.576560
464 45 3 0.000000 -62.616141 31.172510 -10.658560
465 45 3 0.000000 -56.675141 30.341510 -11.123560
466 45 2 0.000000 -50.768141 29.175510 -9.947560
467 45 4 0.000000 -46.985141 25.227510 -8.590560
468 45 3 0.000000 -46.520141 19.969510 -7.028560
469 45 4 0.000000 -43.658141 16.081510 -5.417560
470 45 4 0.000000 -43.717141 10.257510 -2.064560
471 45 4 0.000000 -47.096141 5.762510 1.247440
472 45 4 0.000000 -52.279141 2.296510 2.274440
473 46 3 0.000000 45.284466 74.049200 -71.283836
474 46 3 0.000000 49.123466 71.805200 -73.365836
475 46 3 0.000000 55.064466 70.974200 -73.830836
476 46 2 0.000000 60.971466 69.808200 -72.654836
477 46 4 0.000000 64.754466 65.860200 -71.297836
478 46 3 0.000000 65.219466 60.602200 -69.735836
479 46 4 0.000000 68.081466 56.714200 -68.124836
480 46 4 0.000000 68.022466 50.890200 -64.771836
481 46 4 0.000000 64.643466 46.395200 -61.459836
482 46 4 0.000000 59.460466 42.929200 -60.432836
483 47 3 0.000000 -35.916863 -47.322816 -38.388182
484 47 3 0.000000 -32.077863 -49.566816 -40.470182
485 47 3 0.000000 -26.136863 -50.397816 -40.935182
486 47 2 0.000000 -20.229863 -51.563816 -39.759182
487 47 4 0.000000 -16.446863 -55.511816 -38.402182
488 47 3 0.000000 -15.981863 -60.769816 -36.840182
489 47 4 0.000000 -13.119863 -64.657816 -35.229182
490 47 4 0.000000 -13.178863 -70.481816 -31.876182
491 47 4 0.000000 -16.557863 -74.976816 -28.564182
492 47 4 0.000000 -21.740863 -78.442816 -27.537182
493 48 3 0.000000 45.667746 -42.451490 50.349775
494 48 3 0.000000 49.506746 -44.695490 48.267775
495 48 3 0.000000 55.447746 -45.526490 47.802775
496 48 2 0.000000 61.354746 -46.692490 48.978775
497 48 4 0.000000 65.137746 -50.640490 50.335775
498 48 3 0.000000 65.602746 -55.898490 51.897775
499 48 4 0.000000 68.464746 -59.786490 53.508775
500 48 4 0.000000 68.405746 -65.610490 56.861775
501 48 4 0.000000 65.026746 -70.105490 60.173775
502 48 4 0.000000 59.843746 -73.571490 61.200775
503 49 3 0.000000 -47.752871 67.606179 31.350336
504 49 3 0.000000 -43.913871 65.362179 29.268336
505 49 3 0.000000 -37.972871 64.531179 28.803336
506 49 2 0.000000 -32.065871 63.365179 29.979336
507 49 4 0.000000 -28.282871 59.417179 31.336336
508 49 3 0.000000 -27.817871 54.159179 32.898336
509 49 4 0.000000 -24.955871 50.271179 34.509336
510 49 4 0.000000 -25.014871 44.447179 37.862336
511 49 4 0.000000 -28.393871 39.952179 41.174336
512 49 4 0.000000 -33.576871 36.486179 42.201336
513 50 3 0.000000 -63.015393 -17.507722 -43.099848
514 50 3 0.000000 -59.176393 -19.751722 -45.181848
515 50 3 0.000000 -53.235393 -20.582722 -45.646848
516 50 2 0.000000 -47.328393 -21.748722 -44.470848
517 50 4 0.000000 -43.545393 -25.696722 -43.113848
518 50 3 0.000000 -43.080393 -30.954722 -41.551848
519 50 4 0.000000 -40.218393 -34.842722 -39.940848
520 50 4 0.000000 -40.277393 -40.666722 -36.587848
521 50 4 0.000000 -43.656393 -45.161722 -33.275848
522 50 4 0.000000 -48.839393 -48.627722 -32.248848
523 51 3 0.000000 -36.774860 39.295998 46.819794
524 51 3 0.000000 -32.935860 37.051998 44.737794
525 51 3 0.000000 -26.994860 36.220998 44.272794
526 51 2 0.000000 -21.087860 35.054998 45.448794
527 51 4 0.000000 -17.304860 31.106998 46.805794
528 51 3 0.000000 -16.839860 25.848998 48.367794
529 51 4 0.000000 -13.977860 21.960998 49.978794
530 51 4 0.000000 -14.036860 16.136998 53.331794
531 51 4 0.000000 -17.415860 11.641998 56.643794
532 51 4 0.000000 -22.598860 8.175998 57.670794

Bonds

1 1 1 2
2 1 2 3
3 1 3 4
4 1 4 5
5 1 5 6
6 1 6 7
7 1 7 8
8 1 8 9
9 1 9 10
10 1 11 12
11 1 12 13
12 1 13 14
13 1 14 15
14 1 15 16
15 1 16 17
16 1 17 18
17 1 18 19
18 1 19 20
19 1 20 21
20 1 21 22
21 1 22 23
22 1 23 24
23 1 24 25
24 1 25 26
25 1 26 27
26 1 27 28
27 1 28 29
28 1 29 30
29 1 30 31
30 1 31 32
31 1 32 33
32 1 33 34
33 1 34 35
34 1 35 36
35 1 36 37
36 1 37 38
37 1 38 39
38 1 39 40
39 1 40 41
40 1 41 42
41 1 43 44
42 1 44 45
43 1 45 46
44 1 46 47
45 1 47 48
46 1 48 49
47 1 49 50
48 1 50 51
49 1 51 52
50 1 53 54
51 1 54 55
52 1 55 56
53 1 56 57
54 1 57 58
55 1 58 59
56 1 59 60
57 1 60 61
58 1 61 62
59 1 63 64
60 1 64 65
61 1 65 66
62 1 66 67
63 1 67 68
64 1 68 69
65 1 69 70
66 1 70 71
67 1 71 72
68 1 73 74
69 1 74 75
70 1 75 76
71 1 76 77
72 1 77 78
73 1 78 79
74 1 79 80
75 1 80 81
76 1 81 82
77 1 83 84
78 1 84 85
79 1 85 86
80 1 86 87
81 1 87 88
82 1 88 89
83 1 89 90
84 1 90 91
85 1 91 92
86 1 93 94
87 1 94 95
88 1 95 96
89 1 96 97
90 1 97 98
91 1 98 99
92 1 99 100
93 1 100 101
94 1 101 102
95 1 103 104
96 1 104 105
97 1 105 106
98 1 106 107
99 1 107 108
100 1 108 109
101 1 109 110
102 1 110 111
103 1 111 112
104 1 113 114
105 1 114 115
106 1 115 116
107 1 116 117
108 1 117 118
109 1 118 119
110 1 119 120
111 1 120 121
112 1 121 122
113 1 123 124
114 1 124 125
115 1 125 126
116 1 126 127
117 1 127 128
118 1 128 129
119 1 129 130
120 1 130 131
121 1 131 132
122 1 133 134
123 1 134 135
124 1 135 136
125 1 136 137
126 1 137 138
127 1 138 139
128 1 139 140
129 1 140 141
130 1 141 142
131 1 143 144
132 1 144 145
133 1 145 146
134 1 146 147
135 1 147 148
136 1 148 149
137 1 149 150
138 1 150 151
139 1 151 152
140 1 153 154
141 1 154 155
142 1 155 156
143 1 156 157
144 1 157 158
145 1 158 159
146 1 159 160
147 1 160 161
148 1 161 162
149 1 163 164
150 1 164 165
151 1 165 166
152 1 166 167
153 1 167 168
154 1 168 169
155 1 169 170
156 1 170 171
157 1 171 172
158 1 173 174
159 1 174 175
160 1 175 176
161 1 176 177
162 1 177 178
163 1 178 179
164 1 179 180
165 1 180 181
166 1 181 182
167 1 183 184
168 1 184 185
169 1 185 186
170 1 186 187
171 1 187 188
172 1 188 189
173 1 189 190
174 1 190 191
175 1 191 192
176 1 193 194
177 1 194 195
178 1 195 196
179 1 196 197
180 1 197 198
181 1 198 199
182 1 199 200
183 1 200 201
184 1 201 202
185 1 203 204
186 1 204 205
187 1 205 206
188 1 206 207
189 1 207 208
190 1 208 209
191 1 209 210
192 1 210 211
193 1 211 212
194 1 213 214
195 1 214 215
196 1 215 216
197 1 216 217
198 1 217 218
199 1 218 219
200 1 219 220
201 1 220 221
202 1 221 222
203 1 223 224
204 1 224 225
205 1 225 226
206 1 226 227
207 1 227 228
208 1 228 229
209 1 229 230
210 1 230 231
211 1 231 232
212 1 233 234
213 1 234 235
214 1 235 236
215 1 236 237
216 1 237 238
217 1 238 239
218 1 239 240
219 1 240 241
220 1 241 242
221 1 243 244
222 1 244 245
223 1 245 246
224 1 246 247
225 1 247 248
226 1 248 249
227 1 249 250
228 1 250 251
229 1 251 252
230 1 253 254
231 1 254 255
232 1 255 256
233 1 256 257
234 1 257 258
235 1 258 259
236 1 259 260
237 1 260 261
238 1 261 262
239 1 263 264
240 1 264 265
241 1 265 266
242 1 266 267
243 1 267 268
244 1 268 269
245 1 269 270
246 1 270 271
247 1 271 272
248 1 273 274
249 1 274 275
250 1 275 276
251 1 276 277
252 1 277 278
253 1 278 279
254 1 279 280
255 1 280 281
256 1 281 282
257 1 283 284
258 1 284 285
259 1 285 286
260 1 286 287
261 1 287 288
262 1 288 289
263 1 289 290
264 1 290 291
265 1 291 292
266 1 293 294
267 1 294 295
268 1 295 296
269 1 296 297
270 1 297 298
271 1 298 299
272 1 299 300
273 1 300 301
274 1 301 302
275 1 303 304
276 1 304 305
277 1 305 306
278 1 306 307
279 1 307 308
280 1 308 309
281 1 309 310
282 1 310 311
283 1 311 312
284 1 313 314
285 1 314 315
286 1 315 316
287 1 316 317
288 1 317 318
289 1 318 319
290 1 319 320
291 1 320 321
292 1 321 322
293 1 323 324
294 1 324 325
295 1 325 326
296 1 326 327
297 1 327 328