LAMMPS (29 Aug 2024)
--------------------------------------------------------------------------
MPI_ABORT was invoked on rank 0 in communicator MPI_COMM_WORLD
with errorcode 1.

NOTE: invoking MPI_ABORT causes Open MPI to kill all MPI processes.
You may or may not see output from other processes, depending on
exactly when Open MPI kills them.
--------------------------------------------------------------------------
srun: Job step aborted: Waiting up to 47 seconds for job step to finish.
[2025-11-13T15:36:56.337] error: *** STEP 2295232.0 ON della-r3c4n13 CANCELLED AT 2025-11-13T15:36:56 DUE to SIGNAL Killed ***
srun: error: della-r3c4n13: task 0: Exited with exit code 1
srun: Terminating StepId=2295232.0
