LAMMPS (29 Aug 2024)
  using 1 OpenMP thread(s) per MPI task
  using 1 OpenMP thread(s) per MPI task
Reading data file ...
  orthogonal box = (-500.6 -500.6 -500.6) to (500.6 500.6 500.6)
  1 by 1 by 1 MPI processor grid
  reading atoms ...
  132 atoms
  scanning bonds ...
  1 = max bonds/atom
  scanning angles ...
  1 = max angles/atom
  orthogonal box = (-500.6 -500.6 -500.6) to (500.6 500.6 500.6)
  1 by 1 by 1 MPI processor grid
  reading bonds ...
  131 bonds
  reading angles ...
  130 angles
Finding 1-2 1-3 1-4 neighbors ...
  special bond factors lj:    0        0        0       
  special bond factors coul:  0        0        0       
     2 = max # of 1-2 neighbors
     2 = max # of 1-3 neighbors
     4 = max # of 1-4 neighbors
     6 = max # of special neighbors
  special bonds CPU = 0.000 seconds
  read_data CPU = 0.009 seconds
Finding 1-2 1-3 1-4 neighbors ...
  special bond factors lj:    0        0        1       
  special bond factors coul:  0        0        0       
     2 = max # of 1-2 neighbors
     2 = max # of 1-3 neighbors
     4 = max # of 1-4 neighbors
     6 = max # of special neighbors
  special bonds CPU = 0.000 seconds

CITE-CITE-CITE-CITE-CITE-CITE-CITE-CITE-CITE-CITE-CITE-CITE-CITE

Your simulation uses code contributions which should be cited:
- Type Label Framework: https://doi.org/10.1021/acs.jpcb.3c08419
The log file lists these citations in BibTeX format.

CITE-CITE-CITE-CITE-CITE-CITE-CITE-CITE-CITE-CITE-CITE-CITE-CITE

Generated 0 of 6 mixed pair_coeff terms from geometric mixing rule
Neighbor list info ...
  update: every = 10 steps, delay = 0 steps, check = yes
  max neighbors/atom: 2000, page size: 100000
  master list distance cutoff = 33
  ghost atom cutoff = 33
  binsize = 16.5, bins = 61 61 61
  2 neighbor lists, perpetual/occasional/extra = 2 0 0
  (1) pair lj/cut, perpetual, trim from (2)
      attributes: half, newton on, cut 25
      pair build: trim
      stencil: none
      bin: none
  (2) pair base/rna, perpetual
      attributes: half, newton on
      pair build: half/bin/newton
      stencil: half/bin/3d
      bin: standard
Setting up Verlet run ...
  Unit style    : real
  Current step  : 0
  Time step     : 10
Per MPI rank memory allocation (min/avg/max) = 8.372 | 8.372 | 8.372 Mbytes
   Step         PotEng         KinEng          Temp     
         0   178.20119      0              0            
     10000   61.92627       109.73703      281.02671    
     20000   71.977757      119.23743      305.3564     
     30000   55.968688      124.07548      317.74621    
     40000   46.367877      121.05964      310.02291    
     50000   51.855948      107.67986      275.75848    
     60000   49.931624      113.06052      289.53787    
     70000   51.4944        116.4477       298.21214    
     80000   55.387641      117.3812       300.60276    
     90000   54.42477       116.67396      298.79157    
    100000   54.354698      118.71892      304.02853    
    110000   60.32462       114.99497      294.49183    
    120000   52.880845      110.22984      282.28875    
    130000   46.169777      119.03336      304.83379    
    140000   48.855552      111.18765      284.74161    
    150000   63.457185      107.87596      276.26068    
    160000   67.31545       117.83212      301.7575     
    170000   56.674657      117.81342      301.70961    
    180000   52.561021      126.0493       322.80098    
    190000   28.352021      123.25164      315.63641    
    200000   37.735579      106.12884      271.78646    
    210000   24.800886      123.95958      317.44939    
    220000   14.632759      111.72586      286.11992    
    230000   10.734596      116.88281      299.32643    
    240000   11.233188      123.1868       315.47036    
    250000   24.192199      139.38439      356.95096    
    260000   44.878241      114.77731      293.93442    
    270000   32.205579      114.30372      292.7216     
    280000   22.038777      110.55336      283.11725    
    290000   10.862368      125.12432      320.4322     
    300000  -17.956319      122.08574      312.65067    
    310000  -17.994388      117.60807      301.18375    
    320000  -18.263941      109.94194      281.55147    
    330000  -3.7961852      114.64337      293.5914     
    340000  -10.995425      115.99357      297.04915    
    350000  -19.997777      131.86607      337.69721    
    360000  -10.691513      121.10938      310.15027    
    370000  -20.50481       121.76007      311.81664    
    380000  -32.993034      123.75683      316.93017    
    390000  -17.405553      123.4154       316.0558     
    400000  -25.096741      109.38998      280.13795    
    410000  -29.256457      124.85855      319.75158    
    420000  -6.6415495      111.79721      286.30266    
    430000  -27.082515      115.87999      296.75829    
    440000  -23.280726      107.99053      276.55407    
    450000  -14.043151      121.81441      311.95579    
    460000  -10.817292      113.91035      291.71421    
    470000  -9.2802036      107.78935      276.03889    
    480000  -27.063335      112.52009      288.15388    
    490000  -39.322956      117.29678      300.38655    
    500000  -39.45711       131.40674      336.52091    
    510000  -28.451139      117.15534      300.02434    
    520000  -22.269921      126.09369      322.91466    
    530000  -39.812712      121.28474      310.59938    
    540000  -43.917964      118.97684      304.68904    
    550000  -37.280005      112.79178      288.84965    
    560000  -34.098774      111.32604      285.09604    
    570000  -41.010015      112.37965      287.79423    
    580000  -10.95992       113.57871      290.86492    
    590000  -26.181234      117.7223       301.47628    
    600000  -17.796678      118.62245      303.78148    
    610000  -36.26455       118.33049      303.03379    
    620000  -28.836007      119.30632      305.53281    
    630000  -27.032809      125.42246      321.1957     
    640000  -25.16144       128.04413      327.90956    
    650000   0.66393942     113.94779      291.8101     
    660000  -19.214551      106.00857      271.47846    
    670000  -26.457383      115.26028      295.17127    
    680000  -20.667867      124.99362      320.09748    
    690000  -32.699494      118.51667      303.51058    
    700000  -45.758615      126.50096      323.95765    
    710000  -40.013077      119.03157      304.82921    
    720000  -23.380018      109.06555      279.30712    
    730000  -40.819697      125.85889      322.31336    
    740000  -39.063933      108.23937      277.19133    
    750000  -32.702835      115.49306      295.7674     
    760000  -26.743883      106.52402      272.79849    
    770000  -17.166326      111.61136      285.8267     
    780000  -46.10035       122.25286      313.07864    
    790000  -45.241115      109.70914      280.95529    
    800000  -39.986865      117.30731      300.41352    
    810000  -42.020531      127.85769      327.4321     
    820000  -39.412851      123.7291       316.85916    
    830000  -18.414528      121.15585      310.26929    
    840000  -17.657031      110.30141      282.47205    
    850000  -26.214023      120.43698      308.42833    
    860000  -32.089577      119.00939      304.77239    
    870000  -43.720929      123.04491      315.10701    
    880000  -26.932733      102.14533      261.58504    
    890000  -36.766729      121.00792      309.89045    
    900000  -34.900483      135.48829      346.97338    
    910000  -22.126251      115.45299      295.66479    
    920000   12.520997      124.66595      319.25835    
    930000  -11.782152      125.19648      320.61698    
    940000  -18.125794      126.98043      325.18551    
    950000  -21.094619      112.2403       287.43736    
    960000  -22.554         128.77213      329.77391    
    970000  -27.49895       130.2973       333.67974    
    980000  -23.147183      126.20406      323.19731    
    990000  -20.2544        127.96779      327.71406    
   1000000  -18.924921      116.89175      299.3493     
   1010000  -42.557936      107.52293      275.35661    
   1020000  -50.552704      111.68345      286.01132    
   1030000  -58.630588      111.2182       284.81985    
   1040000  -44.867967      127.44346      326.37129    
   1050000  -61.850536      133.9258       342.97198    
   1060000  -48.691113      112.42477      287.90977    
   1070000  -69.587877      116.94386      299.48276    
   1080000  -49.003553      122.61187      313.99804    
   1090000  -44.485215      111.59926      285.79571    
   1100000  -34.428749      126.91265      325.01193    
   1110000  -37.629795      110.4766       282.92068    
   1120000  -55.884521      128.88904      330.07329    
   1130000  -42.160682      113.67709      291.11685    
   1140000  -47.98164       113.87967      291.63563    
   1150000  -32.884044      106.91182      273.79161    
   1160000  -53.333118      116.48895      298.31777    
   1170000  -51.821501      121.22514      310.44673    
   1180000  -39.309193      125.67203      321.83482    
   1190000  -25.399932      113.85383      291.56948    
   1200000  -50.330452      113.47417      290.59719    
   1210000  -53.443078      121.86879      312.09508    
   1220000  -57.028732      120.56539      308.75718    
   1230000  -55.480802      121.76647      311.83303    
   1240000  -54.418699      119.48271      305.98453    
   1250000  -53.872366      108.49847      277.85488    
   1260000  -48.212308      114.6172       293.5244     
   1270000  -63.160872      131.79628      337.51849    
   1280000  -62.346406      131.40677      336.52097    
   1290000  -48.730833      124.63945      319.19047    
   1300000  -58.582737      129.32179      331.18153    
   1310000  -25.099774      122.55909      313.86287    
   1320000  -50.547297      131.21721      336.03552    
   1330000  -38.915951      120.90017      309.61452    
   1340000  -31.098351      110.8394       283.84979    
   1350000  -32.933968      109.87504      281.38014    
   1360000  -40.841061      121.23847      310.48088    
   1370000  -57.254812      123.64445      316.64236    
   1380000  -32.459438      121.27068      310.56336    
   1390000  -54.502951      116.70166      298.8625     
   1400000  -45.522086      124.7038       319.35528    
   1410000  -44.725287      110.32699      282.53754    
   1420000  -41.270663      112.49738      288.09573    
   1430000  -45.851789      118.03623      302.28022    
   1440000  -58.864614      110.21508      282.25096    
   1450000  -52.717022      108.12232      276.89157    
   1460000  -49.229487      108.26978      277.26922    
   1470000  -61.468118      115.06897      294.68133    
   1480000  -59.399571      121.87424      312.10903    
   1490000  -53.230859      104.79582      268.37271    
   1500000  -39.173475      110.32695      282.53745    
   1510000  -59.305605      123.18036      315.45389    
   1520000  -40.857655      120.7173       309.14621    
   1530000  -62.087804      120.3746       308.26859    
   1540000  -69.48234       119.14634      305.12312    
   1550000  -80.727358      114.21874      292.50398    
   1560000  -71.892479      135.1762       346.17416    
   1570000  -75.200097      123.31894      315.80876    
   1580000  -62.575096      113.99593      291.93338    
   1590000  -64.345555      125.41286      321.17112    
   1600000  -63.106424      118.48571      303.4313     
   1610000  -57.606784      125.62366      321.71096    
   1620000  -45.740498      126.92757      325.05015    
   1630000  -47.197694      139.47432      357.18126    
   1640000  -29.175788      111.80297      286.3174     
   1650000  -47.186419      125.44471      321.25268    
   1660000  -48.669959      111.98819      286.79173    
   1670000  -43.84892       109.83561      281.27916    
   1680000  -58.788098      110.30207      282.47374    
   1690000  -48.223212      99.448558      254.67886    
   1700000  -64.831191      123.7266       316.85276    
   1710000  -50.638904      122.08015      312.63634    
   1720000  -51.312818      113.23735      289.99072    
   1730000  -61.913317      105.52395      270.23739    
   1740000  -49.871095      120.02596      307.37574    
   1750000  -72.387563      122.51185      313.74188    
   1760000  -57.305104      115.2831       295.2297     
   1770000  -55.037002      128.74457      329.70332    
   1780000  -64.028741      111.5417       285.64832    
   1790000  -55.78759       130.6723       334.64006    
   1800000  -27.226135      116.9404       299.47391    
   1810000  -41.420062      118.64578      303.84122    
   1820000  -68.963514      132.72008      339.88426    
   1830000  -64.575964      134.74648      345.07366    
   1840000  -41.729809      115.042        294.61226    
   1850000  -76.025422      113.44026      290.51034    
   1860000  -74.857009      112.09503      287.06534    
   1870000  -78.591259      111.43814      285.3831     
   1880000  -61.315964      115.91524      296.84855    
   1890000  -72.975398      120.74787      309.22448    
   1900000  -78.72209       106.20599      271.98404    
   1910000  -86.056553      121.29138      310.61636    
   1920000  -79.851748      116.84752      299.23603    
   1930000  -72.901839      94.302941      241.50139    
   1940000  -93.087763      109.82029      281.23993    
   1950000  -74.615014      105.90966      271.22517    
   1960000  -72.311678      115.18829      294.9869     
   1970000  -73.866282      116.99452      299.6125     
   1980000  -76.032592      109.33353      279.9934     
   1990000  -66.719509      118.90406      304.50265    
   2000000  -71.16179       117.78224      301.62979    
   2010000  -46.983763      110.90921      284.02857    
   2020000  -55.677921      120.49968      308.5889     
   2030000  -54.2565        121.81995      311.96998    
   2040000  -31.484519      101.02171      258.70755    
   2050000  -57.214235      118.20286      302.70694    
   2060000  -72.626429      125.42197      321.19445    
   2070000  -60.565346      121.40011      310.89483    
   2080000  -61.67674       126.16642      323.10091    
   2090000  -46.540725      109.90412      281.45461    
   2100000  -40.030958      113.22877      289.96874    
   2110000  -44.364309      107.78924      276.03859    
   2120000  -68.454939      118.6526       303.85869    
   2130000  -75.705294      126.95283      325.11485    
   2140000  -80.575818      121.82288      311.9775     
   2150000  -81.5943        107.95571      276.46492    
   2160000  -83.329975      110.26435      282.37714    
   2170000  -75.701608      106.16138      271.86979    
   2180000  -69.589143      111.69769      286.04778    
   2190000  -70.449932      124.48537      318.7959     
   2200000  -66.957822      115.7104       296.32398    
   2210000  -61.917831      106.02284      271.51501    
   2220000  -55.625982      113.44823      290.53076    
   2230000  -49.311105      104.60768      267.89091    
   2240000  -46.32863       125.60561      321.66472    
   2250000  -43.141062      134.29031      343.90547    
   2260000  -37.954203      117.74883      301.54421    
   2270000  -47.844074      122.71663      314.2663     
   2280000  -58.999454      105.57637      270.37164    
   2290000  -64.298987      103.97805      266.27849    
   2300000  -62.012896      101.26272      259.32475    
   2310000  -58.460367      121.91345      312.20943    
   2320000  -65.014656      122.47518      313.64797    
   2330000  -47.842415      105.71682      270.73132    
   2340000  -36.259304      114.18029      292.4055     
   2350000  -39.980857      116.23693      297.67237    
   2360000  -36.945497      109.38675      280.12969    
   2370000  -62.332539      117.10176      299.88714    
   2380000  -44.672892      114.42388      293.02933    
   2390000  -47.172694      120.50082      308.59183    
   2400000  -55.475633      125.04941      320.24035    
   2410000  -45.912874      111.8321       286.392      
   2420000  -51.877082      114.32832      292.7846     
   2430000  -59.848831      117.18687      300.10509    
   2440000  -40.528328      121.31109      310.66684    
   2450000  -49.592138      119.81044      306.82381    
   2460000  -61.989975      119.99921      307.30723    
   2470000  -53.40747       115.15503      294.90173    
   2480000  -38.465652      113.83651      291.5251     
   2490000  -46.448462      125.80587      322.17757    
   2500000  -45.091326      112.31603      287.63131    
   2510000  -65.099283      111.63554      285.88863    
   2520000  -54.263907      122.33828      313.29739    
   2530000  -49.985662      127.56277      326.67684    
   2540000  -36.878627      129.671        332.07582    
   2550000  -39.165061      120.29452      308.06349    
   2560000  -34.233471      123.63617      316.62116    
   2570000  -35.876286      118.16985      302.62242    
   2580000  -36.361424      107.05205      274.15073    
   2590000  -25.199149      124.78011      319.55071    
   2600000  -29.375019      126.35381      323.5808     
   2610000  -24.5469        97.944115      250.82611    
   2620000  -36.373108      119.66353      306.4476     
   2630000  -49.222211      114.80083      293.99466    
   2640000  -56.278287      120.60008      308.84602    
   2650000  -43.696292      111.20059      284.77477    
   2660000  -83.56717       126.5924       324.19181    
   2670000  -63.47834       110.03327      281.78535    
   2680000  -65.016107      132.00256      338.04674    
   2690000  -54.056969      128.319        328.61347    
   2700000  -34.07641       131.52772      336.83073    
   2710000  -44.713968      111.7965       286.30084    
   2720000  -73.267549      143.317        367.02201    
   2730000  -68.332451      122.18084      312.89419    
   2740000  -68.118701      114.02426      292.00593    
   2750000  -67.522317      109.02078      279.19246    
   2760000  -61.321031      121.69085      311.63938    
   2770000  -52.072625      111.87607      286.50461    
   2780000  -59.163006      118.22176      302.75534    
   2790000  -41.287197      111.16925      284.69451    
   2800000  -52.631786      118.96891      304.66874    
   2810000  -48.936341      126.55501      324.09606    
   2820000  -39.219308      114.17422      292.38996    
   2830000  -53.994042      107.6962       275.80032    
   2840000  -64.700986      117.65685      301.30867    
   2850000  -41.973768      130.60609      334.47051    
   2860000  -27.627817      115.48828      295.75515    
   2870000  -46.369626      123.94882      317.42185    
   2880000  -56.45118       127.72302      327.08722    
   2890000  -42.117027      117.78428      301.63501    
   2900000  -42.523797      117.67581      301.35721    
   2910000  -33.892627      111.81076      286.33735    
   2920000  -72.633475      131.10766      335.75498    
   2930000  -80.1964        118.17362      302.63206    
   2940000  -60.983934      108.05894      276.72927    
   2950000  -48.90967       117.31887      300.44313    
   2960000  -53.058273      127.44786      326.38257    
   2970000  -37.357542      122.48751      313.67956    
   2980000  -47.659255      118.78105      304.18765    
   2990000  -60.025163      117.56318      301.06879    
   3000000  -60.283579      122.15884      312.83785    
   3010000  -60.807184      140.32242      359.35315    
   3020000  -57.634103      118.97122      304.67464    
   3030000  -48.440958      108.29797      277.34141    
   3040000  -41.189608      114.35072      292.84197    
   3050000  -51.899555      112.02619      286.88905    
   3060000  -65.844335      103.54415      265.1673     
   3070000  -58.940334      103.92797      266.15023    
   3080000  -61.844987      112.75757      288.76205    
   3090000  -75.034291      120.46585      308.50227    
   3100000  -65.410171      125.00783      320.13386    
   3110000  -56.632408      123.47223      316.20134    
   3120000  -61.833303      118.66292      303.88512    
   3130000  -49.058753      112.03333      286.90733    
   3140000  -56.792239      127.51957      326.5662     
   3150000  -57.433022      112.17844      287.27894    
   3160000  -70.245334      110.99984      284.26066    
   3170000  -77.308812      128.33376      328.65128    
   3180000  -68.445586      121.84663      312.03833    
   3190000  -51.180537      123.63385      316.61521    
   3200000  -55.196491      124.07489      317.74469    
   3210000  -50.183111      121.18066      310.33282    
   3220000  -44.501582      112.6526       288.49323    
   3230000  -25.621983      107.19653      274.52071    
   3240000  -50.477777      115.7693       296.47482    
   3250000  -74.093153      124.29678      318.31292    
   3260000  -62.027483      130.06085      333.07421    
   3270000  -30.679715      105.48267      270.13169    
   3280000  -37.385129      123.94098      317.40177    
   3290000  -51.581235      124.07253      317.73864    
   3300000  -46.812344      122.97493      314.92779    
   3310000  -32.395746      119.9213       307.10772    
   3320000  -60.888174      115.54765      295.90718    
   3330000  -60.985275      112.41366      287.88132    
   3340000  -52.512419      110.91486      284.04304    
   3350000  -61.118433      99.290843      254.27496    
   3360000  -58.54376       116.40727      298.10859    
   3370000  -69.477014      116.91606      299.41157    
   3380000  -60.305775      101.8315       260.78137    
   3390000  -72.344878      111.36178      285.18756    
   3400000  -52.126802      111.82449      286.3725     
   3410000  -54.582371      99.290635      254.27443    
   3420000  -62.122019      110.45804      282.87315    
   3430000  -64.428523      113.0263       289.45025    
   3440000  -71.632675      115.91008      296.83535    
   3450000  -41.581664      103.57129      265.2368     
   3460000  -41.21798       133.62101      342.19144    
   3470000  -40.652364      132.42807      339.13644    
   3480000  -42.427684      117.1658       300.05113    
   3490000  -47.018673      127.87793      327.48394    
   3500000  -55.964378      127.18563      325.71102    
   3510000  -43.462249      104.83329      268.46867    
   3520000  -61.848871      133.75091      342.52411    
   3530000  -73.370889      126.74761      324.5893     
   3540000  -64.695705      107.51379      275.33319    
   3550000  -66.106884      103.44928      264.92435    
   3560000  -62.422949      110.88446      283.96519    
   3570000  -63.978321      113.47072      290.58836    
   3580000  -49.697968      101.68634      260.40961    
   3590000  -64.143241      114.59761      293.47421    
   3600000  -61.208073      108.51339      277.89308    
   3610000  -56.108043      114.65632      293.62457    
   3620000  -47.698398      109.78251      281.14319    
   3630000  -47.928698      111.82135      286.36448    
   3640000  -53.458634      122.25816      313.0922     
   3650000  -57.677984      126.66724      324.38348    
   3660000  -62.026347      119.64623      306.40329    
   3670000  -44.520797      102.58357      262.70734    
   3680000  -57.999306      128.9254       330.16641    
   3690000  -62.88741       124.11919      317.85815    
   3700000  -55.394175      128.08005      328.00153    
   3710000  -53.97905       117.10196      299.88764    
   3720000  -34.618263      129.39428      331.36716    
   3730000  -52.249581      115.00254      294.51122    
   3740000  -63.845298      116.94728      299.49152    
   3750000  -53.924326      107.14793      274.39626    
   3760000  -62.523206      118.19823      302.69509    
   3770000  -57.655616      125.48829      321.36427    
   3780000  -65.087749      117.63138      301.24344    
   3790000  -69.719622      127.0358       325.32731    
   3800000  -53.035512      121.38573      310.85799    
   3810000  -73.301073      130.60349      334.46385    
   3820000  -75.859409      119.44355      305.88425    
   3830000  -64.332991      104.09132      266.56855    
   3840000  -89.240101      119.63822      306.38278    
   3850000  -89.727931      123.57241      316.45788    
   3860000  -67.246292      113.15452      289.77859    
   3870000  -57.364644      120.95651      309.75879    
   3880000  -64.306797      114.77694      293.93348    
   3890000  -59.825873      126.05838      322.82423    
   3900000  -74.430646      124.32494      318.38503    
   3910000  -66.786425      109.8683       281.36288    
   3920000  -54.175731      114.8379       294.08958    
   3930000  -56.371278      120.72425      309.16399    
   3940000  -56.648268      124.73493      319.435      
   3950000  -66.123895      124.92852      319.93076    
   3960000  -64.441867      124.02138      317.60766    
   3970000  -69.581871      118.06203      302.3463     
   3980000  -68.297097      121.07501      310.06227    
   3990000  -73.490697      115.827        296.62258    
   4000000  -75.979402      118.4361       303.30426    
Loop time of 624.099 on 1 procs for 4000000 steps with 132 atoms

Performance: 5537.581 ns/day, 0.004 hours/ns, 6409.237 timesteps/s, 846.019 katom-step/s
99.4% CPU use with 1 MPI tasks x 1 OpenMP threads

MPI task timing breakdown:
Section |  min time  |  avg time  |  max time  |%varavg| %total
---------------------------------------------------------------
Pair    | 568.57     | 568.57     | 568.57     |   0.0 | 91.10
Bond    | 34.695     | 34.695     | 34.695     |   0.0 |  5.56
Neigh   | 2.3332     | 2.3332     | 2.3332     |   0.0 |  0.37
Comm    | 2.454      | 2.454      | 2.454      |   0.0 |  0.39
Output  | 0.71912    | 0.71912    | 0.71912    |   0.0 |  0.12
Modify  | 14.501     | 14.501     | 14.501     |   0.0 |  2.32
Other   |            | 0.828      |            |       |  0.13

Nlocal:            132 ave         132 max         132 min
Histogram: 1 0 0 0 0 0 0 0 0 0
Nghost:              0 ave           0 max           0 min
Histogram: 1 0 0 0 0 0 0 0 0 0
Neighs:           1647 ave        1647 max        1647 min
Histogram: 1 0 0 0 0 0 0 0 0 0

Total # of neighbors = 1647
Ave neighs/atom = 12.477273
Ave special neighs/atom = 5.9090909
Neighbor list builds = 8898
Dangerous builds = 0
Generated 0 of 6 mixed pair_coeff terms from geometric mixing rule
Setting up Verlet run ...
  Unit style    : real
  Current step  : 4000000
  Time step     : 10
Per MPI rank memory allocation (min/avg/max) = 9.637 | 9.637 | 9.637 Mbytes
   Step         PotEng         KinEng          Temp     
   4000000  -75.979402      118.4361       303.30426    
   4010000  -80.527004      111.90893      286.58874    
   4020000  -76.360469      114.63286      293.56449    
   4030000  -69.556105      120.48584      308.55345    
   4040000  -90.980543      125.53654      321.48785    
   4050000  -67.287655      106.69204      273.22876    
   4060000  -70.062744      121.04187      309.97739    
   4070000  -65.552169      122.33058      313.27766    
   4080000  -56.58182       123.67374      316.71737    
   4090000  -58.801708      132.40746      339.08366    
   4100000  -62.539816      123.85917      317.19225    
   4110000  -50.972715      113.32976      290.22738    
   4120000  -64.388015      127.325        326.06794    
   4130000  -79.492487      124.90315      319.8658     
   4140000  -48.992407      113.22421      289.95707    
   4150000  -59.39533       131.58471      336.97667    
   4160000  -49.177199      108.28026      277.29605    
   4170000  -62.357982      140.56109      359.96438    
   4180000  -54.314708      116.82302      299.17329    
   4190000  -42.561007      111.11826      284.56392    
   4200000  -45.941595      117.74806      301.54224    
   4210000  -43.687193      122.06193      312.58968    
   4220000  -48.651425      130.33341      333.77221    
   4230000  -22.721791      114.43383      293.05479    
   4240000  -53.728625      128.2762       328.50388    
   4250000  -54.538676      114.67306      293.66745    
   4260000  -55.180998      130.15164      333.3067     
   4270000  -50.315118      130.24213      333.53845    
   4280000  -51.660124      134.41714      344.23028    
   4290000  -36.595814      118.40812      303.2326     
   4300000  -60.402462      123.45091      316.14673    
   4310000  -57.0452        110.89586      283.99438    
   4320000  -32.215162      124.47126      318.75975    
   4330000  -30.133923      132.2033       338.56081    
   4340000  -50.460746      122.20799      312.96372    
   4350000  -30.905568      117.27034      300.31886    
   4360000  -34.116203      123.00793      315.01231    
   4370000  -47.746253      118.14133      302.54937    
   4380000  -51.428446      122.5593       313.8634     
   4390000  -32.450523      112.5278       288.17362    
   4400000  -39.479453      128.60448      329.34457    
   4410000  -25.986712      115.49286      295.76689    
   4420000  -26.262771      122.03456      312.51958    
   4430000  -28.641918      136.28371      349.0104     
   4440000  -14.897328      118.21847      302.74691    
   4450000  -24.926377      110.48101      282.93198    
   4460000  -48.633434      117.89291      301.9132     
   4470000  -25.751676      109.39667      280.15509    
   4480000  -39.549953      120.60462      308.85765    
   4490000  -25.295807      115.06699      294.67625    
   4500000  -30.418308      117.57248      301.09261    
   4510000  -26.0631        131.10187      335.74015    
   4520000  -35.08693       128.32779      328.63598    
   4530000  -4.4196907      137.95947      353.30185    
   4540000  -9.7210212      121.02475      309.93355    
   4550000  -13.015978      133.1998       341.11277    
   4560000  -5.7960654      134.33969      344.03193    
   4570000  -6.7503623      138.37605      354.36868    
   4580000  -16.150866      128.34506      328.68021    
   4590000  -17.813352      120.80493      309.37061    
   4600000  -24.481631      138.92022      355.76226    
   4610000  -24.713027      130.17121      333.35683    
   4620000  -23.142192      126.10078      322.93282    
   4630000  -17.851565      120.33477      308.16658    
   4640000  -43.984093      125.31676      320.92501    
   4650000  -40.199215      111.96582      286.73445    
   4660000  -26.071148      124.67853      319.29056    
   4670000  -26.004314      112.60603      288.37396    
   4680000  -7.3790993      119.54774      306.15107    
   4690000  -34.568256      131.90366      337.79347    
   4700000  -14.797705      115.09258      294.74179    
   4710000  -42.927172      111.0428       284.37066    
   4720000  -33.371032      115.02862      294.578      
   4730000  -27.857701      121.97486      312.3667     
   4740000  -25.593915      115.21984      295.06771    
   4750000  -16.716743      115.7811       296.50504    
   4760000  -28.829383      130.72145      334.76594    
   4770000  -28.909894      122.69702      314.21609    
   4780000  -17.172433      118.78112      304.18782    
   4790000  -18.733599      131.52498      336.82369    
   4800000  -5.9840033      130.60134      334.45834    
   4810000  -18.907285      116.26391      297.74146    
   4820000  -21.080896      104.44223      267.46719    
   4830000  -25.851726      103.29837      264.53788    
   4840000  -10.975455      119.87553      306.9905     
   4850000  -1.7201662      109.87502      281.38009    
   4860000  -13.279901      130.64011      334.55763    
   4870000  -15.989396      125.69385      321.8907     
   4880000  -22.26303       128.96302      330.26275    
   4890000  -19.299665      136.16892      348.71642    
   4900000  -30.939725      130.00371      332.92786    
   4910000  -19.429399      123.0943       315.2335     
   4920000  -6.5807023      124.33019      318.3985     
   4930000  -20.85303       130.83484      335.05631    
   4940000  -5.3652537      125.11329      320.40394    
   4950000  -3.8874408      129.22069      330.92263    
   4960000  -2.9920043      130.24744      333.55203    
   4970000   10.819524      120.25227      307.9553     
   4980000   4.28332        120.56429      308.75435    
   4990000   5.4580562      122.12266      312.74521    
   5000000   3.3366371      122.05289      312.56653    
   5010000  -5.4140174      124.76976      319.52418    
   5020000  -6.9267072      139.10393      356.23272    
   5030000  -1.9563916      120.12936      307.64054    
   5040000  -7.9985601      139.56856      357.42259    
   5050000  -22.275102      133.23672      341.20733    
   5060000  -24.256493      132.99337      340.58413    
   5070000  -27.647167      128.3619       328.72334    
   5080000  -3.6026608      135.02257      345.78072    
   5090000   7.0297853      137.24714      351.47765    
   5100000   23.411935      135.91342      348.0621     
   5110000   3.3681569      130.93362      335.30929    
   5120000   11.128094      115.31031      295.29938    
   5130000   4.6996443      121.40837      310.91596    
   5140000   11.87521       125.13313      320.45474    
   5150000   1.6825987      124.67803      319.28929    
   5160000  -22.409365      138.86936      355.63201    
   5170000   6.0407526      131.62709      337.08521    
   5180000   18.123693      134.12118      343.47233    
   5190000   1.4548282      129.76419      332.31448    
   5200000   6.4665332      122.83033      314.55749    
   5210000   8.2926037      143.33207      367.0606     
   5220000   8.6520397      126.52289      324.01381    
   5230000   8.4178573      138.20748      353.93699    
   5240000   33.433355      134.7594       345.10675    
   5250000   26.156614      145.34671      372.21993    
   5260000   31.265606      129.00446      330.36887    
   5270000   10.19146       142.05507      363.79031    
   5280000   0.55907543     128.61096      329.36117    
   5290000   31.768874      124.19474      318.05161    
   5300000   2.699331       132.18894      338.52405    
   5310000  -1.697071       130.02008      332.96978    
   5320000   0.7993747      120.42663      308.40183    
   5330000   6.1964274      124.34681      318.44105    
   5340000   8.4924508      130.18971      333.40419    
   5350000   20.278106      137.96576      353.31797    
   5360000   3.4096909      146.25637      374.54947    
   5370000   12.414773      128.34729      328.68591    
   5380000   15.054461      130.85067      335.09685    
   5390000   11.955005      123.78216      316.99505    
   5400000   28.51417       128.7937       329.82914    
   5410000   21.527503      125.45198      321.2713     
   5420000   6.9644682      133.10128      340.86047    
   5430000   33.460019      133.12511      340.92149    
   5440000   39.625078      126.51746      323.99989    
   5450000   22.416796      144.76594      370.73261    
   5460000   49.865541      134.78908      345.18277    
   5470000   52.875884      119.50396      306.03894    
   5480000   54.849866      131.74397      337.38451    
   5490000   55.716877      145.43441      372.4445     
   5500000   30.354724      142.57009      365.10924    
   5510000   35.487228      146.04438      374.00659    
   5520000   39.826758      136.31716      349.09606    
   5530000   40.622192      145.06154      371.48961    
   5540000   37.935205      123.90946      317.32104    
   5550000   9.2725314      156.0111       399.53047    
   5560000   21.738414      136.18758      348.7642     
   5570000   54.649851      119.57526      306.22154    
   5580000   26.069002      142.99822      366.20565    
   5590000   28.435891      128.40134      328.82433    
   5600000   21.138833      133.3887       341.59652    
   5610000   32.988526      109.91438      281.48088    
   5620000   34.50526       141.08814      361.31411    
   5630000   33.166391      140.76911      360.49708    
   5640000   21.357461      120.13833      307.66351    
   5650000   14.230669      147.69141      378.22449    
   5660000   46.089148      141.84585      363.25453    
   5670000   42.872986      133.2831       341.3261     
   5680000   46.92691       129.75137      332.28164    
   5690000   48.369914      133.7753       342.58657    
   5700000   45.593162      122.6978       314.21808    
   5710000   46.556944      136.3662       349.22165    
   5720000   43.939275      143.73858      368.10165    
   5730000   34.88704       160.55955      411.17864    
   5740000   13.266555      140.03295      358.61186    
   5750000   12.055301      144.33536      369.62993    
   5760000   18.496478      148.48808      380.26468    
   5770000   37.530323      128.31058      328.5919     
   5780000   51.075175      127.84826      327.40795    
   5790000   68.032807      135.96181      348.18602    
   5800000   64.091253      136.67938      350.02366    
   5810000   41.95878       134.24839      343.79811    
   5820000   63.14906       140.9055       360.84638    
   5830000   51.684394      129.73898      332.24992    
   5840000   50.988056      140.32625      359.36296    
   5850000   55.638909      152.22834      389.84316    
   5860000   66.708967      142.40633      364.68986    
   5870000   44.210307      157.03218      402.14537    
   5880000   35.830262      154.1424       394.74488    
   5890000   36.237766      131.90995      337.80957    
   5900000   5.6232332      127.31481      326.04183    
   5910000   14.676058      134.51591      344.48321    
   5920000   36.638172      133.63069      342.21625    
   5930000   8.6852915      135.84544      347.88803    
   5940000  -1.6471655      147.81718      378.54657    
   5950000  -11.951061      137.76056      352.79246    
   5960000   8.7913061      141.64593      362.74255    
   5970000   36.863234      116.95395      299.50861    
   5980000   5.7652936      137.65811      352.53011    
   5990000   3.4231686      141.26133      361.75762    
   6000000   17.33764       131.37475      336.43899    
   6010000   17.680017      147.38338      377.43566    
   6020000   0.27532685     144.0597       368.92399    
   6030000   2.8938795      146.47988      375.12186    
   6040000  -11.108665      154.46375      395.56784    
   6050000   31.505046      142.30403      364.42787    
   6060000   47.131862      138.35922      354.32558    
   6070000   46.325708      135.89045      348.00329    
   6080000   37.446848      120.54795      308.7125     
   6090000   0.43573546     139.80952      358.03967    
   6100000  -3.4196041      127.89734      327.53365    
   6110000   2.9642673      131.33231      336.33029    
   6120000   4.4783619      125.46903      321.31496    
   6130000   6.3443815      112.75902      288.76576    
   6140000   11.730301      134.31211      343.96129    
   6150000   5.0026128      149.34546      382.46035    
   6160000   18.259346      134.02206      343.21851    
   6170000   14.194826      136.93195      350.67048    
   6180000   55.19033       148.04948      379.14147    
   6190000   54.481751      138.0659       353.57443    
   6200000   61.633763      132.19518      338.54003    
   6210000   25.427164      153.61072      393.38331    
   6220000   43.286627      126.99259      325.21665    
   6230000   25.594855      132.74939      339.95931    
   6240000   25.507019      142.2387       364.26059    
   6250000   28.446975      135.29666      346.48264    
   6260000   39.186973      149.18384      382.04647    
   6270000   30.793848      140.24625      359.15808    
   6280000   33.475137      148.114        379.30671    
   6290000   29.014374      140.89692      360.82439    
   6300000   32.294269      146.90358      376.20693    
   6310000   44.999279      133.67616      342.3327     
   6320000   21.663929      129.62225      331.95097    
   6330000   22.54628       131.00383      335.48909    
   6340000   20.674769      127.58169      326.72529    
   6350000   16.388112      145.69743      373.11807    
   6360000   10.964625      126.79056      324.69928    
   6370000   10.142468      124.46662      318.74788    
   6380000  -10.273617      153.11105      392.10369    
   6390000  -14.362825      150.49122      385.39455    
   6400000   7.6559293      147.23393      377.05291    
   6410000   26.835827      149.07059      381.75643    
   6420000   8.4884087      136.62961      349.8962     
   6430000  -2.6906824      138.79278      355.43589    
   6440000   13.991176      137.43748      351.96508    
   6450000   21.695417      135.13235      346.06185    
   6460000   14.170395      137.23533      351.4474     
   6470000   20.100944      149.89378      383.86456    
   6480000   31.438593      132.41747      339.10928    
   6490000   18.949341      163.38061      418.40313    
   6500000   38.083188      140.49171      359.7867     
   6510000   12.97244       134.38213      344.1406     
   6520000   14.392331      130.50911      334.22216    
   6530000   24.625318      129.809        332.42922    
   6540000   47.934841      139.04552      356.08313    
   6550000   34.944601      161.62803      413.91492    
   6560000   38.640715      144.07302      368.95811    
   6570000   56.826161      132.86014      340.24293    
   6580000   44.180591      137.20088      351.35918    
   6590000   45.854713      133.58792      342.10672    
   6600000   51.641123      130.91576      335.26355    
   6610000   78.636685      156.35154      400.40229    
   6620000   61.299276      126.95699      325.12549    
   6630000   74.226236      140.34808      359.41887    
   6640000   48.321831      140.60559      360.07833    
   6650000   50.918451      150.21587      384.68941    
   6660000   56.382357      136.12633      348.60734    
   6670000   42.394961      156.15547      399.90018    
   6680000   46.843062      138.37543      354.36709    
   6690000   62.23068       150.49951      385.41579    
   6700000   69.22396       141.27298      361.78747    
   6710000   68.024272      130.80322      334.97535    
   6720000   33.310058      145.54423      372.72574    
   6730000   30.344549      138.91175      355.74057    
   6740000   28.944034      142.41052      364.7006     
   6750000   39.552411      158.1084       404.90146    
   6760000   43.983642      145.68502      373.08629    
   6770000   42.493583      153.15127      392.20669    
   6780000   29.510537      149.4993       382.85433    
   6790000   40.620212      135.94481      348.1425     
   6800000   56.254926      129.03403      330.4446     
   6810000   51.278784      144.92768      371.14682    
   6820000   55.260852      145.10461      371.59993    
   6830000   54.02581       142.37172      364.60123    
   6840000   45.136045      160.342        410.62151    
   6850000   61.182627      152.57597      390.7334     
   6860000   57.931792      155.12042      397.24951    
   6870000   37.644065      173.92786      445.41369    
   6880000   30.234995      158.55586      406.04737    
   6890000   55.827097      148.84949      381.19023    
   6900000   29.983293      146.48417      375.13286    
   6910000   17.788406      150.1675       384.56553    
   6920000   19.911758      145.73021      373.20204    
   6930000   21.608809      134.90585      345.48182    
   6940000   54.858685      152.62199      390.85127    
   6950000   57.692         145.50095      372.61491    
   6960000   41.310409      160.83556      411.88547    
   6970000   45.335056      152.53106      390.6184     
   6980000   49.643338      148.19673      379.51857    
   6990000   40.933095      150.82882      386.2591     
   7000000   32.456702      148.47601      380.23379    
   7010000   42.368252      128.37464      328.75595    
   7020000   54.10656       152.76195      391.20968    
   7030000   76.630267      159.50191      408.47012    
   7040000   46.064789      156.19411      399.99914    
   7050000   57.631621      157.24618      402.69338    
   7060000   53.531586      166.86493      427.32614    
   7070000   68.531363      152.56621      390.70841    
   7080000   75.173799      142.9248       366.01762    
   7090000   66.636023      143.90734      368.53383    
   7100000   41.876923      139.29445      356.72061    
   7110000   50.962357      136.14329      348.65077    
   7120000   69.007135      135.05058      345.85246    
   7130000   67.59228       148.6533       380.68779    
   7140000   80.886341      156.39612      400.51646    
   7150000   73.844807      143.2058       366.73725    
   7160000   71.13275       150.75024      386.05787    
   7170000   69.983185      159.91003      409.51529    
   7180000   72.914684      163.29366      418.18045    
   7190000   77.892568      150.6485       385.79731    
   7200000   63.381131      150.94579      386.55866    
   7210000   50.179963      156.21006      400.03999    
   7220000   61.906292      144.3213       369.59393    
   7230000   51.214906      148.1409       379.37558    
   7240000   61.272806      145.06883      371.50828    
   7250000   76.588764      152.01602      389.29943    
   7260000   68.48436       143.99058      368.74698    
   7270000   61.277076      135.23692      346.32964    
   7280000   70.337516      158.24415      405.24912    
   7290000   79.487851      162.32931      415.71085    
   7300000   61.649497      147.60337      377.99901    
   7310000   74.158573      138.9837       355.92481    
   7320000   52.105692      164.67936      421.7291     
   7330000   78.244403      141.9972       363.64213    
   7340000   78.713767      146.73603      375.77783    
   7350000   59.456052      140.31121      359.32446    
   7360000   75.288824      170.38999      436.35351    
   7370000   52.085425      139.57913      357.44966    
   7380000   88.667631      142.3329       364.50181    
   7390000   68.807133      168.15257      430.6237     
   7400000   59.239308      144.53944      370.15258    
   7410000   58.701046      153.08752      392.04344    
   7420000   81.797519      134.11818      343.46467    
   7430000   55.870397      158.85527      406.81412    
   7440000   49.642591      157.77903      404.05798    
   7450000   39.509306      162.41439      415.92872    
   7460000   56.012622      163.45589      418.59589    
   7470000   20.944075      161.49301      413.56915    
   7480000   48.75301       149.71317      383.40202    
   7490000   74.603353      141.99722      363.64218    
   7500000   70.70272       163.14762      417.80645    
   7510000   87.50098       155.15933      397.34916    
   7520000   75.17312       157.51866      403.3912     
   7530000   54.888264      138.72397      355.25967    
   7540000   54.733092      137.50723      352.14371    
   7550000   62.582178      150.5145       385.45418    
   7560000   73.594838      139.79144      357.99336    
   7570000   62.32412       147.89689      378.75071    
   7580000   65.40429       155.30823      397.73049    
   7590000   69.882985      160.35869      410.66427    
   7600000   78.532144      148.84159      381.16998    
   7610000   74.795026      161.02843      412.3794     
   7620000   78.086475      142.95288      366.08954    
   7630000   90.99321       164.96819      422.46878    
   7640000   74.490224      149.72761      383.439      
   7650000   80.306724      140.03399      358.61451    
   7660000   82.39041       154.28084      395.09942    
   7670000   73.508892      153.52678      393.16835    
   7680000   68.062698      148.08496      379.23232    
   7690000   71.813783      161.31473      413.11259    
   7700000   76.289333      160.97504      412.24266    
   7710000   84.911043      149.89611      383.87053    
   7720000   48.311203      157.8273       404.18159    
   7730000   60.423199      142.91644      365.99621    
   7740000   64.125406      140.05059      358.65702    
   7750000   76.597457      139.53518      357.3371     
   7760000   92.935562      161.36249      413.23489    
   7770000   78.332359      169.98788      435.32374    
   7780000   82.06486       151.33643      387.55905    
   7790000   82.546871      163.72396      419.28241    
   7800000   85.070922      145.3025       372.1067     
   7810000   96.00865       145.71748      373.16942    
   7820000   100.43895      151.09318      386.9361     
   7830000   105.90125      146.04477      374.00757    
   7840000   86.286766      173.56946      444.49586    
   7850000   87.791742      147.55322      377.87058    
   7860000   69.0853        152.93947      391.66431    
   7870000   68.685601      153.87367      394.05669    
   7880000   92.04378       156.50982      400.80765    
   7890000   82.042509      164.57958      421.47356    
   7900000   68.297312      167.97579      430.17097    
   7910000   75.03354       139.97595      358.46588    
   7920000   60.508245      143.52791      367.56214    
   7930000   75.15406       136.57393      349.75362    
   7940000   75.295953      134.16937      343.59574    
   7950000   74.943782      145.94853      373.76113    
   7960000   71.636911      143.89765      368.509      
   7970000   71.597963      152.65254      390.92949    
   7980000   81.421274      167.50903      428.97565    
   7990000   87.442539      170.4193       436.42858    
   8000000   77.624697      192.94439      494.11332    
   8010000   51.419399      176.80846      452.79063    
   8020000   55.538295      151.43494      387.81133    
   8030000   52.429388      156.04283      399.61173    
   8040000   66.994402      157.51734      403.3878     
   8050000   87.675007      151.1154       386.99302    
   8060000   88.97375       149.92523      383.94511    
   8070000   80.469821      158.71116      406.44507    
   8080000   79.909686      182.72779      467.94952    
   8090000   83.822041      154.54493      395.77573    
   8100000   75.506195      186.00102      476.33198    
   8110000   107.7684       149.58432      383.07207    
   8120000   75.597415      141.28626      361.82147    
   8130000   83.964308      168.53656      431.60705    
   8140000   71.617376      171.78784      439.93329    
   8150000   77.595821      156.35054      400.39974    
   8160000   88.138575      152.40006      390.2829     
   8170000   90.817974      164.62364      421.58641    
   8180000   116.59369      154.29179      395.12748    
   8190000   90.30704       177.98448      455.80232    
   8200000   75.755597      179.28469      459.13206    
   8210000   54.964375      171.12683      438.2405     
   8220000   88.287168      147.16697      376.88145    
   8230000   96.929452      134.20495      343.68686    
   8240000   78.377548      157.47243      403.2728     
   8250000   86.727057      159.11457      407.47816    
   8260000   77.83182       173.5587       444.46829    
   8270000   90.484515      156.1599       399.91153    
   8280000   77.964427      156.56834      400.9575     
   8290000   93.308069      144.02371      368.83184    
   8300000   86.811112      158.02482      404.68742    
   8310000   98.806329      150.84885      386.3104     
   8320000   89.739877      171.04709      438.03629    
   8330000   103.77475      157.03688      402.1574     
   8340000   79.256413      153.84231      393.9764     
   8350000   66.744762      155.06623      397.11074    
   8360000   75.15287       174.14007      445.95713    
   8370000   79.823747      138.57939      354.88942    
   8380000   83.260387      172.26741      441.16141    
   8390000   99.975947      160.60089      411.28451    
   8400000   87.322428      149.98518      384.09863    
   8410000   68.394052      182.04883      466.21075    
   8420000   88.008235      159.80817      409.25441    
   8430000   93.506202      166.58372      426.60601    
   8440000   84.598213      143.71937      368.05244    
   8450000   88.723311      167.56353      429.11521    
   8460000   72.559866      178.87374      458.07963    
   8470000   94.064662      152.52896      390.61301    
   8480000   64.420621      158.43686      405.74261    
   8490000   68.693301      148.27164      379.71041    
   8500000   81.090559      161.36874      413.2509     
   8510000   70.958298      157.44266      403.19656    
   8520000   87.539075      165.26794      423.2364     
   8530000   61.823646      177.59364      454.80143    
   8540000   72.626502      164.72896      421.85614    
   8550000   74.38594       172.27363      441.17736    
   8560000   79.989169      169.83034      434.9203     
   8570000   72.176161      154.77019      396.35261    
   8580000   74.473656      147.77717      378.44411    
   8590000   90.00321       147.1799       376.91456    
   8600000   95.190855      170.18984      435.84095    
   8610000   86.091931      165.97026      425.03499    
   8620000   100.38631      153.93662      394.21791    
   8630000   79.686946      183.4915       469.90532    
   8640000   101.53802      164.53308      421.3545     
   8650000   89.924226      159.77125      409.15988    
   8660000   87.000247      145.30936      372.12428    
   8670000   89.989502      135.38255      346.7026     
   8680000   88.995209      167.77582      429.65886    
   8690000   92.388115      153.08         392.02417    
   8700000   105.06771      145.17372      371.77691    
   8710000   104.37333      152.76338      391.21335    
   8720000   101.56933      169.36375      433.72541    
   8730000   105.56813      165.15258      422.94098    
   8740000   93.073799      174.68383      447.34967    
   8750000   104.876        156.73138      401.37505    
   8760000   113.99794      142.88904      365.92605    
   8770000   90.437992      176.76993      452.69197    
   8780000   95.568103      161.29658      413.06611    
   8790000   99.549478      144.39582      369.78478    
   8800000   104.33083      147.01368      376.48888    
   8810000   91.245138      168.96435      432.70258    
   8820000   110.8978       169.93127      435.17877    
   8830000   97.086101      153.8328       393.95203    
   8840000   93.703952      162.05331      415.00402    
   8850000   105.65704      174.55336      447.01554    
   8860000   92.250197      154.32764      395.21927    
   8870000   88.845172      179.29976      459.17063    
   8880000   91.795827      168.94274      432.64723    
   8890000   87.340363      166.92267      427.47403    
   8900000   75.065724      185.31392      474.57236    
   8910000   92.510109      175.88026      450.4136     
   8920000   108.97803      166.43971      426.23721    
   8930000   104.49934      164.62553      421.59125    
   8940000   76.264274      172.98935      443.01025    
   8950000   105.52307      150.84296      386.29533    
   8960000   102.40214      166.77426      427.09396    
   8970000   123.01345      185.87229      476.0023     
   8980000   97.634088      153.9643       394.2888     
   8990000   99.913843      151.20412      387.22022    
   9000000   96.120029      139.68771      357.72772    
   9010000   71.740477      161.77558      414.29279    
   9020000   95.578875      157.17357      402.50746    
   9030000   91.830156      159.79452      409.21946    
   9040000   70.047172      169.28772      433.53071    
   9050000   62.5358        175.93271      450.54792    
   9060000   61.262326      168.62029      431.82148    
   9070000   66.305558      171.63746      439.54818    
   9080000   91.972552      165.97037      425.03526    
   9090000   89.574503      134.61202      344.72933    
   9100000   63.658684      153.0891       392.04747    
   9110000   76.593742      155.16165      397.35511    
   9120000   90.492876      155.98141      399.45444    
   9130000   85.277118      151.51153      388.00748    
   9140000   94.065332      171.1971       438.42044    
   9150000   100.59077      182.25338      466.7346     
   9160000   87.452647      160.47321      410.95754    
   9170000   85.756026      156.6083       401.05985    
   9180000   93.289927      156.02582      399.56817    
   9190000   86.654329      169.19266      433.28726    
   9200000   113.07149      147.94713      378.87936    
   9210000   117.69608      178.34452      456.72434    
   9220000   85.096614      180.99279      463.50634    
   9230000   82.269551      186.2993       477.09583    
   9240000   110.23064      161.16247      412.72267    
   9250000   88.604472      165.99944      425.1097     
   9260000   112.9822       165.63782      424.18364    
   9270000   116.85822      174.27384      446.29971    
   9280000   126.13478      173.30156      443.80977    
   9290000   102.23294      185.22406      474.34224    
   9300000   92.230829      170.37939      436.32636    
   9310000   106.41384      170.18079      435.81777    
   9320000   110.40299      171.02666      437.98396    
   9330000   116.13645      183.36461      469.58035    
   9340000   82.994166      178.82196      457.94703    
   9350000   86.403063      181.78984      465.5475     
   9360000   108.73475      159.90664      409.5066     
   9370000   100.33741      153.09703      392.06778    
   9380000   77.172614      177.8355       455.42081    
   9390000   109.17952      173.14622      443.41198    
   9400000   113.49787      170.64385      437.00362    
   9410000   82.239841      182.47773      467.30914    
   9420000   105.01007      170.04176      435.46174    
   9430000   117.71127      160.80809      411.81513    
   9440000   101.20839      184.53476      472.57701    
   9450000   100.42788      163.50419      418.71961    
   9460000   111.63014      160.81868      411.84225    
   9470000   111.97408      161.31228      413.10631    
   9480000   122.93838      167.80332      429.72929    
   9490000   121.87614      190.092        486.80859    
   9500000   110.72824      157.79365      404.09541    
   9510000   89.480138      155.00337      396.94975    
   9520000   76.183377      179.25984      459.06842    
   9530000   87.033477      152.13639      389.60767    
   9540000   91.266996      183.63739      470.27893    
   9550000   123.29745      172.55411      441.89563    
   9560000   122.23405      174.32706      446.436      
   9570000   92.888308      176.43615      451.83719    
   9580000   96.401953      173.3812       444.01373    
   9590000   102.37026      166.3938       426.11963    
   9600000   103.52165      146.67676      375.62606    
   9610000   75.449639      171.86979      440.14315    
   9620000   76.550845      169.81075      434.87012    
   9630000   106.20456      172.79228      442.50556    
   9640000   108.43982      185.68239      475.516      
   9650000   121.7059       164.1056       420.25976    
   9660000   119.5662       160.52941      411.10145    
   9670000   132.59759      166.14925      425.49336    
   9680000   106.52125      191.9241       491.50045    
   9690000   86.712621      182.93511      468.48044    
   9700000   101.32799      172.34164      441.35151    
   9710000   90.504229      146.54685      375.29336    
   9720000   97.008276      162.70599      416.67548    
   9730000   95.919871      170.82065      437.4564     
   9740000   115.02931      159.4396       408.31055    
   9750000   116.91904      168.82268      432.33979    
   9760000   98.927881      158.90463      406.94055    
   9770000   100.35646      190.40548      487.61139    
   9780000   120.1091       158.37091      405.57374    
   9790000   99.642717      165.21931      423.11188    
   9800000   118.24015      153.09757      392.06917    
   9810000   107.5587       150.46447      385.32603    
   9820000   104.61212      185.95799      476.22176    
   9830000   101.46854      178.59349      457.36193    
   9840000   96.157343      157.62121      403.65382    
   9850000   119.71015      162.58962      416.37746    
   9860000   108.36458      171.34121      438.78949    
   9870000   96.703144      158.79125      406.65019    
   9880000   77.587619      164.62947      421.60133    
   9890000   88.996983      178.52471      457.18582    
   9900000   87.918083      189.67055      485.7293     
   9910000   112.25617      171.94211      440.32835    
   9920000   116.91219      175.63942      449.79683    
   9930000   109.67985      171.31656      438.72638    
   9940000   106.46429      177.39561      454.29429    
   9950000   113.12353      168.94065      432.64188    
   9960000   119.48915      189.69319      485.78729    
   9970000   112.90831      184.84928      473.38247    
   9980000   117.29919      191.77719      491.12421    
   9990000   120.20693      203.95988      522.32299    
  10000000   102.14699      185.07879      473.97022    
  10010000   98.280457      197.15395      504.89361    
  10020000   115.02733      180.32676      461.80069    
  10030000   107.20974      204.96083      524.88633    
  10040000   108.75703      160.72201      411.59469    
  10050000   103.52707      180.01026      460.99016    
  10060000   118.47261      159.72446      409.04006    
  10070000   109.81751      184.12213      471.52029    
  10080000   110.95636      156.21309      400.04773    
  10090000   106.22321      187.84397      481.0516     
  10100000   105.57758      164.48617      421.23436    
  10110000   80.882985      162.97772      417.37135    
  10120000   94.846134      194.4018       497.8456     
  10130000   80.154342      185.4471       474.91344    
  10140000   85.374161      178.44501      456.9817     
  10150000   72.513428      169.72009      434.63796    
  10160000   93.576111      173.48345      444.27558    
  10170000   98.14591       195.37332      500.3336     
  10180000   123.23408      192.00102      491.69743    
  10190000   122.55195      181.58988      465.03542    
  10200000   124.71394      167.92136      430.03157    
  10210000   123.75481      164.82831      422.11054    
  10220000   119.03891      180.6266       462.56855    
  10230000   121.27077      180.66177      462.65864    
  10240000   111.53928      190.59236      488.08997    
  10250000   107.51004      181.65489      465.20191    
  10260000   116.00794      165.41738      423.61909    
  10270000   120.57288      170.7953       437.39147    
  10280000   115.4928       159.4147       408.24677    
  10290000   117.52425      168.96709      432.7096     
  10300000   106.74195      178.84852      458.01507    
  10310000   110.59001      169.39854      433.81451    
  10320000   121.64344      187.08483      479.10752    
  10330000   115.23344      181.68503      465.27911    
  10340000   115.27752      179.08627      458.62391    
  10350000   113.00925      183.16188      469.06118    
  10360000   112.64662      185.4491       474.91856    
  10370000   108.3724       174.0437       445.71033    
  10380000   114.97846      187.92743      481.26533    
  10390000   121.70263      185.74019      475.664      
  10400000   109.03593      172.42125      441.55539    
  10410000   115.41338      161.36879      413.25103    
  10420000   96.244267      188.09358      481.69084    
  10430000   98.61541       163.65626      419.10903    
  10440000   97.252543      179.49046      459.65901    
  10450000   99.626248      195.21106      499.91807    
  10460000   124.10981      185.23084      474.35961    
  10470000   115.6193       191.06977      489.31258    
  10480000   115.08217      186.90225      478.63994    
  10490000   117.23342      165.89422      424.84025    
  10500000   123.08654      164.44573      421.1308     
  10510000   126.32142      175.87522      450.40071    
  10520000   144.71665      179.49321      459.66604    
  10530000   112.33395      179.28903      459.14316    
  10540000   105.46868      162.94179      417.27935    
  10550000   102.30548      185.92061      476.12603    
  10560000   91.469635      168.61655      431.81191    
  10570000   112.54797      173.766        444.99918    
  10580000   133.37453      184.95312      473.6484     
  10590000   124.58349      175.91088      450.49203    
  10600000   96.245988      171.82187      440.02044    
  10610000   103.54938      183.90448      470.96291    
  10620000   114.1986       169.88928      435.07123    
  10630000   104.70751      163.48833      418.67899    
  10640000   97.489688      168.33396      431.0882     
  10650000   114.20662      178.87271      458.07699    
  10660000   106.08105      166.87131      427.3425     
  10670000   113.70797      198.53805      508.43818    
  10680000   138.88946      190.51797      487.89948    
  10690000   123.79451      178.65702      457.52463    
  10700000   108.53071      182.18521      466.56002    
  10710000   123.65681      182.22948      466.67339    
  10720000   110.91314      197.75362      506.42933    
  10730000   108.61395      168.92406      432.5994     
  10740000   97.498258      189.714        485.84057    
  10750000   96.236068      178.09595      456.08779    
  10760000   104.0388       162.58618      416.36865    
  10770000   121.43714      203.47862      521.09055    
  10780000   125.70096      214.82488      550.14729    
  10790000   98.808792      190.30798      487.36171    
  10800000   132.8382       168.95217      432.6714     
  10810000   117.06434      175.47628      449.37904    
  10820000   117.52571      197.49973      505.77914    
  10830000   121.14808      202.42564      518.39394    
  10840000   110.72087      210.57568      539.26547    
  10850000   135.90115      170.08111      435.56249    
  10860000   117.13936      193.22588      494.83418    
  10870000   127.54047      186.56646      477.78001    
  10880000   104.1284       151.06718      386.86952    
  10890000   117.78122      189.35889      484.93117    
  10900000   102.8936       198.4361       508.17708    
  10910000   121.44616      209.75313      537.15899    
  10920000   113.08343      182.19302      466.58003    
  10930000   117.78713      184.51227      472.51941    
  10940000   95.841747      194.32637      497.65245    
  10950000   110.3393       161.50955      413.61151    
  10960000   98.101082      192.5705       493.15581    
  10970000   126.46413      173.9855       445.5613     
  10980000   117.60479      175.14894      448.54076    
  10990000   119.09073      190.58623      488.07429    
  11000000   110.32569      178.51229      457.15401    
  11010000   108.1491       192.762        493.64623    
  11020000   113.7227       195.28932      500.11847    
  11030000   120.62276      200.72961      514.05058    
  11040000   129.27797      177.44274      454.41497    
  11050000   140.75949      168.23353      430.83102    
  11060000   98.816876      188.8127       483.53243    
  11070000   100.18035      175.12047      448.46786    
  11080000   104.58361      181.5224       464.86263    
  11090000   107.49773      190.73988      488.46775    
  11100000   123.73422      194.93722      499.21678    
  11110000   119.02167      192.20537      492.22076    
  11120000   112.80443      163.0361       417.52086    
  11130000   126.58877      183.53253      470.01038    
  11140000   115.39445      177.37063      454.23032    
  11150000   112.90534      180.92795      463.34028    
  11160000   130.35614      207.7966       532.1485     
  11170000   125.89881      202.0983       517.55567    
  11180000   106.8997       199.05653      509.76597    
  11190000   117.31613      183.07269      468.83279    
  11200000   133.16072      163.82562      419.54275    
  11210000   117.40671      184.13494      471.55311    
  11220000   101.90777      182.24414      466.71094    
  11230000   115.00058      202.03521      517.39409    
  11240000   105.9034       198.84304      509.21923    
  11250000   119.57775      189.10857      484.29011    
  11260000   135.17281      175.42431      449.24596    
  11270000   121.08618      194.27588      497.52315    
  11280000   116.76201      174.39405      446.60755    
  11290000   108.4533       197.4325       505.60696    
  11300000   131.03343      190.85945      488.77397    
  11310000   128.02792      184.93682      473.60665    
  11320000   90.566992      190.79524      488.60953    
  11330000   122.45293      173.44173      444.16876    
  11340000   110.28684      210.37426      538.74966    
  11350000   118.6313       204.79317      524.45699    
  11360000   123.22625      180.26275      461.63676    
  11370000   106.02964      187.83989      481.04115    
  11380000   108.15239      195.36259      500.3061     
  11390000   104.01697      222.67348      570.24685    
  11400000   112.16911      184.7425       473.10901    
  11410000   135.01567      204.91545      524.77014    
  11420000   128.27061      202.75557      519.23888    
  11430000   117.99315      209.73404      537.11011    
  11440000   146.30368      211.32141      541.17521    
  11450000   118.57959      207.80691      532.1749     
  11460000   143.75586      178.09173      456.07698    
  11470000   109.35805      198.07198      507.24462    
  11480000   126.07562      191.80236      491.18869    
  11490000   88.525163      190.19893      487.08244    
  11500000   103.54549      179.29825      459.16676    
  11510000   143.36217      177.49903      454.55914    
  11520000   108.08148      198.72007      508.90432    
  11530000   125.75567      198.13738      507.4121     
  11540000   112.76306      223.65998      572.7732     
  11550000   144.58847      207.48095      531.34015    
  11560000   144.23037      190.57963      488.05738    
  11570000   141.99407      194.62733      498.42317    
  11580000   125.09323      190.64338      488.22063    
  11590000   126.37296      212.43496      544.02693    
  11600000   119.90367      199.77472      511.60519    
  11610000   120.20897      205.77497      526.97127    
  11620000   138.35266      200.9656       514.65491    
  11630000   143.52837      192.19319      492.18955    
  11640000   133.29894      191.29019      489.87705    
  11650000   128.76928      230.37371      589.96645    
  11660000   119.68593      217.07494      555.90949    
  11670000   99.070868      209.33         536.0754     
  11680000   127.74401      177.16465      453.70282    
  11690000   108.35186      181.60567      465.07588    
  11700000   108.50538      171.9054       440.23434    
  11710000   127.69157      230.26406      589.68565    
  11720000   104.94447      222.28419      569.24993    
  11730000   135.99821      208.21111      533.21003    
  11740000   124.47285      213.65913      547.16191    
  11750000   121.18744      208.90141      534.97783    
  11760000   108.69541      189.82747      486.13116    
  11770000   145.67337      195.51173      500.68803    
  11780000   141.89408      197.78166      506.50114    
  11790000   114.07755      194.83532      498.95582    
  11800000   118.59407      222.88174      570.7802     
  11810000   135.1271       198.84784      509.23153    
  11820000   113.6899       228.72216      585.73699    
  11830000   125.33039      198.79338      509.09207    
  11840000   121.15962      193.37724      495.22182    
  11850000   145.08059      213.18555      545.94912    
  11860000   118.33568      205.25721      525.64535    
  11870000   143.40832      202.89236      519.58917    
  11880000   155.80231      174.0884       445.82483    
  11890000   128.63494      194.57239      498.28249    
  11900000   129.11196      192.55496      493.11603    
  11910000   115.3212       197.45959      505.67635    
  11920000   124.32433      204.91617      524.77196    
  11930000   127.68775      185.37151      474.71984    
  11940000   130.65494      171.75435      439.84751    
  11950000   116.39781      170.34386      436.23538    
  11960000   130.11648      190.32835      487.41388    
  11970000   145.48477      178.53028      457.20008    
  11980000   127.63664      209.65029      536.89564    
  11990000   112.33958      187.49076      480.14706    
  12000000   86.930529      188.5871       482.95468    
Loop time of 641.648 on 1 procs for 8000000 steps with 132 atoms

Performance: 10772.258 ns/day, 0.002 hours/ns, 12467.891 timesteps/s, 1.646 Matom-step/s
99.3% CPU use with 1 MPI tasks x 1 OpenMP threads

MPI task timing breakdown:
Section |  min time  |  avg time  |  max time  |%varavg| %total
---------------------------------------------------------------
Pair    | 531.12     | 531.12     | 531.12     |   0.0 | 82.77
Bond    | 68.184     | 68.184     | 68.184     |   0.0 | 10.63
Neigh   | 5.4804     | 5.4804     | 5.4804     |   0.0 |  0.85
Comm    | 5.2593     | 5.2593     | 5.2593     |   0.0 |  0.82
Output  | 1.2192     | 1.2192     | 1.2192     |   0.0 |  0.19
Modify  | 28.723     | 28.723     | 28.723     |   0.0 |  4.48
Other   |            | 1.658      |            |       |  0.26

Nlocal:            132 ave         132 max         132 min
Histogram: 1 0 0 0 0 0 0 0 0 0
Nghost:             12 ave          12 max          12 min
Histogram: 1 0 0 0 0 0 0 0 0 0
Neighs:            502 ave         502 max         502 min
Histogram: 1 0 0 0 0 0 0 0 0 0

Total # of neighbors = 502
Ave neighs/atom = 3.8030303
Ave special neighs/atom = 5.9090909
Neighbor list builds = 24088
Dangerous builds = 0
Generated 0 of 6 mixed pair_coeff terms from geometric mixing rule
Setting up Verlet run ...
  Unit style    : real
  Current step  : 12000000
  Time step     : 10
Per MPI rank memory allocation (min/avg/max) = 9.638 | 9.638 | 9.638 Mbytes
   Step         PotEng         KinEng          Temp     
  12000000   86.930529      188.5871       482.95468    
  12010000   104.4622       205.61768      526.56849    
  12020000   156.67907      179.82722      460.52142    
  12030000   125.01857      237.53619      608.30893    
  12040000   135.97538      184.05925      471.35927    
  12050000   131.10667      173.39987      444.06154    
  12060000   123.85839      210.89603      540.08586    
  12070000   111.46832      217.16108      556.1301     
  12080000   123.01014      205.89043      527.26698    
  12090000   141.92149      188.25343      482.10019    
  12100000   176.32055      165.81199      424.62966    
  12110000   106.98784      216.50274      554.44415    
  12120000   118.22917      182.36936      467.03161    
  12130000   109.80353      200.84425      514.34414    
  12140000   132.29997      191.51813      490.46079    
  12150000   109.30095      203.22921      520.45183    
  12160000   126.99424      203.93507      522.25947    
  12170000   116.63599      170.98705      437.88254    
  12180000   104.09191      190.17335      487.01693    
  12190000   104.20873      194.35245      497.71923    
  12200000   153.39173      181.39566      464.53806    
  12210000   109.18199      209.08141      535.43877    
  12220000   132.97375      195.34103      500.25089    
  12230000   117.76156      185.44062      474.89682    
  12240000   140.07648      199.23089      510.21249    
  12250000   120.03695      215.06776      550.76929    
  12260000   128.82022      204.03002      522.50262    
  12270000   121.75487      244.44444      626.00033    
  12280000   122.62678      192.37879      492.66486    
  12290000   107.56524      187.00932      478.91414    
  12300000   130.37477      174.22381      446.17159    
  12310000   123.0805       200.36513      513.11717    
  12320000   113.18333      202.56404      518.74839    
  12330000   111.27315      190.20867      487.10738    
  12340000   121.52195      190.06289      486.73404    
  12350000   117.61456      210.42438      538.87799    
  12360000   128.31378      201.18884      515.22662    
  12370000   131.74064      193.68527      496.01064    
  12380000   126.68686      188.4051       482.48859    
  12390000   115.63843      185.70498      475.57384    
  12400000   115.67596      198.79309      509.09131    
  12410000   129.61306      168.38873      431.22846    
  12420000   119.77038      199.78737      511.63758    
  12430000   119.37768      186.58615      477.83045    
  12440000   124.6181       194.6047       498.36522    
  12450000   138.23866      150.41737      385.20542    
  12460000   108.46734      195.15747      499.78083    
  12470000   115.88327      221.65953      567.65021    
  12480000   120.50221      171.84821      440.08788    
  12490000   125.43752      185.94224      476.18143    
  12500000   121.25333      183.03284      468.73072    
  12510000   120.845        172.78825      442.49524    
  12520000   122.30547      191.2006       489.64764    
  12530000   131.79141      209.58026      536.7163     
  12540000   121.07754      228.30434      584.66698    
  12550000   129.12516      198.02651      507.12817    
  12560000   129.9042       194.21619      497.37027    
  12570000   118.07255      192.44422      492.83242    
  12580000   93.811774      199.75467      511.55382    
  12590000   104.079        197.50482      505.79216    
  12600000   104.19925      187.33803      479.75592    
  12610000   119.22235      182.61681      467.66532    
  12620000   119.97916      190.20535      487.09887    
  12630000   118.44113      203.18044      520.32691    
  12640000   133.57722      208.76743      534.6347     
  12650000   121.45468      218.33062      559.12519    
  12660000   119.98767      195.85655      501.57111    
  12670000   117.09931      207.08215      530.31886    
  12680000   138.19743      193.39857      495.27644    
  12690000   111.34031      176.6709       452.43835    
  12700000   123.81404      177.60011      454.81799    
  12710000   109.91689      185.34123      474.6423     
  12720000   109.61486      193.6954       496.03658    
  12730000   118.36403      187.0343       478.97811    
  12740000   107.86237      216.8927       555.44278    
  12750000   124.82394      216.09512      553.40026    
  12760000   97.983231      193.88312      496.51732    
  12770000   134.69258      170.01896      435.40335    
  12780000   132.83177      187.27997      479.60724    
  12790000   128.9163       179.39065      459.40339    
  12800000   117.75521      204.92309      524.78971    
  12810000   116.04061      192.35232      492.59708    
  12820000   121.17622      197.68414      506.25139    
  12830000   132.31495      227.12927      581.65774    
  12840000   124.02168      189.58434      485.50853    
  12850000   113.67058      187.0609       479.04623    
  12860000   117.67548      176.748        452.63582    
  12870000   121.82751      160.52276      411.08442    
  12880000   99.16934       192.36995      492.64223    
  12890000   126.04031      199.84476      511.78455    
  12900000   123.99156      182.87197      468.31876    
  12910000   120.49938      179.56473      459.84921    
  12920000   113.75438      195.90892      501.70521    
  12930000   117.54834      188.90663      483.77298    
  12940000   117.35215      192.8187       493.79145    
  12950000   121.34317      180.40117      461.99126    
  12960000   127.0019       202.10754      517.57931    
  12970000   102.82881      193.81918      496.35357    
  12980000   120.89193      223.47777      572.30658    
  12990000   115.6346       196.83895      504.08693    
  13000000   119.54976      192.39692      492.71128    
  13010000   113.23901      204.24502      523.05323    
  13020000   126.8868       207.87693      532.35422    
  13030000   124.84539      196.37956      502.91047    
  13040000   118.64917      179.59346      459.92278    
  13050000   126.01049      209.65325      536.90321    
  13060000   125.06691      209.60598      536.78215    
[...]
 404740000  -51.422138      104.92822      268.71179    
 404750000  -65.150571      118.23978      302.8015     
 404760000  -49.352866      114.34473      292.82663    
 404770000  -41.692079      121.60367      311.41612    
 404780000  -38.264066      125.36179      321.04032    
 404790000  -50.871775      118.10405      302.45391    
 404800000  -41.255166      120.57936      308.79296    
 404810000  -63.341651      126.2255       323.25221    
 404820000  -49.212472      124.82088      319.6551     
 404830000  -49.286846      115.98409      297.02487    
 404840000  -50.885161      127.92302      327.59941    
 404850000  -32.226793      121.73779      311.75959    
 404860000  -32.461877      120.23351      307.90727    
 404870000  -48.92389       107.86964      276.2445     
 404880000  -55.882638      113.38479      290.3683     
 404890000  -60.942793      111.80302      286.31753    
 404900000  -56.791042      120.90674      309.63134    
 404910000  -38.597164      116.56181      298.50435    
 404920000  -42.595949      107.05913      274.16884    
 404930000  -55.067761      113.76502      291.34205    
 404940000  -62.652822      111.17899      284.71945    
 404950000  -57.533149      121.26946      310.56024    
 404960000  -63.174978      119.66426      306.44946    
 404970000  -45.939253      107.50064      275.29953    
 404980000  -54.733023      117.72688      301.488      
 404990000  -45.194528      121.79182      311.89795    
 405000000  -36.692653      112.68652      288.5801     
 405010000  -29.410842      112.74896      288.74       
 405020000  -41.762576      115.80682      296.5709     
 405030000  -50.825683      108.91796      278.92915    
 405040000  -58.483277      127.21249      325.77981    
 405050000  -50.983282      132.10804      338.31687    
 405060000  -61.095355      102.84177      263.36856    
 405070000  -60.529588      113.97006      291.86713    
 405080000  -42.24279       104.5051       267.62821    
 405090000  -70.242949      120.3576       308.22505    
 405100000  -64.636317      117.71118      301.44779    
 405110000  -40.86244       106.80259      273.51188    
 405120000  -42.674757      118.50901      303.49096    
 405130000  -58.563766      133.34296      341.47939    
 405140000  -54.315339      112.78709      288.83765    
 405150000  -45.707051      117.17225      300.06764    
 405160000  -50.112791      118.19137      302.67752    
 405170000  -60.059257      118.00102      302.19006    
 405180000  -66.921921      116.97363      299.55899    
 405190000  -52.311806      119.71441      306.57788    
 405200000  -58.417637      109.17896      279.59755    
 405210000  -68.144342      119.0486       304.87281    
 405220000  -36.802892      107.16535      274.44088    
 405230000  -43.917094      109.10032      279.39615    
 405240000  -64.684527      122.03445      312.51931    
 405250000  -45.005201      106.9869       273.98387    
 405260000  -63.850687      116.93907      299.47049    
 405270000  -67.300356      120.02241      307.36665    
 405280000  -52.405371      109.99329      281.68297    
 405290000  -36.317615      120.91873      309.66205    
 405300000  -35.436139      120.58629      308.8107     
 405310000  -59.271566      120.50445      308.60112    
 405320000  -56.901227      120.00304      307.31705    
 405330000  -76.923752      114.29517      292.69971    
 405340000  -52.892221      119.54104      306.1339     
 405350000  -58.065987      119.89354      307.03663    
 405360000  -58.862456      118.41679      303.2548     
 405370000  -67.33491       100.44542      257.23173    
 405380000  -62.396259      114.63417      293.56786    
 405390000  -65.263052      106.36501      272.39127    
 405400000  -76.957031      115.17794      294.9604     
 405410000  -74.863614      108.57503      278.05092    
 405420000  -73.29796       107.4759       275.23615    
 405430000  -75.238259      117.52367      300.96761    
 405440000  -43.873007      111.52142      285.59637    
 405450000  -50.816044      121.23328      310.46757    
 405460000  -65.390136      111.30212      285.03477    
 405470000  -65.647056      111.43564      285.37669    
 405480000  -63.964377      110.84174      283.85577    
 405490000  -59.059085      116.00407      297.07605    
 405500000  -45.200894      102.54824      262.61687    
 405510000  -24.133029      111.45462      285.42531    
 405520000  -30.055343      124.74493      319.46061    
 405530000  -28.301728      120.88679      309.58026    
 405540000  -35.773725      118.05984      302.34067    
 405550000  -58.454723      126.22192      323.24304    
 405560000  -30.267921      124.9442       319.97092    
 405570000  -41.557534      121.63735      311.50236    
 405580000  -25.530482      123.07979      315.19632    
 405590000  -30.314752      114.44857      293.09255    
 405600000  -37.858808      118.47781      303.41108    
 405610000  -57.250603      113.1614       289.79621    
 405620000  -39.710471      116.95955      299.52295    
 405630000  -58.428847      116.75453      298.99791    
 405640000  -50.013299      114.74966      293.86362    
 405650000  -66.482075      110.10807      281.97692    
 405660000  -63.232645      129.11913      330.66253    
 405670000  -64.247318      116.21536      297.61713    
 405680000  -62.274056      109.26056      279.80651    
 405690000  -71.683117      111.3548       285.16967    
 405700000  -75.821474      105.17042      269.33204    
 405710000  -65.450223      118.14168      302.55028    
 405720000  -42.32061       109.38535      280.1261     
 405730000  -67.487801      113.37175      290.33491    
 405740000  -62.090797      108.06444      276.74335    
 405750000  -58.776851      116.38794      298.05911    
 405760000  -46.308555      111.33401      285.11644    
 405770000  -62.175631      130.49834      334.19458    
 405780000  -46.279912      115.79164      296.53204    
 405790000  -36.271692      117.29995      300.39469    
 405800000  -48.414667      124.43706      318.67218    
 405810000  -52.124535      118.25306      302.8355     
 405820000  -36.257799      124.08043      317.75887    
 405830000  -54.711544      104.74513      268.2429     
 405840000  -70.30354       124.41628      318.61895    
 405850000  -62.442343      119.33323      305.60173    
 405860000  -81.826021      117.40194      300.65585    
 405870000  -78.897517      108.08112      276.78608    
 405880000  -76.216008      105.92605      271.26715    
 405890000  -63.518921      130.97819      335.42342    
 405900000  -50.354204      123.64705      316.64903    
 405910000  -68.677045      122.03292      312.51538    
 405920000  -83.679251      105.81241      270.97613    
 405930000  -92.938917      117.8406       301.77923    
 405940000  -88.884596      121.62158      311.46198    
 405950000  -81.307755      125.32221      320.93897    
 405960000  -60.065242      108.89531      278.87113    
 405970000  -57.486467      122.56634      313.88143    
 405980000  -59.59355       119.21452      305.29773    
 405990000  -62.044487      111.82325      286.36934    
 406000000  -39.302003      102.615        262.78783    
 406010000  -63.270758      113.1243       289.70122    
 406020000  -66.819746      118.16162      302.60133    
 406030000  -51.735047      112.89859      289.12317    
 406040000  -61.251273      124.5244       318.89583    
 406050000  -66.987631      114.73177      293.8178     
 406060000  -91.58157       116.51543      298.38558    
 406070000  -85.653899      122.55027      313.84027    
 406080000  -88.836844      117.96723      302.10353    
 406090000  -77.981841      119.3842       305.73226    
 406100000  -95.039045      127.65314      326.90828    
 406110000  -85.513009      114.55812      293.3731     
 406120000  -71.403547      124.83052      319.67978    
 406130000  -79.382247      122.71479      314.2616     
 406140000  -68.691794      97.710951      250.229      
 406150000  -72.45093       107.03656      274.11106    
 406160000  -70.616391      119.34961      305.64366    
 406170000  -61.424646      118.20819      302.72059    
 406180000  -56.149839      121.84522      312.0347     
 406190000  -56.697846      111.01691      284.30438    
 406200000  -53.844187      119.39331      305.75559    
 406210000  -47.806243      118.33099      303.03507    
 406220000  -56.75534       127.07025      325.41555    
 406230000  -48.086933      120.35712      308.22381    
 406240000  -61.939842      95.805371      245.34898    
 406250000  -60.097881      107.10696      274.29135    
 406260000  -64.850725      116.65109      298.73301    
 406270000  -81.591707      116.86971      299.29288    
 406280000  -69.850276      110.61413      283.27288    
 406290000  -70.833294      127.6963       327.0188     
 406300000  -70.50364       128.16444      328.21767    
 406310000  -59.998403      113.42399      290.4687     
 406320000  -63.247573      116.54559      298.46283    
 406330000  -51.296871      100.52555      257.43693    
 406340000  -68.585673      105.67623      270.62737    
 406350000  -74.485176      111.94675      286.68561    
 406360000  -72.647762      120.5297       308.66578    
 406370000  -60.181161      113.71571      291.21575    
 406380000  -72.81408       119.9645       307.21835    
 406390000  -47.634425      112.89608      289.11675    
 406400000  -57.633736      107.0251       274.0817     
 406410000  -58.975368      124.65831      319.23878    
 406420000  -44.913422      113.34336      290.2622     
 406430000  -44.115558      115.99031      297.04081    
 406440000  -29.078497      120.012        307.33999    
 406450000  -19.173837      110.662        283.39548    
 406460000  -59.436116      128.30396      328.57495    
 406470000  -34.878086      98.435373      252.08418    
 406480000  -48.14015       100.37681      257.05602    
 406490000  -51.941883      129.91119      332.69094    
 406500000  -59.878691      117.75677      301.56455    
 406510000  -57.53377       109.12292      279.45403    
 406520000  -60.478992      105.05081      269.02572    
 406530000  -68.408918      112.71053      288.64159    
 406540000  -69.904895      106.31112      272.25326    
 406550000  -62.433679      115.58998      296.0156     
 406560000  -59.567151      112.43598      287.93847    
 406570000  -76.533449      109.06382      279.30268    
 406580000  -46.588613      106.41953      272.53089    
 406590000  -51.190105      129.97718      332.85992    
 406600000  -47.021091      112.804        288.88094    
 406610000  -35.737234      116.21119      297.60647    
 406620000  -44.219698      110.8951       283.99242    
 406630000  -56.149705      119.72884      306.61485    
 406640000  -63.032344      113.3854       290.36985    
 406650000  -46.587996      116.70645      298.87477    
 406660000  -36.366399      107.93231      276.40499    
 406670000  -44.913874      107.60016      275.55439    
 406680000  -49.583208      111.96367      286.72895    
 406690000  -58.441719      98.581029      252.45719    
 406700000  -70.6923        99.872098      255.76351    
 406710000  -68.010891      121.97681      312.37169    
 406720000  -55.398484      124.5495       318.96012    
 406730000  -54.319397      115.9039       296.81953    
 406740000  -60.81825       117.57027      301.08694    
 406750000  -58.910277      111.41806      285.33167    
 406760000  -61.95001       100.11745      256.39182    
 406770000  -58.510313      103.8032       265.83071    
 406780000  -36.482073      99.577793      255.00982    
 406790000  -61.269245      123.33704      315.85513    
 406800000  -56.152868      122.15125      312.81842    
 406810000  -47.799373      118.02208      302.24398    
 406820000  -37.876884      124.26599      318.23407    
 406830000  -35.764101      132.83976      340.19074    
 406840000  -43.680424      124.51262      318.86568    
 406850000  -69.923321      109.3462       280.02583    
 406860000  -71.7532        108.28996      277.3209     
 406870000  -68.519776      122.26903      313.12003    
 406880000  -50.312311      117.32939      300.47008    
 406890000  -32.721529      123.43109      316.09597    
 406900000  -44.491835      123.66633      316.69842    
 406910000  -49.467615      115.16409      294.92494    
 406920000  -56.500923      121.9018       312.17959    
 406930000  -56.176468      128.01556      327.83639    
 406940000  -58.326654      102.21988      261.77596    
 406950000  -52.490007      105.08817      269.12139    
 406960000  -48.138273      107.43488      275.13112    
 406970000  -32.135064      107.6146       275.59136    
 406980000  -45.188984      127.04762      325.35757    
 406990000  -47.239041      137.7202       352.68911    
 407000000  -46.359166      120.59453      308.83179    
 407010000  -38.996993      134.52796      344.51406    
 407020000  -27.454975      113.7617       291.33353    
 407030000  -36.051949      116.24513      297.69338    
 407040000  -39.53836       121.05599      310.01355    
 407050000  -51.97177       111.89731      286.559      
 407060000  -55.455355      118.94301      304.60241    
 407070000  -55.077583      114.34721      292.83298    
 407080000  -64.516333      116.93179      299.45185    
 407090000  -42.472546      110.23583      282.30409    
 407100000  -35.972329      111.64036      285.90097    
 407110000  -35.875625      126.4062       323.71497    
 407120000  -42.259377      121.24527      310.49829    
 407130000  -63.632635      125.53161      321.47523    
 407140000  -60.11263       112.47584      288.04056    
 407150000  -51.624065      107.08804      274.24288    
 407160000  -41.765824      114.72907      293.81088    
 407170000  -39.760301      123.06125      315.14885    
 407180000  -47.329507      115.51304      295.81857    
 407190000  -43.657858      124.31623      318.36273    
 407200000  -42.173341      123.99988      317.5526     
 407210000  -36.06319       122.96774      314.90938    
 407220000  -35.03775       125.31258      320.91431    
 407230000  -59.173446      129.25866      331.01986    
 407240000  -38.652365      122.12353      312.74744    
 407250000  -66.848551      117.54093      301.0118     
 407260000  -60.635881      109.5582       280.56874    
 407270000  -69.374663      124.54791      318.95605    
 407280000  -45.236224      112.42061      287.89911    
 407290000  -61.332062      114.11658      292.24236    
 407300000  -56.485776      118.70905      304.00325    
 407310000  -61.854936      113.03018      289.46018    
 407320000  -64.620707      116.20509      297.59083    
 407330000  -63.233343      110.31712      282.51227    
 407340000  -61.078253      119.55763      306.17639    
 407350000  -75.956171      113.75091      291.3059     
 407360000  -67.015731      119.34948      305.64333    
 407370000  -56.316114      118.76502      304.14659    
 407380000  -51.307852      130.42971      334.01882    
 407390000  -55.823117      119.27444      305.45118    
 407400000  -62.726064      107.89336      276.30523    
 407410000  -66.112326      109.39628      280.15409    
 407420000  -54.221039      102.53225      262.57591    
 407430000  -55.492181      118.42272      303.26999    
 407440000  -47.495805      112.78581      288.83435    
 407450000  -48.452114      114.20467      292.46793    
 407460000  -47.352188      115.95732      296.95631    
 407470000  -53.165956      113.86973      291.61018    
 407480000  -57.7221        109.20212      279.65685    
 407490000  -43.676898      111.37109      285.21139    
 407500000  -39.306233      129.51346      331.67238    
 407510000  -50.223424      123.49229      316.25271    
 407520000  -43.052482      120.72047      309.15431    
 407530000  -39.821906      113.62114      290.97356    
 407540000  -56.671256      122.25493      313.08394    
 407550000  -28.043137      106.65602      273.13652    
 407560000  -52.377526      112.28353      287.54806    
 407570000  -57.436964      125.77786      322.10585    
 407580000  -27.396609      106.65751      273.14035    
 407590000  -45.855671      127.70999      327.05384    
 407600000  -56.188688      122.73056      314.30197    
 407610000  -35.554176      115.50274      295.79218    
 407620000  -50.666988      129.54907      331.76357    
 407630000  -42.314643      120.96151      309.7716     
 407640000  -52.417617      126.92078      325.03276    
 407650000  -43.899979      127.89019      327.51534    
 407660000  -50.16258       118.49963      303.46696    
 407670000  -40.184166      106.5714       272.91982    
 407680000  -33.857762      114.56662      293.39487    
 407690000  -42.406324      114.62407      293.54198    
 407700000  -68.376116      120.61669      308.88855    
 407710000  -56.3413        109.43797      280.26085    
 407720000  -42.683917      116.59512      298.58967    
 407730000  -52.992513      114.93323      294.33372    
 407740000  -43.91108       109.7217       280.98746    
 407750000  -46.118187      114.69625      293.72684    
 407760000  -43.758849      109.4056       280.17795    
 407770000  -36.346072      99.588931      255.03834    
 407780000  -58.474924      114.07871      292.14538    
 407790000  -49.878373      119.71777      306.5865     
 407800000  -52.686877      122.23944      313.04426    
 407810000  -51.090164      116.0816       297.27458    
 407820000  -49.789684      127.89388      327.52479    
 407830000  -45.105062      99.509719      254.83549    
 407840000  -59.00817       113.7973       291.4247     
 407850000  -48.019033      130.1314       333.25486    
 407860000  -56.874083      121.17892      310.32837    
 407870000  -43.574935      125.81619      322.20401    
 407880000  -37.298225      112.75076      288.74461    
 407890000  -33.389003      103.34494      264.65714    
 407900000  -30.368455      105.03915      268.99586    
 407910000  -48.094219      121.36255      310.79862    
 407920000  -53.146695      126.86372      324.88662    
 407930000  -51.25756       131.86729      337.70033    
 407940000  -54.359858      120.95172      309.74653    
 407950000  -58.533697      108.05341      276.71512    
 407960000  -47.762823      107.92341      276.3822     
 407970000  -65.019739      119.83484      306.88631    
 407980000  -64.872712      118.55129      303.59925    
 407990000  -57.43303       112.67566      288.55229    
 408000000  -52.371215      116.33709      297.92887    
Loop time of 562.211 on 1 procs for 4000000 steps with 132 atoms

Performance: 6147.158 ns/day, 0.004 hours/ns, 7114.766 timesteps/s, 939.149 katom-step/s
99.3% CPU use with 1 MPI tasks x 1 OpenMP threads

MPI task timing breakdown:
Section |  min time  |  avg time  |  max time  |%varavg| %total
---------------------------------------------------------------
Pair    | 497.28     | 497.28     | 497.28     |   0.0 | 88.45
Bond    | 45.739     | 45.739     | 45.739     |   0.0 |  8.14
Neigh   | 2.3041     | 2.3041     | 2.3041     |   0.0 |  0.41
Comm    | 2.8082     | 2.8082     | 2.8082     |   0.0 |  0.50
Output  | 0.17854    | 0.17854    | 0.17854    |   0.0 |  0.03
Modify  | 12.887     | 12.887     | 12.887     |   0.0 |  2.29
Other   |            | 1.018      |            |       |  0.18

Nlocal:            132 ave         132 max         132 min
Histogram: 1 0 0 0 0 0 0 0 0 0
Nghost:             63 ave          63 max          63 min
Histogram: 1 0 0 0 0 0 0 0 0 0
Neighs:           1014 ave        1014 max        1014 min
Histogram: 1 0 0 0 0 0 0 0 0 0

Total # of neighbors = 1014
Ave neighs/atom = 7.6818182
Ave special neighs/atom = 5.9090909
Neighbor list builds = 8734
Dangerous builds = 0
System init for write_data ...
Generated 0 of 6 mixed pair_coeff terms from geometric mixing rule
Total wall time: 10:53:02
