LAMMPS (29 Aug 2024)
  using 1 OpenMP thread(s) per MPI task
  using 1 OpenMP thread(s) per MPI task
Reading data file ...
  orthogonal box = (-500.6 -500.6 -500.6) to (500.6 500.6 500.6)
  1 by 1 by 1 MPI processor grid
  reading atoms ...
  117 atoms
  scanning bonds ...
  1 = max bonds/atom
  scanning angles ...
  1 = max angles/atom
  orthogonal box = (-500.6 -500.6 -500.6) to (500.6 500.6 500.6)
  1 by 1 by 1 MPI processor grid
  reading bonds ...
  116 bonds
  reading angles ...
  115 angles
Finding 1-2 1-3 1-4 neighbors ...
  special bond factors lj:    0        0        0       
  special bond factors coul:  0        0        0       
     2 = max # of 1-2 neighbors
     2 = max # of 1-3 neighbors
     4 = max # of 1-4 neighbors
     6 = max # of special neighbors
  special bonds CPU = 0.000 seconds
  read_data CPU = 0.007 seconds
Finding 1-2 1-3 1-4 neighbors ...
  special bond factors lj:    0        0        1       
  special bond factors coul:  0        0        0       
     2 = max # of 1-2 neighbors
     2 = max # of 1-3 neighbors
     4 = max # of 1-4 neighbors
     6 = max # of special neighbors
  special bonds CPU = 0.000 seconds

CITE-CITE-CITE-CITE-CITE-CITE-CITE-CITE-CITE-CITE-CITE-CITE-CITE

Your simulation uses code contributions which should be cited:
- Type Label Framework: https://doi.org/10.1021/acs.jpcb.3c08419
The log file lists these citations in BibTeX format.

CITE-CITE-CITE-CITE-CITE-CITE-CITE-CITE-CITE-CITE-CITE-CITE-CITE

Generated 0 of 6 mixed pair_coeff terms from geometric mixing rule
Neighbor list info ...
  update: every = 10 steps, delay = 0 steps, check = yes
  max neighbors/atom: 2000, page size: 100000
  master list distance cutoff = 33
  ghost atom cutoff = 33
  binsize = 16.5, bins = 61 61 61
  2 neighbor lists, perpetual/occasional/extra = 2 0 0
  (1) pair lj/cut, perpetual, trim from (2)
      attributes: half, newton on, cut 25
      pair build: trim
      stencil: none
      bin: none
  (2) pair base/rna, perpetual
      attributes: half, newton on
      pair build: half/bin/newton
      stencil: half/bin/3d
      bin: standard
Setting up Verlet run ...
  Unit style    : real
  Current step  : 0
  Time step     : 10
Per MPI rank memory allocation (min/avg/max) = 8.371 | 8.371 | 8.371 Mbytes
   Step         PotEng         KinEng          Temp     
         0   157.63951      0              0            
     10000   55.077116      102.39013      296.11867    
     20000   63.437513      104.72421      302.86897    
     30000   58.07136       97.349026      281.53949    
     40000   79.144019      122.79506      355.13103    
     50000   48.944575      99.290536      287.15446    
     60000   18.73304       110.75148      320.30023    
     70000   14.205366      119.15204      344.59519    
     80000   18.033113      101.33222      293.05914    
     90000   12.140666      98.126288      283.78738    
    100000   11.846304      103.67865      299.84515    
    110000   10.125662      110.95617      320.8922     
    120000   4.9316012      98.584693      285.11312    
    130000  -10.709073      114.25648      330.4369     
    140000  -11.568772      102.05658      295.15402    
    150000  -34.399361      118.11844      341.60595    
    160000  -25.178801      108.22119      312.98247    
    170000  -24.636306      85.858985      248.30957    
    180000  -41.242567      108.96208      315.12516    
    190000  -37.697548      113.17149      327.29905    
    200000  -32.837376      107.6795       311.41587    
    210000  -54.650933      108.67736      314.30174    
    220000  -60.0439        113.16379      327.27679    
    230000  -63.224932      98.34583       284.42231    
    240000  -59.873536      91.816103      265.53793    
    250000  -46.134228      110.23067      318.79403    
    260000  -69.479092      111.74904      323.18522    
    270000  -48.51912       98.902734      286.03291    
    280000  -74.972713      112.07905      324.13965    
    290000  -74.466956      109.95588      317.99931    
    300000  -81.309969      112.56606      325.54811    
    310000  -83.619355      90.573149      261.94323    
    320000  -82.851837      93.578471      270.63481    
    330000  -67.749651      94.716381      273.92572    
    340000  -58.289077      89.844502      259.83594    
    350000  -54.272143      100.59669      290.93195    
    360000  -61.280016      112.51638      325.40443    
    370000  -75.699126      105.88279      306.21968    
    380000  -65.713791      92.525726      267.5902     
    390000  -70.347525      102.07028      295.19365    
    400000  -72.587705      105.08401      303.90955    
    410000  -72.822814      108.19772      312.91461    
    420000  -54.460457      103.77137      300.11332    
    430000  -68.69538       98.568016      285.06489    
    440000  -59.499217      101.54612      293.67775    
    450000  -69.825836      95.17633       275.25592    
    460000  -63.709186      106.70723      308.604      
    470000  -54.743282      118.32287      342.19717    
    480000  -52.267948      104.52843      302.30279    
    490000  -61.501657      118.87967      343.80747    
    500000  -51.082334      116.15203      335.91895    
    510000  -61.7298        110.33699      319.1015     
    520000  -61.489316      99.142447      286.72617    
    530000  -53.885267      95.647127      276.61749    
    540000  -56.798353      106.23873      307.24906    
    550000  -68.664783      100.16121      289.6725     
    560000  -78.388407      114.25672      330.43761    
    570000  -62.183664      108.10107      312.63506    
    580000  -51.085531      97.233653      281.20583    
    590000  -67.031752      110.94224      320.85191    
    600000  -59.42632       103.25783      298.62813    
    610000  -70.928233      121.4033       351.10597    
    620000  -66.328626      113.10502      327.10683    
    630000  -56.885243      114.0286       329.77786    
    640000  -49.391042      103.97053      300.68929    
    650000  -66.931111      103.20937      298.48797    
    660000  -64.609073      100.12698      289.5735     
    670000  -74.042957      99.761289      288.51591    
    680000  -73.819679      96.797959      279.94577    
    690000  -82.229934      93.255041      269.69943    
    700000  -72.695156      99.155439      286.76375    
    710000  -66.231401      105.20768      304.26722    
    720000  -76.876115      117.50679      339.83701    
    730000  -53.739705      95.238176      275.43478    
    740000  -50.516759      100.65742      291.10757    
    750000  -55.333814      112.49633      325.34644    
    760000  -41.764002      103.5064       299.34699    
    770000  -59.119923      98.147322      283.84821    
    780000  -61.73764       97.881729      283.0801     
    790000  -42.364162      114.52797      331.22207    
    800000  -48.999494      114.07387      329.90877    
    810000  -66.146395      117.5796       340.04758    
    820000  -63.254119      112.6225       325.71135    
    830000  -65.763034      107.06312      309.63325    
    840000  -61.747064      102.55941      296.60826    
    850000  -64.726079      100.92596      291.88421    
    860000  -66.877516      100.32502      290.14626    
    870000  -61.584755      106.26598      307.32789    
    880000  -65.978339      112.12932      324.28502    
    890000  -60.173497      102.80923      297.33074    
    900000  -76.321548      105.61284      305.43897    
    910000  -51.890462      105.0275       303.74613    
    920000  -81.354465      111.21572      321.64284    
    930000  -72.300599      99.412936      287.50845    
    940000  -46.819703      95.695546      276.75752    
    950000  -62.484432      118.08687      341.51463    
    960000  -49.934624      114.2777       330.49829    
    970000  -63.985755      111.77591      323.26296    
    980000  -73.732712      110.31849      319.04798    
    990000  -76.322867      97.621481      282.32745    
   1000000  -70.275753      105.38039      304.76669    
   1010000  -101.90636      123.37382      356.80484    
   1020000  -77.124259      102.28323      295.80951    
   1030000  -76.060637      100.75462      291.38869    
   1040000  -66.926731      97.366337      281.58955    
   1050000  -55.049914      93.638351      270.80799    
   1060000  -77.240701      103.43916      299.15253    
   1070000  -63.860175      102.09479      295.26453    
   1080000  -92.437223      100.50179      290.65747    
   1090000  -82.235354      90.570173      261.93462    
   1100000  -82.519004      109.67101      317.17545    
   1110000  -80.98022       99.277402      287.11647    
   1120000  -62.659675      88.107491      254.81239    
   1130000  -68.31173       93.009746      268.99002    
   1140000  -75.369676      89.676906      259.35124    
   1150000  -83.5723        101.39881      293.25171    
   1160000  -88.479509      103.98714      300.73732    
   1170000  -80.143779      88.14393       254.91778    
   1180000  -68.762644      103.82636      300.27235    
   1190000  -65.489243      102.57859      296.66371    
   1200000  -77.752437      101.01824      292.15109    
   1210000  -76.701552      100.89395      291.79162    
   1220000  -78.313694      102.03404      295.08885    
   1230000  -72.864867      87.709249      253.66065    
   1240000  -69.208989      96.46477       278.98216    
   1250000  -78.732588      106.09954      306.84652    
   1260000  -75.33549       100.62112      291.00259    
   1270000  -69.396924      91.944875      265.91035    
   1280000  -84.57077       106.54797      308.14341    
   1290000  -85.790641      112.93282      326.60881    
   1300000  -71.16424       101.0404       292.21516    
   1310000  -89.378037      111.82648      323.40921    
   1320000  -71.700625      105.32331      304.60162    
   1330000  -56.308486      102.39111      296.1215     
   1340000  -68.381191      105.51737      305.16286    
   1350000  -76.597805      111.82208      323.39647    
   1360000  -78.453105      109.9869       318.08901    
   1370000  -77.81221       105.04856      303.80704    
   1380000  -61.041         105.22845      304.32729    
   1390000  -70.743459      98.523702      284.93673    
   1400000  -74.882756      102.1384       295.39067    
   1410000  -75.563441      112.00744      323.93253    
   1420000  -88.306408      102.77218      297.22359    
   1430000  -84.895051      109.69007      317.23056    
   1440000  -96.59736       102.05044      295.13628    
   1450000  -89.987298      105.16278      304.13735    
   1460000  -69.972011      96.58513       279.33025    
   1470000  -69.627397      95.474412      276.11799    
   1480000  -69.706238      99.835124      288.72944    
   1490000  -67.963196      109.8899       317.80849    
   1500000  -84.066802      101.91779      294.75264    
   1510000  -91.194769      106.52005      308.06268    
   1520000  -91.245876      113.2549       327.54028    
   1530000  -83.356939      95.71102       276.80227    
   1540000  -73.410966      115.90351      335.20021    
   1550000  -57.254927      99.81963       288.68463    
   1560000  -85.119108      106.68505      308.53986    
   1570000  -94.589457      90.536925      261.83847    
   1580000  -82.688429      89.762765      259.59955    
   1590000  -91.400978      94.941377      274.57642    
   1600000  -92.733407      101.57636      293.76521    
   1610000  -67.39628       97.526547      282.05289    
   1620000  -86.601322      104.69491      302.78425    
   1630000  -69.465736      96.722712      279.72815    
   1640000  -81.50941       91.138123      263.57717    
   1650000  -78.269771      96.772089      279.87095    
   1660000  -84.166743      105.65902      305.57252    
   1670000  -88.846961      115.43863      333.85576    
   1680000  -63.635863      94.044423      271.98237    
   1690000  -80.051198      103.77059      300.11105    
   1700000  -95.212697      108.19646      312.91096    
   1710000  -79.909627      99.208106      286.91607    
   1720000  -80.905393      105.04541      303.7979     
   1730000  -87.727766      117.84011      340.80099    
   1740000  -89.729334      96.557141      279.24931    
   1750000  -84.735508      101.70882      294.14828    
   1760000  -58.003084      100.68388      291.18411    
   1770000  -70.849333      99.692308      288.31641    
   1780000  -64.669486      106.96197      309.34074    
   1790000  -70.504201      108.51376      313.82859    
   1800000  -71.753839      103.50097      299.3313     
   1810000  -89.920249      112.33552      324.88138    
   1820000  -71.757101      103.137        298.27867    
   1830000  -87.59077       113.40403      327.97156    
   1840000  -81.252226      96.867093      280.14571    
   1850000  -88.395445      116.56484      337.11283    
   1860000  -74.869057      92.647145      267.94136    
   1870000  -88.86762       93.884524      271.51993    
   1880000  -107.35934      108.13418      312.73082    
   1890000  -75.727985      103.3608       298.92593    
   1900000  -66.402873      116.82622      337.86874    
   1910000  -72.550307      119.0007       344.1575     
   1920000  -62.025254      107.7468       311.6105     
   1930000  -78.858576      125.3806       362.60857    
   1940000  -56.218787      90.57786       261.95685    
   1950000  -70.150768      104.36552      301.83164    
   1960000  -54.44442       99.047918      286.45279    
   1970000  -76.958941      97.652604      282.41746    
   1980000  -66.206035      99.010544      286.3447     
   1990000  -61.343064      99.192134      286.86987    
   2000000  -61.762652      107.51944      310.95296    
   2010000  -79.570173      107.72535      311.54846    
   2020000  -59.831271      106.26868      307.3357     
   2030000  -60.399779      118.74868      343.42864    
   2040000  -50.272483      115.44895      333.88561    
   2050000  -58.47822       101.68155      294.06943    
   2060000  -66.251613      108.78698      314.61878    
   2070000  -58.081373      96.725387      279.73589    
   2080000  -69.024356      104.57768      302.44521    
   2090000  -74.580966      103.20266      298.46857    
   2100000  -52.935507      97.812798      282.88075    
   2110000  -65.363681      99.685094      288.29555    
   2120000  -61.260913      93.055118      269.12124    
   2130000  -77.138014      104.66549      302.69916    
   2140000  -67.561055      102.20952      295.59633    
   2150000  -72.042607      107.87601      311.9842     
   2160000  -82.772597      108.94987      315.08985    
   2170000  -51.0569        94.583214      273.54059    
   2180000  -66.597756      100.77169      291.43805    
   2190000  -81.264948      108.46919      313.69969    
   2200000  -64.334097      92.900996      268.67551    
   2210000  -60.715325      92.599606      267.80387    
   2220000  -63.573822      101.71841      294.17601    
   2230000  -58.335135      103.92379      300.55413    
   2240000  -55.96731       100.04059      289.32367    
   2250000  -55.938074      119.19502      344.71947    
   2260000  -31.386922      115.27211      333.37417    
   2270000  -47.478029      108.31987      313.26785    
   2280000  -42.563807      95.29823       275.60846    
   2290000  -55.149305      100.93471      291.90952    
   2300000  -69.277121      101.9196       294.75787    
   2310000  -68.497214      95.847749      277.1977     
   2320000  -75.858415      108.26402      313.10633    
   2330000  -62.786596      93.262807      269.72189    
   2340000  -55.710236      93.72599       271.06144    
   2350000  -60.122633      106.65324      308.44787    
   2360000  -71.630589      105.31976      304.59135    
   2370000  -74.683302      100.2102       289.81418    
   2380000  -75.959795      107.16569      309.92991    
   2390000  -62.04721       95.186912      275.28652    
   2400000  -60.078572      99.254331      287.04975    
   2410000  -52.366839      109.91692      317.88662    
   2420000  -53.745286      98.136792      283.81776    
   2430000  -73.315506      98.989725      286.2845     
   2440000  -56.798716      109.76853      317.45747    
   2450000  -67.429247      99.212356      286.92836    
   2460000  -77.271461      112.31122      324.81109    
   2470000  -69.553535      107.93434      312.1529     
   2480000  -85.528104      105.00987      303.69512    
   2490000  -69.857765      99.510478      287.79055    
   2500000  -57.844997      102.86185      297.48293    
   2510000  -67.067457      103.93223      300.57854    
   2520000  -79.817288      102.05815      295.15857    
   2530000  -67.443933      109.0405       315.35196    
   2540000  -77.249972      96.469044      278.99453    
   2550000  -82.072157      103.04698      298.01834    
   2560000  -75.282438      103.9129       300.52261    
   2570000  -81.329383      97.595145      282.25128    
   2580000  -87.876053      103.72477      299.97854    
   2590000  -69.29742       99.113454      286.64233    
   2600000  -56.375197      83.156945      240.4951     
   2610000  -73.006517      112.3463       324.91256    
   2620000  -52.940726      99.565062      287.94841    
   2630000  -64.762728      98.078173      283.64823    
   2640000  -65.747965      107.05003      309.5954     
   2650000  -56.919641      99.905375      288.93261    
   2660000  -95.34575       107.79999      311.76433    
   2670000  -73.525704      88.247658      255.21776    
   2680000  -86.782841      97.639718      282.38019    
   2690000  -74.810523      111.18125      321.54315    
   2700000  -59.865996      102.02169      295.05313    
   2710000  -41.239044      102.95443      297.75068    
   2720000  -61.078864      118.19945      341.84023    
   2730000  -46.426799      92.53383       267.61364    
   2740000  -80.158565      110.67839      320.08884    
   2750000  -81.637899      108.457        313.66446    
   2760000  -69.304421      105.28267      304.48409    
   2770000  -79.076018      98.807421      285.75726    
   2780000  -69.652942      101.63422      293.93253    
   2790000  -70.610788      93.816545      271.32333    
   2800000  -61.696461      104.16043      301.2385     
   2810000  -54.996369      86.861603      251.20921    
   2820000  -62.005199      105.79925      305.97807    
   2830000  -52.905276      102.46973      296.34888    
   2840000  -69.491886      102.55361      296.59147    
   2850000  -41.910417      101.45959      293.42749    
   2860000  -56.117441      112.00373      323.92181    
   2870000  -68.240998      109.87182      317.75618    
   2880000  -68.332237      108.91755      314.99639    
   2890000  -92.938944      101.53836      293.6553     
   2900000  -91.531706      87.695417      253.62065    
   2910000  -77.441209      91.490525      264.59634    
   2920000  -77.361281      98.202922      284.00901    
   2930000  -83.114126      109.6261       317.04557    
   2940000  -72.481641      100.20019      289.78523    
   2950000  -52.037905      104.69044      302.77131    
   2960000  -38.997012      112.32178      324.84163    
   2970000  -49.194908      114.59126      331.40512    
   2980000  -60.495797      112.21943      324.54563    
   2990000  -65.90914       111.28509      321.84347    
   3000000  -56.776997      98.982839      286.26458    
   3010000  -43.498076      101.61382      293.87353    
   3020000  -49.894082      107.15111      309.88774    
   3030000  -65.816775      99.917098      288.96651    
   3040000  -63.468547      110.07833      318.35344    
   3050000  -70.59395       105.36234      304.71449    
   3060000  -56.576795      103.72988      299.99333    
   3070000  -61.356374      101.12395      292.45681    
   3080000  -55.707061      105.09054      303.92843    
   3090000  -50.065698      100.41301      290.40071    
   3100000  -63.894004      123.49709      357.16133    
   3110000  -48.310458      114.51665      331.18934    
   3120000  -47.935593      100.45566      290.52406    
   3130000  -55.867868      105.71943      305.74722    
   3140000  -60.56814       108.29299      313.19011    
   3150000  -68.017918      109.43212      316.48455    
   3160000  -61.902767      104.87462      303.30397    
   3170000  -56.453496      101.5017       293.54929    
   3180000  -61.313082      111.45932      322.34734    
   3190000  -58.722566      101.92746      294.78061    
   3200000  -56.581303      110.7059       320.16841    
   3210000  -66.583349      110.49659      319.56306    
   3220000  -51.596441      98.09804       283.70569    
   3230000  -56.591937      123.55279      357.32242    
   3240000  -66.034995      111.39084      322.1493     
   3250000  -72.592792      112.26582      324.67978    
   3260000  -63.880321      93.070969      269.16708    
   3270000  -80.328333      104.4003       301.93221    
   3280000  -85.73503       100.14347      289.6212     
   3290000  -74.578382      118.08654      341.51367    
   3300000  -72.095902      114.50213      331.14734    
   3310000  -64.147642      106.44854      307.85586    
   3320000  -67.37046       102.83521      297.40589    
   3330000  -74.162572      94.6733        273.80112    
   3340000  -79.987661      100.66923      291.14173    
   3350000  -89.354742      109.05089      315.38202    
   3360000  -71.03426       90.826036      262.67459    
   3370000  -69.137797      100.61318      290.97963    
   3380000  -66.112957      96.674715      279.58934    
   3390000  -57.115758      95.246654      275.4593     
   3400000  -66.265857      103.96065      300.66073    
   3410000  -67.719609      115.49135      334.00823    
   3420000  -64.805556      102.82871      297.38709    
   3430000  -73.96295       111.09052      321.28075    
   3440000  -60.60092       99.975781      289.13623    
   3450000  -70.542804      98.348498      284.43003    
   3460000  -55.165547      103.44198      299.16069    
   3470000  -59.210913      91.452981      264.48776    
   3480000  -64.263687      104.80001      303.08822    
   3490000  -46.998237      95.726765      276.84781    
   3500000  -45.481255      115.43531      333.84616    
   3510000  -46.847605      107.81332      311.80289    
   3520000  -64.586699      111.53188      322.55719    
   3530000  -38.459941      106.44084      307.8336     
   3540000  -51.24874       111.40345      322.18576    
   3550000  -43.231812      108.47928      313.72887    
   3560000  -66.824678      98.323163      284.35676    
   3570000  -59.314998      103.31548      298.79486    
   3580000  -66.934991      109.2062       315.83119    
   3590000  -39.200739      97.147974      280.95804    
   3600000  -60.181329      103.22766      298.54088    
   3610000  -45.571783      108.65794      314.24558    
   3620000  -52.68057       97.763548      282.73831    
   3630000  -63.974404      108.91249      314.98176    
   3640000  -56.235235      108.15189      312.78205    
   3650000  -35.941111      111.16601      321.49907    
   3660000  -50.531846      105.11277      303.99272    
   3670000  -59.925309      106.29627      307.41548    
   3680000  -56.506054      101.59529      293.81996    
   3690000  -50.311446      98.177085      283.93429    
   3700000  -60.281984      106.25975      307.30985    
   3710000  -45.385429      104.24754      301.49044    
   3720000  -51.688069      103.31568      298.79543    
   3730000  -65.855304      106.24312      307.26177    
   3740000  -56.516314      95.718049      276.8226     
   3750000  -67.065028      92.793148      268.36361    
   3760000  -61.048289      94.938819      274.56902    
   3770000  -70.496222      92.331787      267.02932    
   3780000  -74.447659      96.703032      279.67124    
   3790000  -60.174398      96.947987      280.37966    
   3800000  -72.990916      93.534784      270.50846    
   3810000  -73.829634      107.71961      311.53188    
   3820000  -65.229899      98.560065      285.04189    
   3830000  -72.520862      103.57064      299.53278    
   3840000  -53.01849       103.56847      299.52652    
   3850000  -70.76513       107.2797       310.25963    
   3860000  -84.454292      102.62941      296.81069    
   3870000  -84.289883      101.96812      294.89821    
   3880000  -91.804706      93.684209      270.94061    
   3890000  -79.452946      90.356126      261.31558    
   3900000  -76.817259      104.12511      301.13634    
   3910000  -68.407735      93.225126      269.61291    
   3920000  -74.625688      113.48392      328.20262    
   3930000  -77.44791       95.071571      274.95295    
   3940000  -80.428657      105.86575      306.17038    
   3950000  -83.036328      93.461621      270.29687    
   3960000  -84.685414      106.6122       308.32916    
   3970000  -77.481261      113.34782      327.80901    
   3980000  -69.91652       109.74384      317.38606    
   3990000  -62.916258      91.683328      265.15394    
   4000000  -65.079629      109.57075      316.88549    
Loop time of 471.148 on 1 procs for 4000000 steps with 117 atoms

Performance: 7335.276 ns/day, 0.003 hours/ns, 8489.902 timesteps/s, 993.319 katom-step/s
99.3% CPU use with 1 MPI tasks x 1 OpenMP threads

MPI task timing breakdown:
Section |  min time  |  avg time  |  max time  |%varavg| %total
---------------------------------------------------------------
Pair    | 432.15     | 432.15     | 432.15     |   0.0 | 91.72
Bond    | 24.451     | 24.451     | 24.451     |   0.0 |  5.19
Neigh   | 1.9503     | 1.9503     | 1.9503     |   0.0 |  0.41
Comm    | 1.775      | 1.775      | 1.775      |   0.0 |  0.38
Output  | 0.13895    | 0.13895    | 0.13895    |   0.0 |  0.03
Modify  | 9.956      | 9.956      | 9.956      |   0.0 |  2.11
Other   |            | 0.7261     |            |       |  0.15

Nlocal:            117 ave         117 max         117 min
Histogram: 1 0 0 0 0 0 0 0 0 0
Nghost:              0 ave           0 max           0 min
Histogram: 1 0 0 0 0 0 0 0 0 0
Neighs:           1476 ave        1476 max        1476 min
Histogram: 1 0 0 0 0 0 0 0 0 0

Total # of neighbors = 1476
Ave neighs/atom = 12.615385
Ave special neighs/atom = 5.8974359
Neighbor list builds = 8302
Dangerous builds = 0
Generated 0 of 6 mixed pair_coeff terms from geometric mixing rule
Setting up Verlet run ...
  Unit style    : real
  Current step  : 4000000
  Time step     : 10
Per MPI rank memory allocation (min/avg/max) = 9.635 | 9.635 | 9.635 Mbytes
   Step         PotEng         KinEng          Temp     
   4000000  -65.079629      109.57075      316.88549    
   4010000  -54.060447      111.56969      322.66655    
   4020000  -54.85206       111.45026      322.32116    
   4030000  -60.398282      109.56617      316.87223    
   4040000  -79.66602       106.1937       307.11884    
   4050000  -64.571017      106.67268      308.50409    
   4060000  -59.797206      105.86125      306.15738    
   4070000  -51.802574      94.76485       274.06589    
   4080000  -58.82757       99.30139       287.18585    
   4090000  -90.481874      103.5726       299.53845    
   4100000  -73.842668      113.07436      327.01815    
   4110000  -83.267259      117.68908      340.36421    
   4120000  -54.904088      97.266355      281.3004     
   4130000  -65.560263      115.13431      332.97564    
   4140000  -34.732723      102.49708      296.42799    
   4150000  -46.641299      98.403356      284.58868    
   4160000  -65.507233      101.76305      294.30512    
   4170000  -69.660071      92.790236      268.35518    
   4180000  -57.484596      112.35155      324.92773    
   4190000  -65.366151      110.84926      320.58302    
   4200000  -67.554463      116.84144      337.91276    
   4210000  -63.003352      103.59138      299.59276    
   4220000  -73.075841      89.08831       257.64898    
   4230000  -73.523107      102.19308      295.5488     
   4240000  -58.384267      97.760587      282.72975    
   4250000  -61.945705      118.60124      343.00223    
   4260000  -62.96883       101.41553      293.30008    
   4270000  -73.962587      119.03947      344.26963    
   4280000  -61.039208      97.677621      282.48981    
   4290000  -69.094071      119.72059      346.23946    
   4300000  -66.410508      102.9825       297.83184    
   4310000  -42.844854      104.23617      301.45753    
   4320000  -49.086093      114.73104      331.80937    
   4330000  -65.428221      115.61722      334.37225    
   4340000  -59.83928       115.62418      334.39237    
   4350000  -60.956561      97.524635      282.04736    
   4360000  -50.411735      108.71765      314.41826    
   4370000  -57.397889      111.95616      323.78425    
   4380000  -33.565041      99.660107      288.22328    
   4390000  -27.887998      104.56091      302.3967     
   4400000  -48.01972       111.86966      323.53408    
   4410000  -49.802555      113.95125      329.55417    
   4420000  -42.984399      92.276983      266.87082    
   4430000  -65.443083      118.16686      341.74597    
   4440000  -52.336778      99.571436      287.96684    
   4450000  -61.062958      108.5217       313.85158    
   4460000  -51.010532      98.085833      283.67038    
   4470000  -45.992769      97.884016      283.08672    
   4480000  -57.705761      116.18838      336.02407    
   4490000  -45.372048      106.42184      307.77864    
   4500000  -52.536436      104.38382      301.88455    
   4510000  -42.357598      92.129346      266.44385    
   4520000  -55.904094      106.44551      307.84708    
   4530000  -68.889156      112.40429      325.08026    
   4540000  -50.684416      112.55056      325.50327    
   4550000  -50.277783      101.27127      292.88285    
   4560000  -43.577065      112.43551      325.17055    
   4570000  -48.463588      101.8588       294.58203    
   4580000  -49.1232        113.56889      328.44835    
   4590000  -45.673736      118.12063      341.61227    
   4600000  -35.030954      110.56496      319.76081    
   4610000  -45.627028      103.134        298.27       
   4620000  -43.416398      105.01753      303.71729    
   4630000  -52.785364      115.74059      334.72904    
   4640000  -44.002989      99.789667      288.59798    
   4650000  -37.161905      112.93765      326.62278    
   4660000  -29.166598      122.69039      354.82831    
   4670000  -16.415449      111.7686       323.24181    
   4680000  -36.660794      122.07944      353.0614     
   4690000  -36.148882      112.95075      326.66064    
   4700000  -37.292134      119.31792      345.07492    
   4710000  -44.89254       114.04964      329.83872    
   4720000  -51.903144      115.16764      333.07204    
   4730000  -37.699156      99.324531      287.25278    
   4740000  -53.775162      120.75675      349.2361     
   4750000  -60.010694      107.50946      310.9241     
   4760000  -35.39993       102.70666      297.0341     
   4770000  -52.4394        102.79252      297.28241    
   4780000  -50.277557      116.47408      336.85036    
   4790000  -32.083283      99.646944      288.18521    
   4800000  -53.110626      107.90577      312.07025    
   4810000  -62.502924      123.16553      356.20245    
   4820000  -38.394014      118.01271      341.30016    
   4830000  -59.305745      125.75565      363.69324    
   4840000  -50.219384      112.52765      325.43702    
   4850000  -29.244336      110.39676      319.27436    
   4860000  -44.677586      115.74207      334.73332    
   4870000  -44.963535      121.44389      351.22335    
   4880000  -37.00493       126.85554      366.87418    
   4890000  -26.667564      133.63299      386.475      
   4900000  -21.212755      118.99247      344.1337     
   4910000  -58.913493      116.96697      338.27581    
   4920000  -23.397866      107.12519      309.81278    
   4930000  -38.203097      106.15744      307.01398    
   4940000  -39.597893      113.69528      328.81387    
   4950000  -48.141484      113.80367      329.12737    
   4960000  -33.893141      110.87964      320.67089    
   4970000  -22.603419      115.5855       334.2805     
   4980000  -2.7210249      119.61017      345.92012    
   4990000  -7.3984796      122.63856      354.67841    
   5000000   5.7582818      118.09395      341.5351     
   5010000  -4.2453248      117.01391      338.41158    
   5020000  -27.832387      111.87551      323.551      
   5030000  -31.526461      105.98813      306.52433    
   5040000  -15.540076      110.8382       320.55102    
   5050000  -5.0666041      107.10368      309.75056    
   5060000  -21.470117      103.69722      299.89886    
   5070000  -19.914879      93.43281       270.21355    
   5080000  -45.581829      110.00189      318.13236    
   5090000  -34.937162      105.34992      304.67859    
   5100000  -28.041368      98.016154      283.46887    
   5110000  -23.304952      113.36794      327.86721    
   5120000  -28.844864      108.096        312.62043    
   5130000  -29.132515      114.44407      330.97942    
   5140000  -48.760496      105.95791      306.43692    
   5150000  -29.919081      110.63338      319.95866    
   5160000  -33.268787      108.70863      314.39217    
   5170000  -28.273684      107.21608      310.07562    
   5180000  -43.133145      109.57689      316.90325    
   5190000  -33.531843      116.35301      336.50021    
   5200000  -26.206314      123.76211      357.92778    
   5210000  -25.261242      119.47869      345.53985    
   5220000  -33.071741      118.14821      341.69204    
   5230000  -32.85004       119.51689      345.65034    
   5240000  -38.805763      120.12598      347.41188    
   5250000  -28.2294        105.05314      303.82027    
   5260000  -37.283646      101.28142      292.91221    
   5270000  -33.291447      96.052948      277.79115    
   5280000  -27.03055       98.72809       285.52783    
   5290000  -48.651924      116.58318      337.16586    
   5300000  -13.780638      110.00065      318.12878    
   5310000  -33.403603      112.77475      326.15166    
   5320000  -26.574205      123.24595      356.43501    
   5330000  -24.74537       119.29566      345.01052    
   5340000  -26.323401      108.25396      313.07723    
   5350000  -32.607772      107.48718      310.85968    
   5360000  -19.829178      96.652779      279.5259     
   5370000  -32.926177      110.95322      320.88368    
   5380000  -35.207554      120.07858      347.27477    
   5390000  -44.129366      119.02577      344.22999    
   5400000  -38.633584      104.60294      302.51826    
   5410000  -25.589761      102.45333      296.30147    
   5420000  -48.711812      93.590463      270.66949    
   5430000  -54.604764      110.6548       320.02062    
   5440000  -35.759078      113.02949      326.88837    
   5450000  -31.203051      99.750033      288.48335    
   5460000  -26.08285       109.89251      317.81604    
   5470000  -37.465517      111.69637      323.0329     
   5480000  -21.261929      113.99838      329.69048    
   5490000  -34.985888      131.26694      379.63223    
   5500000  -2.3425473      96.958877      280.41115    
   5510000  -15.230923      117.85296      340.83817    
   5520000  -11.310844      109.17411      315.73837    
   5530000  -21.353744      113.73956      328.94194    
   5540000  -9.5440818      119.12619      344.5204     
   5550000  -1.6684368      109.77942      317.48898    
   5560000  -21.475491      124.43404      359.87106    
   5570000  -17.927568      129.76764      375.29615    
   5580000   3.4020257      114.65885      331.60059    
   5590000  -6.7272392      120.28898      347.88329    
   5600000  -13.08524       118.46931      342.62068    
   5610000  -23.65177       121.4055       351.11231    
   5620000  -36.90295       120.1737       347.54988    
   5630000  -30.902743      116.02416      335.54915    
   5640000  -11.897393      113.01099      326.83486    
   5650000  -16.92766       109.08565      315.48253    
   5660000  -28.60925       125.29912      362.37292    
   5670000  -7.9145921      122.49685      354.26857    
   5680000  -25.57746       128.22494      370.83456    
   5690000  -24.873748      121.28195      350.75502    
   5700000  -10.858286      118.03002      341.35023    
   5710000  -12.083196      119.49391      345.58389    
   5720000  -12.70809       110.91715      320.77934    
   5730000  -17.150635      134.09012      387.79703    
   5740000  -3.0786622      121.59258      351.65336    
   5750000  -19.777496      120.42576      348.27884    
   5760000  -21.886493      124.74221      360.7623     
   5770000  -42.636628      117.07478      338.5876     
   5780000  -15.725166      109.35232      316.25378    
   5790000  -23.211535      137.36204      397.25963    
   5800000  -13.195118      120.56497      348.68145    
   5810000  -19.019438      124.05645      358.77903    
   5820000  -20.352884      120.04147      347.16746    
   5830000  -20.148281      123.32943      356.67645    
   5840000  -22.927754      129.20289      373.66287    
   5850000  -11.578983      123.9912       358.59033    
   5860000  -20.685403      147.19693      425.70275    
   5870000  -24.422482      118.44685      342.55572    
   5880000  -39.232978      118.26584      342.03222    
   5890000  -22.129952      108.46385      313.68427    
   5900000  -40.525926      120.73979      349.18706    
   5910000  -33.493985      113.59311      328.51841    
   5920000  -33.607257      106.91688      309.21033    
   5930000  -40.76986       118.46487      342.60785    
   5940000  -41.27164       112.6224       325.71104    
   5950000  -46.354594      118.87251      343.78676    
   5960000  -45.616768      126.97512      367.22002    
   5970000  -22.638137      135.26366      391.19098    
   5980000  -26.081233      127.30927      368.18639    
   5990000  -28.981827      103.64983      299.76182    
   6000000  -24.581208      107.73498      311.57633    
   6010000  -31.61448       117.9491       341.11621    
   6020000  -14.733905      118.87524      343.79466    
   6030000  -31.322273      131.99878      381.74875    
   6040000  -17.281451      130.79785      378.27558    
   6050000  -24.380587      120.43797      348.31418    
   6060000  -34.615314      119.10304      344.45346    
   6070000  -21.160797      107.21382      310.06909    
   6080000  -34.777926      134.14312      387.95032    
   6090000  -14.901666      114.41105      330.88393    
   6100000  -15.459597      114.20134      330.27745    
   6110000  -22.117846      117.45915      339.69924    
   6120000  -32.674372      114.97707      332.52091    
   6130000  -5.1511103      113.91214      329.44106    
   6140000   2.2311193      123.66074      357.6346     
   6150000   0.9281292      123.25651      356.46555    
   6160000  -6.7732925      121.00485      349.95361    
   6170000  -13.606273      122.86563      355.33512    
   6180000  -13.851337      135.08228      390.66642    
   6190000  -7.0157662      135.91109      393.06339    
   6200000  -7.1415275      134.60031      389.27255    
   6210000  -8.1762648      136.39355      394.45869    
   6220000   2.3965411      144.72611      418.557      
   6230000  -4.2017772      111.79067      323.30564    
   6240000   9.2453293      129.76827      375.29799    
   6250000   7.2108793      123.93687      358.43321    
   6260000   1.8222483      113.00498      326.8175     
   6270000  -6.3793403      122.32759      353.77907    
   6280000  -8.2266409      101.58917      293.80225    
   6290000  -13.007439      115.69015      334.58318    
   6300000  -22.421954      135.61694      392.2127     
   6310000  -16.116973      118.79916      343.57463    
   6320000  -2.6973156      109.47415      316.60612    
   6330000  -0.46325011     123.53518      357.27148    
   6340000  -14.855557      112.71978      325.99268    
   6350000   6.5756803      128.84302      372.62209    
   6360000   22.449578      141.83328      410.19074    
   6370000   18.432791      137.12245      396.56672    
   6380000   9.2757305      125.58274      363.19316    
   6390000   26.529374      119.43363      345.40955    
   6400000   16.380359      136.86281      395.81584    
   6410000  -5.8192034      141.84213      410.21633    
   6420000  -8.387971       143.36683      414.62586    
   6430000  -3.5400466      136.25585      394.06047    
   6440000   23.691792      119.38845      345.27888    
   6450000   2.0583586      114.82036      332.06769    
   6460000  -8.5269173      111.31127      321.91918    
   6470000  -16.816134      135.87098      392.94738    
   6480000  -2.5759426      122.99256      355.70221    
   6490000   7.0810547      122.02561      352.90573    
   6500000   22.449853      120.76789      349.26833    
   6510000  -6.8444465      128.77486      372.42497    
   6520000  -9.6060853      154.02635      445.45386    
   6530000   9.6609947      135.85539      392.90232    
   6540000   19.440725      108.81826      314.70923    
   6550000  -19.378781      124.42146      359.83465    
   6560000  -21.22692       122.76376      355.04049    
   6570000  -10.946458      151.37247      437.77867    
   6580000   20.595298      114.75608      331.88177    
   6590000   3.2491376      152.48515      440.99663    
   6600000   13.634433      134.65563      389.43253    
   6610000   12.352192      132.98072      384.58859    
   6620000  -16.317326      128.8306       372.58618    
   6630000  -7.136388       118.23887      341.95423    
   6640000   1.1073844      111.44359      322.30185    
   6650000  -21.491823      140.72935      406.99811    
   6660000  -7.1508206      129.66367      374.99546    
   6670000  -12.059767      125.81647      363.86913    
   6680000  -26.427641      126.7261       366.49983    
   6690000  -0.80888541     118.43263      342.51458    
   6700000  -9.9647479      120.62781      348.8632     
   6710000  -10.43914       135.55786      392.04183    
   6720000   4.9489314      118.76228      343.46796    
   6730000  -12.386345      127.13664      367.68715    
   6740000  -12.465344      115.4971       334.02486    
   6750000  -11.316208      131.15495      379.30835    
   6760000  -8.1309644      123.10868      356.03804    
   6770000  -9.8164182      132.26524      382.51938    
   6780000  -20.098106      114.37869      330.79036    
   6790000  -24.101173      120.97613      349.87055    
   6800000  -17.010722      124.06373      358.80008    
   6810000  -6.0692678      123.3325       356.68534    
   6820000  -13.788654      121.03243      350.03338    
   6830000  -34.39446       133.93548      387.34981    
   6840000  -17.235364      138.74088      401.24733    
   6850000  -17.78456       138.52621      400.62649    
   6860000  -9.6585008      120.05185      347.19748    
   6870000  -37.471236      132.3007       382.62191    
   6880000  -6.3141957      122.62838      354.64896    
   6890000  -20.144752      132.58683      383.44944    
   6900000  -27.818744      146.41738      423.44825    
   6910000  -28.695436      123.7919       358.01395    
   6920000  -17.215231      115.15981      333.0494     
   6930000  -19.102374      118.5979       342.99256    
   6940000  -1.0307218      132.06644      381.94444    
   6950000  -23.887478      125.87822      364.04771    
   6960000  -12.391349      118.61789      343.05039    
   6970000  -26.326407      131.75837      381.05346    
   6980000  -8.4847838      130.96416      378.75656    
   6990000  -14.289406      122.50354      354.28793    
   7000000  -16.415959      126.64988      366.27941    
   7010000   7.6022323      130.83799      378.39167    
   7020000  -5.8357755      134.81043      389.88021    
   7030000  -19.013724      155.0917       448.53493    
   7040000  -44.605713      151.96566      439.49423    
   7050000  -15.119257      136.62487      395.12768    
   7060000  -10.139591      124.35137      359.63197    
   7070000  -9.4683856      133.78577      386.91685    
   7080000  -16.489399      136.61497      395.09907    
   7090000  -0.26036961     123.83488      358.13824    
   7100000   1.1486066      154.53178      446.91559    
   7110000   20.632236      127.72725      369.39523    
   7120000   15.40559       141.90296      410.39225    
   7130000   17.516144      117.17444      338.87582    
   7140000   4.6668937      125.75901      363.70294    
   7150000  -3.3274711      140.58371      406.57691    
   7160000   22.989342      118.10149      341.55692    
   7170000   18.602013      149.99299      433.78914    
   7180000   29.467887      147.13923      425.53587    
   7190000   15.371832      149.98299      433.76022    
   7200000   19.441004      145.92265      422.01745    
   7210000   33.8878        119.79727      346.46122    
   7220000   19.855794      132.89775      384.34863    
   7230000   0.81268448     119.55246      345.75322    
   7240000   13.202043      136.22643      393.97538    
   7250000   11.267261      135.36239      391.47653    
   7260000   8.8279339      128.5824       371.86838    
   7270000  -7.3640073      136.88208      395.87156    
   7280000  -13.384187      136.15035      393.75537    
   7290000  -29.328993      120.28326      347.86673    
   7300000  -13.546679      128.15692      370.63786    
   7310000   17.552618      138.46452      400.44807    
   7320000   21.129788      127.59798      369.02137    
   7330000  -9.2240514      152.95617      442.35885    
   7340000   13.354215      142.75381      412.85296    
   7350000   7.0977975      133.29412      385.49496    
   7360000   13.239202      146.62659      424.05329    
   7370000   27.244726      136.54765      394.90436    
   7380000   15.676989      132.89542      384.34189    
   7390000   29.719595      132.81407      384.10662    
   7400000   28.037215      125.04436      361.63613    
   7410000   9.3860324      140.55392      406.49076    
   7420000  -3.2809017      143.17245      414.06369    
   7430000  -1.7232328      125.20492      362.10048    
   7440000  -6.8152728      133.87466      387.17391    
   7450000   10.134705      124.18393      359.1477     
   7460000  -5.0837906      130.4561       377.28724    
   7470000   7.5454056      126.89758      366.99577    
   7480000   18.698796      139.77228      404.23021    
   7490000   20.658049      135.62398      392.23306    
   7500000   8.6011257      128.94048      372.90396    
   7510000   11.021334      150.81267      436.15971    
   7520000   47.497456      135.18017      390.94954    
   7530000   20.409019      139.17607      402.50593    
   7540000   24.064574      140.79772      407.19583    
   7550000   26.753893      146.14597      422.66333    
   7560000   36.572308      124.141        359.02355    
   7570000   19.411834      141.25451      408.51689    
   7580000   29.604921      121.12257      350.29407    
   7590000   34.186833      126.45387      365.71253    
   7600000   21.297301      135.64972      392.3075     
   7610000   10.388169      153.5508       444.07854    
   7620000   42.68461       131.75565      381.04561    
   7630000   24.327198      136.10395      393.62116    
   7640000   49.191885      117.57725      340.04077    
   7650000   64.975815      123.06374      355.90806    
   7660000   30.998348      160.644        464.59251    
   7670000   53.085272      144.96862      419.25834    
   7680000   48.881844      130.26684      376.73986    
   7690000   47.846044      134.88811      390.10488    
   7700000   41.213926      127.78558      369.56391    
   7710000   32.381371      133.23816      385.33313    
   7720000   68.340895      131.96196      381.64228    
   7730000   50.223449      138.55643      400.71389    
   7740000   18.673974      156.15278      451.60364    
   7750000   36.980257      126.62657      366.21199    
   7760000   39.86523       123.8345       358.13713    
   7770000   33.231499      127.24274      367.99398    
   7780000   21.081065      132.18626      382.29094    
   7790000   32.450371      130.17964      376.48767    
   7800000   19.297139      145.75748      421.53976    
   7810000   44.547932      138.44157      400.38171    
   7820000   61.480123      135.336        391.40021    
   7830000   62.991057      131.4393       380.13069    
   7840000   37.679758      155.17386      448.77254    
   7850000   44.239154      125.54454      363.08268    
   7860000   26.788262      147.89765      427.72927    
   7870000   43.357449      135.09936      390.71581    
   7880000   47.256526      124.83263      361.02379    
   7890000   17.722012      137.1016       396.50643    
   7900000   15.571646      131.39563      380.00439    
   7910000   32.566424      131.11449      379.19133    
   7920000   59.150218      136.19962      393.89784    
   7930000   64.626075      127.63303      369.12274    
   7940000   80.149362      135.72042      392.51198    
   7950000   53.784852      145.09909      419.63568    
   7960000   53.521739      138.77888      401.35722    
   7970000   51.472153      139.86098      404.48672    
   7980000   65.1283        148.12264      428.37996    
   7990000   38.894406      155.53778      449.82501    
   8000000   49.872313      140.44841      406.18562    
   8010000   51.907185      149.58931      432.62167    
   8020000   63.181224      147.89879      427.73259    
   8030000   52.177995      146.84348      424.68055    
   8040000   43.550422      127.65834      369.19593    
   8050000   57.057364      161.15742      466.07735    
   8060000   41.690071      141.5322       409.32001    
   8070000   46.842815      131.48267      380.25612    
   8080000   45.051221      126.29225      365.24512    
   8090000   41.49928       159.57256      461.49386    
   8100000   38.567184      126.98845      367.25856    
   8110000   31.410536      152.6861       441.57777    
   8120000   66.830092      130.30706      376.8562     
   8130000   58.115138      144.65497      418.35124    
   8140000   62.732765      145.96013      422.12586    
   8150000   91.877072      150.32437      434.74752    
   8160000   76.616139      146.61281      424.01345    
   8170000   79.629492      134.91261      390.17574    
   8180000   58.885263      130.43456      377.22493    
   8190000   53.778547      160.33882      463.70993    
   8200000   61.34422       140.75352      407.06802    
   8210000   42.729398      157.66183      455.96789    
   8220000   62.600254      148.50798      429.4944     
   8230000   66.905367      138.01988      399.16215    
   8240000   46.586091      137.86937      398.72686    
   8250000   50.145773      119.89768      346.75161    
   8260000   31.784375      147.19008      425.68294    
   8270000   37.704524      139.87269      404.5206     
   8280000   26.542922      148.02341      428.09299    
   8290000   23.935427      127.98119      370.12962    
   8300000   44.039092      171.84457      496.98526    
   8310000   55.991722      172.28108      498.24768    
   8320000   67.446126      157.26387      454.81697    
   8330000   74.083593      142.41714      411.8793     
   8340000   45.808264      138.16447      399.58031    
   8350000   37.051834      151.86403      439.20031    
   8360000   60.337778      145.5099       420.82376    
   8370000   50.228342      167.55802      484.58832    
   8380000   40.396706      137.72951      398.32239    
   8390000   23.647604      145.99728      422.23331    
   8400000   50.982286      126.58041      366.07847    
   8410000   31.768481      147.6087       426.89361    
   8420000   48.325631      143.77056      415.79348    
   8430000   56.351031      149.51077      432.39453    
   8440000   73.36645       143.91324      416.20613    
   8450000   57.891066      147.03314      425.22906    
   8460000   63.610425      142.43072      411.91856    
   8470000   83.253615      131.84606      381.30709    
   8480000   57.521617      137.82287      398.5924     
   8490000   40.380426      140.66185      406.80289    
   8500000   52.869771      148.18055      428.54745    
   8510000   29.03997       157.61389      455.82926    
   8520000   30.991928      169.69694      490.7742     
   8530000   64.418219      131.86304      381.35617    
   8540000   45.060893      144.24781      417.17371    
   8550000   38.637207      134.26523      388.30347    
   8560000   28.024952      153.69143      444.48526    
   8570000   48.10482       148.23633      428.70876    
   8580000   41.400062      138.38405      400.21536    
   8590000   36.225002      159.81051      462.18203    
   8600000   35.563063      129.4475       374.37029    
   8610000   39.755017      147.74057      427.27501    
   8620000   48.50296       126.83492      366.81455    
   8630000   44.546657      131.69184      380.86108    
   8640000   55.717703      127.05381      367.44758    
   8650000   45.480344      140.21657      405.51512    
   8660000   35.609502      157.92534      456.73       
   8670000   27.200752      137.25837      396.95983    
   8680000   19.975834      145.80351      421.67289    
   8690000   23.809184      145.79988      421.66241    
   8700000   28.913035      130.9043       378.58345    
   8710000   36.097739      133.89871      387.24346    
   8720000   63.622977      141.35075      408.79523    
   8730000   56.26319       139.35569      403.0254     
   8740000   33.820965      164.49164      475.72015    
   8750000   30.523803      145.78464      421.61833    
   8760000   52.007127      148.79805      430.3333     
   8770000   44.771162      171.61614      496.32464    
   8780000   40.987714      178.11284      515.11351    
   8790000   43.771551      136.05319      393.47435    
   8800000   52.938311      155.07907      448.49839    
   8810000   39.007913      164.807        476.63218    
   8820000   42.166201      151.39573      437.84594    
   8830000   43.083128      140.03426      404.98786    
   8840000   35.829336      143.22518      414.2162     
   8850000   31.80747       138.75166      401.2785     
   8860000   54.810711      140.5077       406.35708    
   8870000   68.862129      142.0271       410.75129    
   8880000   70.918823      143.97424      416.38253    
   8890000   60.114253      149.16257      431.3875     
   8900000   52.000075      134.96692      390.33281    
   8910000   63.998841      142.72727      412.77621    
   8920000   55.73173       172.822        499.81207    
   8930000   70.159537      129.94424      375.8069     
   8940000   73.803276      140.86514      407.39083    
   8950000   50.439151      144.44759      417.75148    
   8960000   51.201801      133.08         384.87572    
   8970000   79.06087       140.03258      404.983      
   8980000   58.899985      153.08628      442.73513    
   8990000   59.132201      146.08471      422.48613    
   9000000   61.517811      165.09692      477.47064    
   9010000   62.942783      150.39388      434.94854    
   9020000   73.50742       124.17858      359.13225    
   9030000   90.876292      134.05657      387.70002    
   9040000   50.065555      148.99819      430.91212    
   9050000   64.206744      149.21531      431.54004    
   9060000   70.028774      154.76781      447.59821    
   9070000   41.357263      184.27053      532.92192    
   9080000   72.750213      144.76589      418.67204    
   9090000   66.809894      159.9219       462.50416    
   9100000   42.856749      134.89329      390.11985    
   9110000   56.539383      159.29294      460.68517    
   9120000   76.950249      144.06926      416.65733    
   9130000   73.158677      137.09872      396.4981     
   9140000   63.826084      145.64842      421.22437    
   9150000   57.76323       159.56996      461.48634    
   9160000   68.228907      129.44677      374.36819    
   9170000   85.61738       139.97075      404.80419    
   9180000   72.521732      146.62405      424.04594    
   9190000   81.54817       154.66357      447.29673    
   9200000   80.025123      174.86201      505.71189    
   9210000   93.580925      132.75239      383.92823    
   9220000   84.225542      155.42442      449.49718    
   9230000   83.72958       153.2093       443.0909     
   9240000   84.826299      164.62033      476.09231    
   9250000   93.373062      139.72855      404.10374    
   9260000   90.991572      158.43842      458.21384    
   9270000   97.493482      165.63829      479.03632    
   9280000   91.534018      155.35859      449.3068     
   9290000   76.988719      153.60351      444.23098    
   9300000   76.215468      147.24094      425.83004    
   9310000   100.91127      159.30323      460.71495    
   9320000   77.987711      171.50552      496.00472    
   9330000   101.25372      151.76416      438.91146    
   9340000   87.889064      148.04316      428.15011    
   9350000   80.505197      131.25859      379.60807    
   9360000   64.270159      150.37738      434.90081    
   9370000   61.305524      125.12272      361.86277    
   9380000   54.389899      155.44299      449.55087    
   9390000   71.848359      136.52047      394.82577    
   9400000   79.782709      136.87023      395.83729    
   9410000   77.1001        143.05503      413.72413    
   9420000   96.292718      130.82247      378.3468     
   9430000   70.100778      161.45147      466.92778    
   9440000   64.594096      146.0697       422.44274    
   9450000   64.526794      160.2515       463.45739    
   9460000   80.707496      162.15461      468.96131    
   9470000   78.088596      149.7017       432.9467     
   9480000   64.069841      153.09175      442.75094    
   9490000   68.792353      171.96585      497.33602    
   9500000   76.326889      140.9857       407.73948    
   9510000   75.266559      162.84076      470.94568    
   9520000   78.880687      164.59598      476.02191    
   9530000   79.32347       149.21685      431.54448    
   9540000   88.944593      160.66388      464.65003    
   9550000   97.076998      164.77744      476.54669    
   9560000   87.909927      147.92205      427.79986    
   9570000   90.153636      145.99018      422.21276    
   9580000   110.483        155.10685      448.57875    
   9590000   89.743176      160.28569      463.55628    
   9600000   71.333872      166.77873      482.33454    
   9610000   88.590904      148.3912       429.15667    
   9620000   94.899411      142.41645      411.8773     
   9630000   102.91095      133.34231      385.63433    
   9640000   97.640462      157.56176      455.6785     
   9650000   107.87999      176.84049      511.43378    
   9660000   85.077959      172.00692      497.4548     
   9670000   95.755647      160.06169      462.90844    
   9680000   83.219817      154.89089      447.95418    
   9690000   85.697447      161.65201      467.50775    
   9700000   89.756686      167.76701      485.19271    
   9710000   68.425044      171.41862      495.75342    
   9720000   83.128244      168.08855      486.12264    
   9730000   92.830861      145.75935      421.54518    
   9740000   65.015088      163.63044      473.2295     
   9750000   69.7813        165.1489       477.62097    
   9760000   78.491129      149.7888       433.19861    
   9770000   54.86276       151.37729      437.79261    
   9780000   51.273035      152.58157      441.27547    
   9790000   73.605461      159.0456       459.96985    
   9800000   79.161122      142.77214      412.90598    
   9810000   80.498747      144.35558      417.48539    
   9820000   72.709346      151.49628      438.13676    
   9830000   69.105978      159.97856      462.66803    
   9840000   69.735541      154.64621      447.24655    
   9850000   78.154682      150.84657      436.25776    
   9860000   82.932497      163.80255      473.72725    
   9870000   64.090042      152.07989      439.82459    
   9880000   75.255454      155.05221      448.42072    
   9890000   74.804804      148.66928      429.96088    
   9900000   52.605393      138.32816      400.05372    
   9910000   62.944403      146.3244       423.17934    
   9920000   70.702685      154.33132      446.33587    
   9930000   69.901274      159.49385      461.26622    
   9940000   61.661362      144.78759      418.7348     
   9950000   79.052767      156.14993      451.5954     
   9960000   68.597692      170.22365      492.29746    
   9970000   48.095872      158.93318      459.64472    
   9980000   69.454624      138.00141      399.10874    
   9990000   82.705652      151.59843      438.43217    
  10000000   94.008814      142.61556      412.45315    
  10010000   75.80479       141.94096      410.50215    
  10020000   87.129129      166.37162      481.15715    
  10030000   74.529512      170.38889      492.77537    
  10040000   85.425652      158.47206      458.31115    
  10050000   84.87193       146.63702      424.08347    
  10060000   90.905315      169.8343       491.17146    
  10070000   74.975033      166.44422      481.36713    
  10080000   101.07851      162.4768       469.89309    
  10090000   101.11464      140.04959      405.03221    
  10100000   82.857295      154.89481      447.9655     
  10110000   84.492911      166.19629      480.65009    
  10120000   84.082585      154.44692      446.67018    
  10130000   103.87651      162.50233      469.96692    
  10140000   106.88443      176.66975      510.93999    
  10150000   105.0217       178.31987      515.71225    
  10160000   98.699427      147.22366      425.78007    
  10170000   88.009037      153.33804      443.46323    
  10180000   65.634914      154.55072      446.97038    
  10190000   84.280572      141.11467      408.11247    
  10200000   94.749513      157.33518      455.02322    
  10210000   99.830557      165.41455      478.38925    
  10220000   108.37763      157.0642       454.23952    
  10230000   95.623291      144.65668      418.35619    
  10240000   88.585493      175.26649      506.88168    
  10250000   95.744482      172.27287      498.22395    
  10260000   102.32797      149.47725      432.29759    
  10270000   100.83363      136.29307      394.1681     
  10280000   91.55705       152.99017      442.45718    
  10290000   75.04891       133.4521       385.95185    
  10300000   93.970433      135.34287      391.42008    
  10310000   96.502399      166.14061      480.48905    
  10320000   100.68738      154.92939      448.0655     
  10330000   92.235717      164.6904       476.29498    
  10340000   133.67187      155.01065      448.30052    
  10350000   112.05982      181.5815       525.14509    
  10360000   107.07127      155.96682      451.06582    
  10370000   107.51397      162.27622      469.31301    
  10380000   114.602        138.56027      400.725      
  10390000   91.049084      124.12003      358.96291    
  10400000   92.218023      150.10972      434.12672    
  10410000   75.633486      137.59769      397.94116    
  10420000   75.82354       130.45886      377.2952     
  10430000   90.227556      140.16267      405.35924    
  10440000   100.57662      152.07771      439.81828    
  10450000   87.069991      153.20018      443.06453    
  10460000   81.391359      174.15472      503.66638    
  10470000   76.775644      164.27061      475.08092    
  10480000   89.850738      156.89679      453.75536    
  10490000   79.556288      160.54985      464.32023    
  10500000   101.87136      156.35133      452.17785    
  10510000   124.71969      166.8569       482.56062    
  10520000   90.623882      170.16788      492.1362     
  10530000   87.004045      175.336        507.0827     
  10540000   100.31597      176.5029       510.45745    
  10550000   91.705999      162.87242      471.03727    
  10560000   90.9026        155.08747      448.52268    
  10570000   85.349506      141.497        409.2182     
  10580000   104.08625      153.28846      443.31983    
  10590000   117.56221      158.22497      457.59653    
  10600000   99.73728       149.21616      431.54248    
  10610000   102.33015      158.09506      457.22083    
  10620000   100.13234      142.58534      412.36576    
  10630000   105.11036      149.04562      431.04928    
  10640000   85.579429      197.7805       571.99361    
  10650000   104.53788      144.84651      418.90518    
  10660000   86.346029      145.88105      421.89716    
  10670000   102.49034      162.45385      469.82673    
  10680000   109.00074      167.74597      485.13187    
  10690000   90.542721      171.1783       495.05838    
  10700000   75.724164      194.42628      562.293      
  10710000   88.086641      173.87175      502.848      
  10720000   104.58552      155.69484      450.27923    
  10730000   109.70529      158.72411      459.04008    
  10740000   99.556443      166.21436      480.70237    
  10750000   93.599         136.93087      396.01266    
  10760000   96.090772      166.45335      481.39354    
  10770000   112.6038       170.84369      494.09067    
  10780000   97.91731       162.39237      469.64891    
  10790000   100.66027      160.70812      464.77796    
  10800000   91.955789      180.13364      520.9578     
  10810000   98.618829      193.14612      558.5907     
  10820000   108.92959      177.14267      512.3077     
  10830000   108.5794       162.7546       470.6965     
  10840000   85.611878      176.59573      510.72593    
  10850000   106.78986      167.57194      484.62856    
  10860000   95.709764      181.30238      524.33787    
  10870000   87.533357      174.21254      503.8336     
  10880000   95.818498      170.61704      493.43519    
  10890000   87.665242      180.46945      521.92897    
  10900000   108.09843      184.72788      534.24461    
  10910000   108.17207      178.5599       516.40642    
  10920000   120.37065      163.36637      472.46579    
  10930000   103.26138      182.67593      528.31024    
  10940000   88.942576      163.23208      472.07741    
  10950000   117.11883      162.14654      468.93795    
  10960000   107.36773      180.05958      520.74361    
  10970000   118.57802      159.84866      462.29235    
  10980000   93.13679       170.29957      492.51704    
  10990000   111.66467      165.07125      477.3964     
  11000000   100.87698      148.9094       430.65531    
  11010000   106.13918      172.20153      498.01764    
  11020000   100.85578      160.25167      463.45788    
  11030000   99.157583      167.71716      485.04854    
  11040000   99.839843      159.51818      461.33658    
  11050000   91.878573      149.22994      431.58235    
  11060000   104.48225      150.00131      433.8132     
  11070000   98.186952      156.19718      451.73204    
  11080000   93.048294      153.63476      444.32136    
  11090000   98.407493      158.07396      457.15982    
  11100000   102.33445      160.4265       463.96351    
  11110000   102.95085      166.88162      482.63213    
  11120000   106.28081      161.01438      465.66368    
  11130000   99.057777      155.60151      450.00932    
  11140000   89.510142      147.78579      427.40576    
  11150000   106.1186       152.36121      440.63818    
  11160000   93.374548      157.40964      455.23857    
  11170000   106.76237      145.28285      420.16712    
  11180000   105.99705      148.24115      428.7227     
  11190000   101.77975      164.36095      475.34219    
  11200000   100.70489      177.14097      512.30281    
  11210000   110.45544      180.8102       522.91443    
  11220000   105.9666       180.81718      522.93463    
  11230000   90.753221      166.84398      482.52325    
  11240000   105.06428      170.84698      494.10018    
  11250000   115.58893      175.23571      506.79266    
  11260000   90.158117      176.11215      509.32738    
  11270000   88.803927      157.59132      455.76399    
  11280000   96.935472      172.60285      499.17828    
  11290000   102.42715      169.23658      489.44281    
  11300000   78.336558      170.8131       494.0022     
  11310000   85.619837      135.18068      390.95102    
  11320000   92.608566      161.31991      466.54731    
  11330000   84.623113      164.2699       475.07887    
  11340000   104.32528      165.2307       477.85755    
  11350000   91.318148      166.66687      482.01105    
  11360000   89.661799      145.06907      419.54885    
  11370000   102.01992      158.11563      457.28031    
  11380000   108.25829      188.63138      545.53378    
  11390000   102.53884      162.06947      468.71508    
  11400000   100.84647      156.45902      452.4893     
  11410000   93.338423      153.48121      443.87729    
  11420000   98.357456      163.47169      472.77039    
  11430000   93.318352      176.84232      511.4391     
  11440000   76.040503      177.33821      512.87322    
  11450000   79.921702      174.82271      505.59824    
  11460000   78.006694      164.24528      475.00766    
  11470000   87.540062      164.3537       475.32122    
  11480000   82.113123      173.37893      501.42275    
  11490000   89.016169      168.42062      487.08299    
  11500000   84.033974      170.22378      492.29786    
  11510000   77.95188       164.73055      476.41107    
  11520000   72.140891      153.94625      445.22222    
  11530000   99.539744      155.14685      448.69441    
  11540000   106.01649      171.51778      496.04019    
  11550000   125.14981      179.40064      518.83791    
  11560000   119.7834       156.94579      453.89706    
  11570000   110.07251      178.85799      517.26854    
  11580000   115.94732      166.57268      481.73863    
  11590000   111.30169      174.64936      505.09691    
  11600000   106.18494      185.01932      535.08748    
  11610000   118.23286      168.46626      487.21498    
  11620000   125.24096      167.98444      485.82154    
  11630000   102.08271      170.0622       491.83054    
  11640000   113.27629      169.3487       489.76706    
  11650000   118.05419      156.75153      453.33525    
  11660000   108.18832      167.97551      485.79571    
  11670000   102.20403      176.71722      511.07729    
  11680000   97.198047      183.73557      531.37481    
  11690000   90.916188      162.02732      468.59317    
  11700000   83.334686      196.59528      568.56587    
  11710000   105.7678       182.10289      526.65297    
  11720000   102.26535      155.89933      450.87064    
  11730000   117.48535      186.59701      539.65025    
  11740000   107.76722      190.3265       550.43619    
  11750000   120.79982      172.01264      497.47135    
  11760000   100.10155      167.65381      484.86533    
  11770000   110.7021       155.04691      448.40538    
  11780000   114.70942      168.69548      487.87792    
  11790000   87.625616      147.38002      426.23226    
  11800000   94.618046      166.45823      481.40764    
  11810000   103.43854      159.81155      462.18503    
  11820000   109.33047      159.99555      462.71718    
  11830000   108.23939      177.23837      512.58447    
  11840000   117.56024      171.17422      495.04659    
  11850000   126.01602      192.68988      557.27121    
  11860000   120.36592      154.67546      447.33114    
  11870000   95.398167      174.91575      505.86732    
  11880000   120.14257      159.31587      460.75149    
  11890000   130.03274      153.86261      444.98032    
  11900000   97.514864      179.05265      517.8315     
  11910000   102.4951       159.27938      460.64597    
  11920000   76.760955      169.64331      490.61909    
  11930000   87.119764      153.42482      443.71422    
  11940000   105.36155      183.08863      529.50381    
  11950000   112.65315      169.87152      491.2791     
  11960000   97.792729      177.67733      513.85398    
  11970000   112.1539       170.19063      492.20197    
  11980000   107.96041      154.16728      445.86145    
  11990000   87.832042      179.54795      519.26395    
  12000000   98.1892        177.07289      512.10592    
Loop time of 561.24 on 1 procs for 8000000 steps with 117 atoms

Performance: 12315.590 ns/day, 0.002 hours/ns, 14254.155 timesteps/s, 1.668 Matom-step/s
99.3% CPU use with 1 MPI tasks x 1 OpenMP threads

MPI task timing breakdown:
Section |  min time  |  avg time  |  max time  |%varavg| %total
---------------------------------------------------------------
Pair    | 484.2      | 484.2      | 484.2      |   0.0 | 86.27
Bond    | 47.425     | 47.425     | 47.425     |   0.0 |  8.45
Neigh   | 4.4334     | 4.4334     | 4.4334     |   0.0 |  0.79
Comm    | 3.9507     | 3.9507     | 3.9507     |   0.0 |  0.70
Output  | 0.22486    | 0.22486    | 0.22486    |   0.0 |  0.04
Modify  | 19.628     | 19.628     | 19.628     |   0.0 |  3.50
Other   |            | 1.378      |            |       |  0.25

Nlocal:            117 ave         117 max         117 min
Histogram: 1 0 0 0 0 0 0 0 0 0
Nghost:             67 ave          67 max          67 min
Histogram: 1 0 0 0 0 0 0 0 0 0
Neighs:            489 ave         489 max         489 min
Histogram: 1 0 0 0 0 0 0 0 0 0

Total # of neighbors = 489
Ave neighs/atom = 4.1794872
Ave special neighs/atom = 5.8974359
Neighbor list builds = 22879
Dangerous builds = 0
Generated 0 of 6 mixed pair_coeff terms from geometric mixing rule
Setting up Verlet run ...
  Unit style    : real
  Current step  : 12000000
  Time step     : 10
Per MPI rank memory allocation (min/avg/max) = 9.636 | 9.636 | 9.636 Mbytes
   Step         PotEng         KinEng          Temp     
  12000000   98.1892        177.07289      512.10592    
  12010000   121.74369      176.77007      511.23012    
  12020000   96.815564      180.64335      522.43191    
  12030000   104.32888      185.48346      536.4298     
  12040000   122.32164      188.6022       545.4494     
  12050000   107.23288      200.75541      580.59723    
  12060000   119.10861      170.57996      493.32794    
  12070000   102.62762      180.82688      522.96268    
  12080000   93.771271      193.72678      560.27001    
  12090000   106.45821      167.83974      485.40306    
  12100000   104.19728      158.62718      458.75977    
  12110000   119.49988      186.94612      540.65992    
  12120000   113.92178      163.5827       473.09142    
  12130000   103.06523      174.40489      504.38988    
  12140000   127.70159      151.14641      437.1249     
  12150000   106.6132       180.68996      522.56669    
  12160000   110.16193      188.344        544.70266    
  12170000   108.78571      168.28899      486.7023     
  12180000   130.35829      195.33193      564.91219    
  12190000   100.33307      171.67029      496.48124    
  12200000   117.23247      169.87449      491.28768    
  12210000   118.62475      173.81162      502.67412    
  12220000   123.0696       166.78947      482.36562    
  12230000   129.43964      175.63246      507.9401     
  12240000   115.71539      172.11038      497.75401    
  12250000   103.047        160.20942      463.3357     
  12260000   117.29787      156.65145      453.04582    
  12270000   111.64913      158.07409      457.16017    
  12280000   112.05077      153.20424      443.07628    
  12290000   114.40798      169.62923      490.57837    
  12300000   108.14371      170.69797      493.66925    
  12310000   131.01344      167.83437      485.38753    
  12320000   123.82952      163.81942      473.77604    
  12330000   113.39881      187.18996      541.36512    
  12340000   126.28794      163.28993      472.24472    
  12350000   100.6953       171.40065      495.70143    
  12360000   107.20289      148.7049       430.0639     
  12370000   119.66619      167.53573      484.52383    
  12380000   122.48887      158.39902      458.0999     
  12390000   116.3257       177.55743      513.50722    
  12400000   109.60103      164.12777      474.66782    
  12410000   120.74491      152.04964      439.73709    
  12420000   87.725625      185.0069       535.05156    
  12430000   107.96922      183.02121      529.30882    
  12440000   99.327874      193.58558      559.86164    
  12450000   98.087178      183.89205      531.82734    
  12460000   97.252952      182.59278      528.06978    
  12470000   120.58022      173.41536      501.5281     
  12480000   106.52183      175.44589      507.40051    
  12490000   106.61145      182.59203      528.0676     
  12500000   109.99713      160.07382      462.94352    
  12510000   92.097509      194.46551      562.40646    
  12520000   111.53647      185.54804      536.61658    
  12530000   90.529453      168.02235      485.93117    
  12540000   108.67028      193.4293       559.40967    
  12550000   104.73929      186.05369      538.07893    
  12560000   121.54516      158.43431      458.20197    
  12570000   117.60854      146.33364      423.20607    
  12580000   117.56428      171.55823      496.15715    
  12590000   116.17385      183.15075      529.68345    
  12600000   115.12532      199.64113      577.37467    
  12610000   127.79665      172.657        499.33487    
  12620000   117.15347      184.84757      534.59078    
  12630000   100.73986      191.813        554.73522    
  12640000   97.758241      172.20856      498.03795    
  12650000   101.21325      175.69114      508.10979    
  12660000   116.63208      159.04124      459.95725    
  12670000   104.48807      166.26991      480.86301    
  12680000   113.50347      169.7831       491.02337    
  12690000   98.150239      173.79476      502.62534    
  12700000   112.72474      173.99736      503.21128    
  12710000   105.26831      167.79805      485.28249    
  12720000   110.5037       165.36651      478.25033    
  12730000   132.81479      175.06089      506.28708    
  12740000   104.34445      154.72091      447.46258    
  12750000   110.1587       168.16609      486.34687    
  12760000   113.69808      160.1887       463.27578    
  12770000   107.67468      183.34127      530.23447    
  12780000   105.8859       186.70158      539.95268    
  12790000   108.22832      155.29885      449.13403    
  12800000   98.000015      187.57523      542.47933    
  12810000   120.47078      165.84215      479.62591    
  12820000   105.3669       199.4289       576.76088    
  12830000   98.489023      169.41729      489.96542    
  12840000   105.22171      185.19028      535.58192    
  12850000   125.40366      201.43174      582.55323    
  12860000   126.19447      187.56387      542.44649    
  12870000   110.36229      184.39875      533.29274    
  12880000   105.20418      190.63516      551.32883    
  12890000   120.96682      181.79176      525.75317    
  12900000   111.66191      180.06524      520.75998    
  12910000   117.57931      181.08253      523.70205    
  12920000   110.34843      163.80547      473.7357     
  12930000   110.0501       180.97838      523.40081    
  12940000   107.0141       158.73892      459.08293    
  12950000   121.25697      184.73575      534.26739    
  12960000   110.70297      157.32521      454.99438    
  12970000   96.494008      172.96678      500.23077    
  12980000   107.89204      186.40796      539.10351    
  12990000   116.65881      150.75964      436.00633    
  13000000   110.71736      167.49911      484.41794    
  13010000   103.89551      173.75044      502.49718    
  13020000   105.5114       157.96649      456.84901    
  13030000   76.962157      146.11488      422.5734     
  13040000   87.468268      164.14209      474.70922    
  13050000   84.686818      166.09763      480.36476    
  13060000   82.767718      168.10356      486.16603    
[...]
 404740000  -58.161421      103.37531      298.96787    
 404750000  -69.649075      118.52853      342.79193    
 404760000  -68.39004       122.95334      355.58877    
 404770000  -66.781996      113.54135      328.3687     
 404780000  -67.071907      107.99176      312.31895    
 404790000  -58.525607      104.67863      302.73716    
 404800000  -49.913819      107.4561       310.76979    
 404810000  -63.094444      102.31093      295.88963    
 404820000  -86.527731      101.13068      292.47627    
 404830000  -94.202135      112.84866      326.3654     
 404840000  -63.882926      88.032239      254.59476    
 404850000  -75.475488      100.09787      289.48931    
 404860000  -66.735267      96.081989      277.87514    
 404870000  -58.828229      114.61256      331.46672    
 404880000  -65.236693      123.01278      355.76068    
 404890000  -67.298807      116.63484      337.31526    
 404900000  -57.665527      101.50096      293.54714    
 404910000  -61.659958      107.01548      309.49548    
 404920000  -53.095661      102.07336      295.20256    
 404930000  -72.699859      104.71658      302.84692    
 404940000  -78.912294      95.79744       277.05221    
 404950000  -90.594481      100.11965      289.55232    
 404960000  -87.65502       102.89957      297.592      
 404970000  -82.186666      113.28203      327.61875    
 404980000  -72.476573      94.644341      273.71737    
 404990000  -79.037604      104.21056      301.38348    
 405000000  -96.386456      101.5369       293.65109    
 405010000  -93.355349      99.838218      288.73839    
 405020000  -89.165882      104.68854      302.76582    
 405030000  -98.102475      103.33329      298.84635    
 405040000  -77.350728      89.969705      260.19803    
 405050000  -74.300709      90.857912      262.76678    
 405060000  -87.108811      101.3334       293.06254    
 405070000  -81.8345        101.41008      293.28432    
 405080000  -72.64261       93.250079      269.68508    
 405090000  -77.613148      102.26612      295.76005    
 405100000  -99.474507      114.61179      331.46449    
 405110000  -81.117921      116.24913      336.19978    
 405120000  -74.420385      102.58628      296.68596    
 405130000  -81.591829      99.752654      288.49093    
 405140000  -70.007168      111.91638      323.6692     
 405150000  -59.058835      107.61223      311.22131    
 405160000  -82.920481      99.113021      286.64108    
 405170000  -80.986979      91.022122      263.24169    
 405180000  -90.052215      105.41368      304.86296    
 405190000  -89.333002      111.35375      322.04202    
 405200000  -79.086932      103.86554      300.38565    
 405210000  -72.726697      103.72043      299.966      
 405220000  -70.232962      129.42465      374.3042     
 405230000  -60.642688      95.931297      277.43933    
 405240000  -66.133963      108.45455      313.65736    
 405250000  -59.771211      112.57887      325.58515    
 405260000  -70.319194      111.41582      322.22153    
 405270000  -81.994555      111.87762      323.5571     
 405280000  -80.064817      101.94027      294.81766    
 405290000  -79.269706      118.42374      342.48888    
 405300000  -81.934192      105.80587      305.99723    
 405310000  -73.434155      94.781926      274.11527    
 405320000  -80.050266      107.16952      309.94097    
 405330000  -71.001463      110.10876      318.44145    
 405340000  -80.529655      101.58832      293.7998     
 405350000  -93.253898      105.78841      305.94673    
 405360000  -69.539472      94.973508      274.66934    
 405370000  -71.542321      99.96101       289.09351    
 405380000  -65.062444      107.3138       310.35825    
 405390000  -70.517375      107.59507      311.17168    
 405400000  -84.411862      111.39425      322.15917    
 405410000  -80.311683      111.45279      322.32846    
 405420000  -72.082249      108.15515      312.79148    
 405430000  -79.64782       97.377626      281.6222     
 405440000  -82.255812      112.66141      325.82386    
 405450000  -75.946649      107.45666      310.7714     
 405460000  -67.280993      110.7569       320.31589    
 405470000  -67.435006      100.07038      289.40983    
 405480000  -73.818008      105.6467       305.53688    
 405490000  -59.573997      117.30747      339.26057    
 405500000  -61.144574      115.05544      332.74756    
 405510000  -50.123476      106.20425      307.14936    
 405520000  -47.318687      102.64644      296.85993    
 405530000  -64.018873      105.29552      304.52124    
 405540000  -57.661177      104.25459      301.51081    
 405550000  -82.00135       113.41275      327.99679    
 405560000  -87.94793       112.26394      324.67435    
 405570000  -82.993302      100.54221      290.77438    
 405580000  -76.536718      102.68888      296.98267    
 405590000  -69.893973      120.2828       347.86541    
 405600000  -80.990951      116.29886      336.34359    
 405610000  -70.543235      104.70312      302.80799    
 405620000  -58.715939      97.691036      282.52861    
 405630000  -77.102096      117.62915      340.19089    
 405640000  -75.484169      113.95159      329.55515    
 405650000  -68.514193      99.165389      286.79253    
 405660000  -84.850057      111.69841      323.03881    
 405670000  -74.8348        103.73533      300.00909    
 405680000  -74.114618      108.98761      315.19901    
 405690000  -77.717556      107.02254      309.5159     
 405700000  -79.195294      108.17516      312.84935    
 405710000  -83.898502      111.10417      321.32022    
 405720000  -81.212779      107.83151      311.85548    
 405730000  -72.689513      97.227851      281.18905    
 405740000  -75.285739      103.5199       299.38603    
 405750000  -77.381496      97.651259      282.41357    
 405760000  -52.220549      106.55547      308.16509    
 405770000  -65.911859      111.75517      323.20296    
 405780000  -74.908815      109.98401      318.08064    
 405790000  -65.543748      102.62144      296.78765    
 405800000  -65.258255      116.67452      337.43003    
 405810000  -60.398837      98.578515      285.09525    
 405820000  -87.673412      95.888216      277.31474    
 405830000  -81.190254      107.78621      311.72447    
 405840000  -89.912738      94.014134      271.89477    
 405850000  -72.242772      95.933428      277.44549    
 405860000  -82.504274      114.20779      330.29608    
 405870000  -68.509791      105.11515      303.99961    
 405880000  -80.37167       101.42438      293.32566    
 405890000  -92.425778      100.87834      291.74649    
 405900000  -95.774642      112.20768      324.51164    
 405910000  -74.089665      115.02471      332.65868    
 405920000  -70.159256      114.54727      331.2779     
 405930000  -87.9355        117.79701      340.67634    
 405940000  -62.682799      95.974972      277.56564    
 405950000  -66.619422      102.14747      295.4169     
 405960000  -86.048075      109.40437      316.4043     
 405970000  -74.83876       112.68384      325.88873    
 405980000  -64.188446      113.42883      328.04328    
 405990000  -55.929337      122.38353      353.94085    
 406000000  -55.686096      102.83619      297.40871    
 406010000  -81.269584      97.795446      282.83056    
 406020000  -92.697024      97.721977      282.61809    
 406030000  -85.716425      104.3171       301.69159    
 406040000  -97.548242      119.01973      344.21252    
 406050000  -76.386953      107.54354      311.02268    
 406060000  -76.390778      111.35312      322.04021    
 406070000  -69.67699       112.8747       326.44072    
 406080000  -67.791665      116.94253      338.20513    
 406090000  -80.142197      105.98945      306.52814    
 406100000  -76.516089      107.78346      311.71653    
 406110000  -81.298801      130.73623      378.09739    
 406120000  -61.16598       98.727389      285.5258     
 406130000  -66.337892      96.569223      279.28425    
 406140000  -82.302255      104.74566      302.93103    
 406150000  -75.787635      114.88975      332.26836    
 406160000  -51.441091      86.364741      249.77225    
 406170000  -73.560262      103.29398      298.73268    
 406180000  -90.713371      95.508235      276.21581    
 406190000  -91.224748      105.62587      305.47665    
 406200000  -97.174982      113.62653      328.61504    
 406210000  -78.782353      105.55067      305.25915    
 406220000  -88.556883      122.89645      355.42424    
 406230000  -62.649431      99.011636      286.34786    
 406240000  -83.391251      103.04308      298.00704    
 406250000  -84.274092      107.04022      309.56703    
 406260000  -95.9775        95.89343       277.32981    
 406270000  -71.285883      90.820332      262.6581     
 406280000  -74.156961      96.501917      279.0896     
 406290000  -87.908746      109.05488      315.39356    
 406300000  -86.116459      102.08669      295.24111    
 406310000  -98.367706      114.33048      330.65092    
 406320000  -90.187089      112.48786      325.32196    
 406330000  -100.7131       103.78912      300.16466    
 406340000  -77.163127      105.03952      303.78087    
 406350000  -64.707935      91.654332      265.07008    
 406360000  -95.284244      101.7257       294.19711    
 406370000  -96.639545      107.58726      311.1491     
 406380000  -67.692901      86.476885      250.09658    
 406390000  -80.892977      96.95577       280.40217    
 406400000  -67.958275      112.34349      324.90442    
 406410000  -76.202806      109.25365      315.96842    
 406420000  -80.065497      108.19255      312.89965    
 406430000  -67.97633       105.35592      304.69593    
 406440000  -54.9533        107.27622      310.24955    
 406450000  -69.54229       105.60546      305.41761    
 406460000  -73.878582      106.68179      308.53043    
 406470000  -78.521986      98.288935      284.25777    
 406480000  -91.373968      116.65215      337.36535    
 406490000  -83.972435      109.72775      317.33953    
 406500000  -96.876177      114.82233      332.07339    
 406510000  -69.348265      92.069243      266.27003    
 406520000  -79.77347       108.63165      314.16953    
 406530000  -84.431361      111.08217      321.25661    
 406540000  -72.079168      92.642404      267.92764    
 406550000  -62.027511      105.4019       304.82891    
 406560000  -55.626054      109.7413       317.37873    
 406570000  -51.313977      96.567121      279.27817    
 406580000  -43.585294      98.945978      286.15798    
 406590000  -63.024605      103.5821       299.56594    
 406600000  -75.353576      108.41247      313.53567    
 406610000  -79.814893      98.735035      285.54791    
 406620000  -82.690003      101.51219      293.57963    
 406630000  -85.095879      101.37841      293.19271    
 406640000  -79.75242       91.606179      264.93082    
 406650000  -66.919201      99.783523      288.58021    
 406660000  -76.239327      103.76977      300.10869    
 406670000  -89.476748      107.37891      310.54654    
 406680000  -83.897074      108.87822      314.88265    
 406690000  -75.245914      93.931653      271.65623    
 406700000  -82.884219      101.70872      294.148      
 406710000  -87.738604      114.30304      330.57155    
 406720000  -84.24104       98.00033       283.4231     
 406730000  -74.175693      101.50744      293.56587    
 406740000  -82.651901      93.831256      271.36588    
 406750000  -79.540709      110.03541      318.2293     
 406760000  -83.806541      115.45233      333.89537    
 406770000  -75.406427      107.20699      310.04935    
 406780000  -72.281789      107.67007      311.38861    
 406790000  -80.979105      100.6102       290.97101    
 406800000  -73.734231      101.27594      292.89638    
 406810000  -67.97593       106.98698      309.41306    
 406820000  -68.380092      108.34401      313.33767    
 406830000  -60.319304      107.01734      309.50086    
 406840000  -67.288473      97.479858      281.91786    
 406850000  -57.882033      98.620856      285.2177     
 406860000  -66.069239      102.33887      295.97043    
 406870000  -70.76942       104.85925      303.25954    
 406880000  -70.743685      105.07078      303.87128    
 406890000  -80.982031      106.96673      309.3545     
 406900000  -77.951384      86.826949      251.10898    
 406910000  -56.247476      95.670908      276.68627    
 406920000  -58.631598      113.56468      328.43617    
 406930000  -72.829913      118.81048      343.60735    
 406940000  -77.830311      120.61761      348.83371    
 406950000  -98.809346      104.18215      301.30132    
 406960000  -93.605217      103.47108      299.24486    
 406970000  -76.805845      100.14622      289.62915    
 406980000  -76.625005      107.2999       310.31804    
 406990000  -83.771266      105.64543      305.53322    
 407000000  -78.965294      99.574741      287.9764     
 407010000  -71.582236      112.71706      325.98481    
 407020000  -62.579306      109.87445      317.7638     
 407030000  -68.513659      112.41852      325.1214     
 407040000  -55.591303      115.98241      335.42842    
 407050000  -27.817634      99.296103      287.17056    
 407060000  -56.651871      108.86071      314.83201    
 407070000  -42.321698      95.186593      275.2856     
 407080000  -62.027939      96.256104      278.37869    
 407090000  -74.335259      104.10219      301.07007    
 407100000  -73.159028      93.039226      269.07528    
 407110000  -67.688941      101.06015      292.27228    
 407120000  -83.396217      110.77138      320.35777    
 407130000  -79.587141      101.6604       294.00827    
 407140000  -90.177427      95.011583      274.77946    
 407150000  -72.205015      99.280248      287.12471    
 407160000  -86.657643      99.071342      286.52054    
 407170000  -91.510182      90.576382      261.95258    
 407180000  -113.15513      112.38619      325.0279     
 407190000  -93.773246      111.18545      321.5553     
 407200000  -86.195143      102.18863      295.53592    
 407210000  -73.913422      86.305301      249.60035    
 407220000  -82.953685      109.11439      315.56567    
 407230000  -79.447047      94.180391      272.3756     
 407240000  -50.069962      113.94674      329.54111    
 407250000  -55.130721      120.77206      349.28038    
 407260000  -59.199254      102.82481      297.37581    
 407270000  -83.080657      109.05201      315.38526    
 407280000  -86.41435       117.36286      339.42075    
 407290000  -94.556343      97.734448      282.65415    
 407300000  -93.774995      106.2404       307.2539     
 407310000  -77.981421      84.177997      243.44805    
 407320000  -75.171593      104.68466      302.7546     
 407330000  -86.955669      108.02307      312.40949    
 407340000  -88.744383      112.31169      324.81246    
 407350000  -84.919493      96.957245      280.40643    
 407360000  -96.872426      105.12284      304.02186    
 407370000  -94.092035      114.36711      330.75685    
 407380000  -99.545152      104.63036      302.59755    
 407390000  -99.812519      105.78203      305.92826    
 407400000  -88.117798      91.662882      265.0948     
 407410000  -84.363194      107.83606      311.86866    
 407420000  -83.031395      93.666251      270.88867    
 407430000  -68.429256      99.113617      286.6428     
 407440000  -76.479788      101.68181      294.07019    
 407450000  -81.020396      113.18472      327.3373     
 407460000  -73.137294      100.07611      289.4264     
 407470000  -72.376516      95.408081      275.92615    
 407480000  -82.233881      97.042334      280.65252    
 407490000  -96.695133      98.924708      286.09646    
 407500000  -93.341491      106.77789      308.80837    
 407510000  -78.243278      99.79341       288.6088     
 407520000  -85.683998      92.0573        266.23549    
 407530000  -81.324667      104.70263      302.80658    
 407540000  -74.322933      103.94047      300.60236    
 407550000  -65.857486      89.767776      259.61404    
 407560000  -87.674533      111.51454      322.50705    
 407570000  -78.890823      97.599141      282.26284    
 407580000  -63.734051      105.74903      305.83282    
 407590000  -60.619259      93.92411       271.63442    
 407600000  -78.840319      100.71795      291.28263    
 407610000  -85.687756      118.66568      343.18858    
 407620000  -65.145023      104.33416      301.74093    
 407630000  -80.057353      102.04338      295.11584    
 407640000  -67.169672      99.951542      289.06613    
 407650000  -77.154564      99.071367      286.52061    
 407660000  -87.397472      94.94304       274.58123    
 407670000  -99.684466      95.915156      277.39265    
 407680000  -71.705628      101.35189      293.11602    
 407690000  -85.717629      100.5034       290.66215    
 407700000  -78.984447      99.261839      287.07147    
 407710000  -86.211699      101.57034      293.74779    
 407720000  -80.691917      100.20756      289.80655    
 407730000  -67.081499      86.676718      250.6745     
 407740000  -76.72786       89.137269      257.79057    
 407750000  -73.618752      90.231266      260.95448    
 407760000  -86.887615      90.472236      261.65138    
 407770000  -86.15406       96.911712      280.27475    
 407780000  -84.946952      105.94237      306.39199    
 407790000  -92.206137      98.13395       283.80954    
 407800000  -85.24113       105.01101      303.69844    
 407810000  -75.756033      107.40784      310.6302     
 407820000  -88.123392      106.90024      309.16219    
 407830000  -76.468726      101.72059      294.18234    
 407840000  -64.808275      101.66168      294.01195    
 407850000  -64.040973      88.642069      256.35842    
 407860000  -77.522713      106.39139      307.69056    
 407870000  -79.133315      98.371274      284.4959     
 407880000  -90.908835      104.59014      302.48124    
 407890000  -88.666861      97.625769      282.33985    
 407900000  -88.036433      104.75277      302.95158    
 407910000  -81.781725      94.081955      272.09092    
 407920000  -74.131704      104.34604      301.77529    
 407930000  -76.725179      104.89186      303.35384    
 407940000  -84.953156      110.00791      318.14978    
 407950000  -76.921194      109.38443      316.34664    
 407960000  -74.952503      104.62704      302.58795    
 407970000  -78.226022      103.46939      299.23995    
 407980000  -94.010958      111.28262      321.83632    
 407990000  -70.0126        98.568943      285.06757    
 408000000  -83.538841      118.65214      343.14943    
Loop time of 408.109 on 1 procs for 4000000 steps with 117 atoms

Performance: 8468.325 ns/day, 0.003 hours/ns, 9801.302 timesteps/s, 1.147 Matom-step/s
99.2% CPU use with 1 MPI tasks x 1 OpenMP threads

MPI task timing breakdown:
Section |  min time  |  avg time  |  max time  |%varavg| %total
---------------------------------------------------------------
Pair    | 370.72     | 370.72     | 370.72     |   0.0 | 90.84
Bond    | 23.505     | 23.505     | 23.505     |   0.0 |  5.76
Neigh   | 1.5449     | 1.5449     | 1.5449     |   0.0 |  0.38
Comm    | 1.8976     | 1.8976     | 1.8976     |   0.0 |  0.46
Output  | 0.13624    | 0.13624    | 0.13624    |   0.0 |  0.03
Modify  | 9.632      | 9.632      | 9.632      |   0.0 |  2.36
Other   |            | 0.6694     |            |       |  0.16

Nlocal:            117 ave         117 max         117 min
Histogram: 1 0 0 0 0 0 0 0 0 0
Nghost:              1 ave           1 max           1 min
Histogram: 1 0 0 0 0 0 0 0 0 0
Neighs:           1468 ave        1468 max        1468 min
Histogram: 1 0 0 0 0 0 0 0 0 0

Total # of neighbors = 1468
Ave neighs/atom = 12.547009
Ave special neighs/atom = 5.8974359
Neighbor list builds = 8245
Dangerous builds = 0
System init for write_data ...
Generated 0 of 6 mixed pair_coeff terms from geometric mixing rule
Total wall time: 7:50:11
