LAMMPS (29 Aug 2024)
  using 1 OpenMP thread(s) per MPI task
  using 1 OpenMP thread(s) per MPI task
Reading data file ...
  orthogonal box = (-500.6 -500.6 -500.6) to (500.6 500.6 500.6)
  1 by 1 by 1 MPI processor grid
  reading atoms ...
  61 atoms
  scanning bonds ...
  1 = max bonds/atom
  scanning angles ...
  1 = max angles/atom
  orthogonal box = (-500.6 -500.6 -500.6) to (500.6 500.6 500.6)
  1 by 1 by 1 MPI processor grid
  reading bonds ...
  60 bonds
  reading angles ...
  59 angles
Finding 1-2 1-3 1-4 neighbors ...
  special bond factors lj:    0        0        0       
  special bond factors coul:  0        0        0       
     2 = max # of 1-2 neighbors
     2 = max # of 1-3 neighbors
     4 = max # of 1-4 neighbors
     6 = max # of special neighbors
  special bonds CPU = 0.000 seconds
  read_data CPU = 0.024 seconds
Finding 1-2 1-3 1-4 neighbors ...
  special bond factors lj:    0        0        1       
  special bond factors coul:  0        0        0       
     2 = max # of 1-2 neighbors
     2 = max # of 1-3 neighbors
     4 = max # of 1-4 neighbors
     6 = max # of special neighbors
  special bonds CPU = 0.000 seconds
=== TEST: starting equilibration at 298 K ===

CITE-CITE-CITE-CITE-CITE-CITE-CITE-CITE-CITE-CITE-CITE-CITE-CITE

Your simulation uses code contributions which should be cited:
- Type Label Framework: https://doi.org/10.1021/acs.jpcb.3c08419
The log file lists these citations in BibTeX format.

CITE-CITE-CITE-CITE-CITE-CITE-CITE-CITE-CITE-CITE-CITE-CITE-CITE

Generated 0 of 6 mixed pair_coeff terms from geometric mixing rule
Neighbor list info ...
  update: every = 10 steps, delay = 0 steps, check = yes
  max neighbors/atom: 2000, page size: 100000
  master list distance cutoff = 33
  ghost atom cutoff = 33
  binsize = 16.5, bins = 61 61 61
  2 neighbor lists, perpetual/occasional/extra = 2 0 0
  (1) pair lj/cut, perpetual, trim from (2)
      attributes: half, newton on, cut 25
      pair build: trim
      stencil: none
      bin: none
  (2) pair base/rna, perpetual
      attributes: half, newton on
      pair build: half/bin/newton
      stencil: half/bin/3d
      bin: standard
Setting up Verlet run ...
  Unit style    : real
  Current step  : 0
  Time step     : 10
Per MPI rank memory allocation (min/avg/max) = 8.369 | 8.369 | 8.369 Mbytes
   Step         PotEng         KinEng          Temp     
         0   80.875924      0              0            
      1000   35.20734       46.676266      260.982      
      2000   33.122307      48.326439      270.20865    
      3000   34.383437      50.071777      279.96739    
      4000   33.768267      53.681703      300.15165    
      5000   32.373523      57.924502      323.8745     
      6000   37.768898      53.688514      300.18973    
      7000   31.68932       57.711635      322.68429    
      8000   35.417261      50.463212      282.15603    
      9000   28.147471      59.226114      331.15223    
     10000   32.304438      54.107959      302.53498    
     11000   36.682135      53.333509      298.20478    
     12000   32.083258      56.037228      313.32214    
     13000   37.258386      55.469724      310.14905    
     14000   38.065553      54.463791      304.52455    
     15000   30.973263      60.397441      337.70149    
     16000   29.290161      64.126967      358.55447    
     17000   27.459643      61.328476      342.90721    
     18000   27.929888      60.44098       337.94494    
     19000   32.366881      56.471066      315.74787    
     20000   29.729414      62.502326      349.47058    
     21000   35.824543      49.70145       277.89678    
     22000   33.413023      53.809029      300.86357    
     23000   29.221462      57.474316      321.35737    
     24000   30.269511      56.226323      314.37944    
     25000   30.87262       59.680659      333.69374    
     26000   33.239175      56.155902      313.98569    
     27000   33.977381      56.762915      317.37969    
     28000   33.59347       57.120315      319.37803    
     29000   42.360514      48.950423      273.69754    
     30000   38.010697      51.730052      289.23934    
     31000   40.097275      51.075203      285.57787    
     32000   37.847976      55.284635      309.11416    
     33000   42.542212      49.767992      278.26883    
     34000   43.575699      51.028457      285.31649    
     35000   31.415758      60.305292      337.18626    
     36000   30.212541      53.827073      300.96446    
     37000   29.685256      53.905032      301.40035    
     38000   32.258004      53.664544      300.05571    
     39000   26.308683      60.748136      339.66235    
     40000   30.736323      56.109398      313.72567    
Loop time of 0.523139 on 1 procs for 40000 steps with 61 atoms

Performance: 66062.774 ns/day, 0.000 hours/ns, 76461.544 timesteps/s, 4.664 Matom-step/s
97.9% CPU use with 1 MPI tasks x 1 OpenMP threads

MPI task timing breakdown:
Section |  min time  |  avg time  |  max time  |%varavg| %total
---------------------------------------------------------------
Pair    | 0.29956    | 0.29956    | 0.29956    |   0.0 | 57.26
Bond    | 0.12707    | 0.12707    | 0.12707    |   0.0 | 24.29
Neigh   | 0.013796   | 0.013796   | 0.013796   |   0.0 |  2.64
Comm    | 0.015907   | 0.015907   | 0.015907   |   0.0 |  3.04
Output  | 0.0071642  | 0.0071642  | 0.0071642  |   0.0 |  1.37
Modify  | 0.053771   | 0.053771   | 0.053771   |   0.0 | 10.28
Other   |            | 0.005866   |            |       |  1.12

Nlocal:             61 ave          61 max          61 min
Histogram: 1 0 0 0 0 0 0 0 0 0
Nghost:              0 ave           0 max           0 min
Histogram: 1 0 0 0 0 0 0 0 0 0
Neighs:            197 ave         197 max         197 min
Histogram: 1 0 0 0 0 0 0 0 0 0

Total # of neighbors = 197
Ave neighs/atom = 3.2295082
Ave special neighs/atom = 5.8032787
Neighbor list builds = 97
Dangerous builds = 0
=== TEST: cycle 1/2 : heat 298 -> 500 K ===
Generated 0 of 6 mixed pair_coeff terms from geometric mixing rule
Setting up Verlet run ...
  Unit style    : real
  Current step  : 40000
  Time step     : 10
Per MPI rank memory allocation (min/avg/max) = 9.626 | 9.626 | 9.626 Mbytes
   Step         PotEng         KinEng          Temp     
     40000   30.736323      56.109398      313.72567    
     41000   32.39963       53.358053      298.34201    
     42000   22.748334      56.340719      315.01906    
     43000   25.566086      53.226344      297.60559    
     44000   27.93991       57.266483      320.19531    
     45000   23.640419      62.075103      347.08184    
     46000   30.183919      51.353646      287.13473    
     47000   23.280937      55.403365      309.77801    
     48000   17.360376      60.79991       339.95183    
     49000   13.377471      58.112883      324.9278     
     50000   13.466531      60.389929      337.6595     
     51000   10.702958      63.898442      357.27672    
     52000   11.563119      56.437693      315.56127    
     53000   11.617032      55.408848      309.80867    
     54000   11.28758       55.653604      311.17718    
     55000   15.549975      64.153106      358.70063    
     56000   25.382195      52.817926      295.322      
     57000   22.754771      58.292399      325.93153    
     58000   7.58431        72.008556      402.62297    
     59000   25.380907      60.191803      336.55171    
     60000   21.796367      70.159106      392.2821     
     61000   12.885244      72.408152      404.85724    
     62000   20.187242      66.67379       372.79458    
     63000   22.875318      66.455151      371.5721     
     64000   30.557916      60.24921       336.87269    
     65000   27.145809      68.138203      380.98258    
     66000   30.321646      65.38385       365.58211    
     67000   25.796365      65.921533      368.58847    
     68000   23.253567      70.516937      394.28285    
     69000   6.1240817      83.54393       467.12095    
     70000   24.362843      72.092584      403.0928     
     71000   22.437353      68.722362      384.24881    
     72000   22.280855      70.615791      394.83558    
     73000   26.630758      72.605151      405.95873    
     74000   15.164413      87.133526      487.19154    
     75000   20.756001      86.582332      484.10964    
     76000   32.405534      61.500425      343.86864    
     77000   30.685575      64.697596      361.74504    
     78000   30.840423      69.924718      390.97156    
     79000   30.115994      67.585988      377.89498    
     80000   33.064241      71.451874      399.51038    
     81000   26.781464      80.672268      451.06457    
     82000   32.468687      77.571204      433.72553    
     83000   25.611598      78.112777      436.75363    
     84000   23.006003      79.374711      443.80951    
     85000   33.415372      66.594086      372.34893    
     86000   34.566717      70.372997      393.47804    
     87000   18.682229      85.955874      480.60691    
     88000   31.337995      77.319997      432.32095    
     89000   39.346339      66.320461      370.81901    
     90000   27.525273      75.36552       421.39284    
     91000   21.813767      80.594368      450.629      
     92000   28.600687      76.103674      425.52009    
     93000   24.238339      82.77617       462.82816    
     94000   32.565593      68.696337      384.10329    
     95000   26.562608      66.678507      372.82096    
     96000   32.343655      67.570763      377.80985    
     97000   24.93437       80.256111      448.7377     
     98000   29.509741      82.408488      460.77233    
     99000   36.704906      71.61002       400.39463    
    100000   25.938434      81.06484       453.25956    
    101000   25.952909      87.702887      490.37502    
    102000   29.544851      82.764348      462.76206    
    103000   28.634106      79.3897        443.89332    
    104000   35.702169      67.561394      377.75746    
    105000   33.671727      77.777555      434.8793     
    106000   29.910087      81.862194      457.71783    
    107000   35.201088      91.238575      510.14419    
    108000   41.453445      86.690543      484.71468    
    109000   44.874082      86.484107      483.56043    
    110000   39.442581      83.794979      468.52465    
    111000   44.762985      79.456139      444.2648     
    112000   46.114755      81.029601      453.06253    
    113000   46.309788      75.641143      422.93393    
    114000   41.857483      74.277977      415.31203    
    115000   49.438787      70.597621      394.73398    
    116000   42.402186      81.485068      455.60919    
    117000   40.640275      86.717379      484.86472    
    118000   51.424564      73.327433      409.99723    
    119000   43.736093      86.029619      481.01924    
    120000   49.695202      73.840866      412.868      
Loop time of 2.3995 on 1 procs for 80000 steps with 61 atoms

Performance: 28806.048 ns/day, 0.001 hours/ns, 33340.333 timesteps/s, 2.034 Matom-step/s
99.1% CPU use with 1 MPI tasks x 1 OpenMP threads

MPI task timing breakdown:
Section |  min time  |  avg time  |  max time  |%varavg| %total
---------------------------------------------------------------
Pair    | 1.94       | 1.94       | 1.94       |   0.0 | 80.85
Bond    | 0.25655    | 0.25655    | 0.25655    |   0.0 | 10.69
Neigh   | 0.033168   | 0.033168   | 0.033168   |   0.0 |  1.38
Comm    | 0.034131   | 0.034131   | 0.034131   |   0.0 |  1.42
Output  | 0.012833   | 0.012833   | 0.012833   |   0.0 |  0.53
Modify  | 0.10962    | 0.10962    | 0.10962    |   0.0 |  4.57
Other   |            | 0.01315    |            |       |  0.55

Nlocal:             61 ave          61 max          61 min
Histogram: 1 0 0 0 0 0 0 0 0 0
Nghost:              0 ave           0 max           0 min
Histogram: 1 0 0 0 0 0 0 0 0 0
Neighs:            298 ave         298 max         298 min
Histogram: 1 0 0 0 0 0 0 0 0 0

Total # of neighbors = 298
Ave neighs/atom = 4.8852459
Ave special neighs/atom = 5.8032787
Neighbor list builds = 215
Dangerous builds = 0
=== TEST: cycle 1: hold at 500 K ===
Generated 0 of 6 mixed pair_coeff terms from geometric mixing rule
Setting up Verlet run ...
  Unit style    : real
  Current step  : 120000
  Time step     : 10
Per MPI rank memory allocation (min/avg/max) = 9.626 | 9.626 | 9.626 Mbytes
   Step         PotEng         KinEng          Temp     
    120000   49.695202      73.840866      412.868      
    121000   51.288032      79.492355      444.4673     
    122000   45.903828      85.40116       477.50532    
    123000   49.823889      80.805147      451.80754    
    124000   45.070766      89.736702      501.74673    
    125000   53.743543      83.916857      469.20611    
    126000   57.969472      89.041468      497.85945    
    127000   58.808576      91.597124      512.14895    
    128000   54.217449      105.56177      590.22975    
    129000   56.474063      99.138495      554.31518    
    130000   50.476429      99.867664      558.3922     
    131000   58.760351      92.175524      515.38297    
    132000   52.251397      92.296375      516.05869    
    133000   50.686528      90.878228      508.12937    
    134000   54.525514      89.635246      501.17946    
    135000   54.04332       89.673366      501.3926     
    136000   52.447012      81.930649      458.10058    
    137000   53.000099      89.1183        498.28905    
    138000   49.556044      91.551439      511.89351    
    139000   49.280309      92.396213      516.61691    
    140000   60.982677      76.049607      425.21779    
    141000   42.988345      95.062739      531.52632    
    142000   41.908763      97.060667      542.69738    
    143000   55.098235      85.953733      480.59494    
    144000   43.191615      92.062216      514.74943    
    145000   50.471304      86.328542      482.69062    
    146000   50.917412      82.698998      462.39667    
    147000   44.700762      92.092265      514.91744    
    148000   37.643418      100.17188      560.09314    
    149000   50.719123      80.683175      451.12555    
    150000   48.569131      89.842172      502.33645    
    151000   60.379427      90.120722      503.89391    
    152000   64.882539      94.237974      526.91479    
    153000   51.428774      107.8111       602.80652    
    154000   68.709671      92.388892      516.57598    
    155000   56.68389       98.698883      551.85716    
    156000   60.596694      96.859309      541.57151    
    157000   69.607136      81.261015      454.35644    
    158000   53.799578      94.795893      530.0343     
    159000   66.437137      88.319528      493.82285    
    160000   79.459862      89.700182      501.54254    
    161000   71.747884      97.591065      545.663      
    162000   72.762015      93.544601      523.03792    
    163000   65.27927       99.798279      558.00424    
    164000   57.46042       99.747093      557.71804    
    165000   68.297859      92.60359       517.77642    
    166000   64.750751      102.07397      570.72839    
    167000   77.308292      94.972314      531.02072    
    168000   53.987629      106.61424      596.11447    
    169000   57.147237      107.91732      603.40041    
    170000   63.275454      85.391305      477.45022    
    171000   65.226534      92.641117      517.98625    
    172000   67.22711       89.513789      500.50035    
    173000   79.300855      74.009608      413.8115     
    174000   63.165461      99.677131      557.32686    
    175000   64.164957      96.468826      539.3882     
    176000   66.611833      102.2222       571.55715    
    177000   67.747749      106.00293      592.69644    
    178000   70.355446      103.37656      578.01157    
    179000   61.032091      107.36533      600.31404    
    180000   59.839685      101.22532      565.98329    
    181000   58.448871      96.192977      537.84584    
    182000   55.552933      100.76137      563.38921    
    183000   53.822188      97.17485       543.33581    
    184000   57.959671      93.963047      525.37758    
    185000   62.192402      88.781354      496.40507    
    186000   57.746209      90.820628      507.80731    
    187000   65.005929      91.241478      510.16042    
    188000   62.763721      96.955682      542.11037    
    189000   72.716426      83.978857      469.55277    
    190000   64.909329      93.153846      520.85308    
    191000   62.06317       96.784953      541.15577    
    192000   53.307163      105.2001       588.20758    
    193000   67.595108      88.114712      492.67766    
    194000   65.633724      94.704022      529.52061    
    195000   56.557694      105.25293      588.50295    
    196000   68.597127      98.430438      550.3562     
    197000   74.029127      103.12684      576.61529    
    198000   67.071755      95.583943      534.44054    
    199000   59.934224      107.98992      603.80634    
    200000   63.595266      104.85611      586.28421    
Loop time of 1.57755 on 1 procs for 80000 steps with 61 atoms

Performance: 43814.687 ns/day, 0.001 hours/ns, 50711.443 timesteps/s, 3.093 Matom-step/s
99.1% CPU use with 1 MPI tasks x 1 OpenMP threads

MPI task timing breakdown:
Section |  min time  |  avg time  |  max time  |%varavg| %total
---------------------------------------------------------------
Pair    | 1.1189     | 1.1189     | 1.1189     |   0.0 | 70.92
Bond    | 0.25484    | 0.25484    | 0.25484    |   0.0 | 16.15
Neigh   | 0.038013   | 0.038013   | 0.038013   |   0.0 |  2.41
Comm    | 0.032782   | 0.032782   | 0.032782   |   0.0 |  2.08
Output  | 0.012145   | 0.012145   | 0.012145   |   0.0 |  0.77
Modify  | 0.10853    | 0.10853    | 0.10853    |   0.0 |  6.88
Other   |            | 0.01237    |            |       |  0.78

Nlocal:             61 ave          61 max          61 min
Histogram: 1 0 0 0 0 0 0 0 0 0
Nghost:              0 ave           0 max           0 min
Histogram: 1 0 0 0 0 0 0 0 0 0
Neighs:            162 ave         162 max         162 min
Histogram: 1 0 0 0 0 0 0 0 0 0

Total # of neighbors = 162
Ave neighs/atom = 2.6557377
Ave special neighs/atom = 5.8032787
Neighbor list builds = 270
Dangerous builds = 0
=== TEST: cycle 1: cool 500 -> 298 K ===
Generated 0 of 6 mixed pair_coeff terms from geometric mixing rule
Setting up Verlet run ...
  Unit style    : real
  Current step  : 200000
  Time step     : 10
Per MPI rank memory allocation (min/avg/max) = 9.626 | 9.626 | 9.626 Mbytes
   Step         PotEng         KinEng          Temp     
    200000   63.595266      104.85611      586.28421    
    201000   60.720804      112.45576      628.77629    
    202000   73.125524      90.697257      507.1175     
    203000   58.332957      100.44203      561.60369    
    204000   59.25184       105.52098      590.0017     
    205000   64.16975       106.86544      597.51901    
    206000   60.610618      97.539936      545.37712    
    207000   59.800632      98.495133      550.71793    
    208000   60.454789      94.521134      528.49803    
    209000   59.282366      106.62162      596.15574    
    210000   59.488068      104.81611      586.06055    
    211000   62.84863       95.039348      531.39553    
    212000   67.288607      86.879843      485.77311    
    213000   64.092849      90.6491        506.84824    
    214000   67.565272      86.816505      485.41897    
    215000   53.468533      101.75391      568.93881    
    216000   64.875508      95.41229       533.48077    
    217000   66.131403      84.946437      474.96282    
    218000   71.9714        81.508535      455.74041    
    219000   68.30508       81.931414      458.10486    
    220000   50.028223      97.66701       546.08763    
    221000   49.341829      97.244048      543.72272    
    222000   67.614042      86.650495      484.49076    
    223000   70.712295      98.846509      552.68259    
    224000   60.699602      96.192118      537.84104    
    225000   61.474698      100.28196      560.70867    
    226000   68.886522      89.460242      500.20095    
    227000   69.778371      86.203903      481.99372    
    228000   58.978939      89.33104       499.47855    
    229000   59.061901      92.536148      517.39934    
    230000   63.721         94.972166      531.01989    
    231000   53.043119      92.885638      519.35345    
    232000   59.653142      98.991189      553.49154    
    233000   52.335193      104.81203      586.03772    
    234000   56.644136      88.193036      493.1156     
    235000   68.511917      79.624822      445.20796    
    236000   52.09275       92.608117      517.80174    
    237000   56.712332      85.342828      477.17917    
    238000   56.89976       85.904506      480.31969    
    239000   57.003408      91.008136      508.85573    
    240000   55.271321      92.228744      515.68054    
    241000   57.893573      87.277739      487.99788    
    242000   56.812027      93.446965      522.492      
    243000   65.721013      87.737681      490.56956    
    244000   62.843235      90.505293      506.04417    
    245000   64.385822      89.845289      502.35388    
    246000   59.604292      90.139179      503.99711    
    247000   62.639831      87.240302      487.78856    
    248000   44.768294      101.0894       565.22331    
    249000   50.348874      100.06283      559.48346    
    250000   64.006299      83.627854      467.5902     
    251000   52.079924      98.333837      549.81608    
    252000   47.805372      93.358817      521.99914    
    253000   59.438471      72.467272      405.1878     
    254000   45.061696      77.35262       432.50335    
    255000   50.176083      73.948561      413.47016    
    256000   41.618609      75.784584      423.73596    
    257000   51.619145      66.178822      370.02706    
    258000   40.649547      87.877288      491.35015    
    259000   44.511061      78.719277      440.14477    
    260000   42.827863      77.541712      433.56062    
    261000   43.979658      79.109331      442.32568    
    262000   50.326485      74.865769      418.59857    
    263000   51.254685      76.464085      427.53527    
    264000   49.962372      76.77937       429.29813    
    265000   54.282161      70.42059       393.74414    
    266000   50.977495      74.099533      414.3143     
    267000   54.854843      74.491984      416.50861    
    268000   46.916324      83.692698      467.95276    
    269000   47.577171      77.233805      431.83902    
    270000   47.055486      73.561745      411.30735    
    271000   46.438549      77.74557       434.70046    
    272000   51.483462      77.210691      431.70978    
    273000   52.898331      78.693743      440.002      
    274000   47.19673       83.065113      464.44373    
    275000   44.383689      88.441563      494.50519    
    276000   51.376485      74.255184      415.18459    
    277000   40.144104      82.433047      460.90965    
    278000   48.922888      72.033336      402.76153    
    279000   40.816422      74.204156      414.89928    
    280000   41.014787      69.617068      389.25139    
    281000   51.041875      64.704923      361.78601    
    282000   50.771957      70.911146      396.487      
    283000   46.418237      70.838583      396.08128    
    284000   45.226897      70.267673      392.88914    
    285000   41.17937       67.792498      379.04964    
    286000   48.041769      64.052545      358.13836    
    287000   46.703151      65.001107      363.44207    
    288000   39.339554      68.971534      385.642      
    289000   42.619331      71.506784      399.8174     
    290000   41.462885      70.758646      395.63432    
    291000   35.465735      77.390273      432.71388    
    292000   42.387702      72.972246      408.01127    
    293000   36.400697      78.035349      436.32071    
    294000   38.530294      73.385059      410.31944    
    295000   35.280727      79.698073      445.61753    
    296000   37.608899      70.885601      396.34417    
    297000   41.8773        63.607278      355.64873    
    298000   45.792076      63.880233      357.17491    
    299000   38.578063      71.877544      401.89044    
    300000   46.378436      65.202282      364.56691    
    301000   38.935284      74.704474      417.69671    
    302000   36.539788      71.765436      401.26361    
    303000   31.309644      71.980931      402.46851    
    304000   30.086286      70.842046      396.10064    
    305000   28.778         77.829197      435.16805    
    306000   27.977801      76.387539      427.10727    
    307000   32.710135      73.088803      408.66298    
    308000   30.567279      75.601024      422.70961    
    309000   45.500203      62.880176      351.58327    
    310000   32.573596      70.870001      396.25694    
    311000   25.704568      82.254255      459.90997    
    312000   26.425939      78.20793       437.28566    
    313000   32.507314      69.346978      387.74123    
    314000   39.512966      55.8854        312.47323    
    315000   34.415692      63.284812      353.84572    
    316000   36.02809       65.165627      364.36195    
    317000   33.807118      61.452311      343.59962    
    318000   32.016815      68.574162      383.42017    
    319000   37.566128      64.917836      362.97648    
    320000   32.694429      65.169298      364.38248    
    321000   23.74091       72.90782       407.65104    
    322000   19.358677      68.3626        382.23726    
    323000   8.4679089      78.09558       436.65748    
    324000   12.040812      75.736178      423.4653     
    325000   29.667396      62.14241       347.45818    
    326000   16.571248      81.369823      454.96482    
    327000   29.381211      65.750505      367.6322     
    328000   27.112559      73.3442        410.09098    
    329000   23.206383      74.721961      417.79449    
    330000   24.389984      63.906206      357.32013    
    331000   19.549381      67.119643      375.28749    
    332000   15.497232      72.696019      406.4668     
    333000   9.6313589      75.67606       423.12916    
    334000   0.88269152     69.822983      390.40273    
    335000  -3.4900599      71.742438      401.13502    
    336000  -7.0921287      68.941914      385.47639    
    337000  -0.74556615     61.61866       344.52972    
    338000  -3.4945013      66.196529      370.12606    
    339000  -2.1910389      60.617168      338.93006    
    340000  -0.58547384     58.520048      327.20439    
    341000  -7.8136682      60.820794      340.0686     
    342000  -12.253276      65.260792      364.89405    
    343000  -11.739506      58.358638      326.30189    
    344000  -15.607171      67.330251      376.46507    
    345000  -5.7659544      61.527267      344.01872    
    346000  -2.8640296      54.210596      303.10886    
    347000  -9.7998284      61.967986      346.48292    
    348000  -0.33605578     56.029184      313.27717    
    349000  -6.5808584      62.162558      347.57083    
    350000  -4.9522646      55.218127      308.74229    
    351000  -8.8403433      58.137314      325.0644     
    352000  -7.4299275      60.572142      338.67831    
    353000  -8.1270294      62.802972      351.15159    
    354000  -6.2979497      56.104479      313.69817    
    355000  -4.7712934      52.031588      290.92533    
    356000  -6.2184786      55.203808      308.66223    
    357000  -7.5058193      54.103964      302.51265    
    358000  -7.6707496      54.131252      302.66522    
    359000  -14.070329      59.329464      331.7301     
    360000  -9.6079758      51.715965      289.16058    
Loop time of 3.41864 on 1 procs for 160000 steps with 61 atoms

Performance: 40437.124 ns/day, 0.001 hours/ns, 46802.227 timesteps/s, 2.855 Matom-step/s
99.2% CPU use with 1 MPI tasks x 1 OpenMP threads

MPI task timing breakdown:
Section |  min time  |  avg time  |  max time  |%varavg| %total
---------------------------------------------------------------
Pair    | 2.5097     | 2.5097     | 2.5097     |   0.0 | 73.41
Bond    | 0.51025    | 0.51025    | 0.51025    |   0.0 | 14.93
Neigh   | 0.066615   | 0.066615   | 0.066615   |   0.0 |  1.95
Comm    | 0.066192   | 0.066192   | 0.066192   |   0.0 |  1.94
Output  | 0.024606   | 0.024606   | 0.024606   |   0.0 |  0.72
Modify  | 0.21631    | 0.21631    | 0.21631    |   0.0 |  6.33
Other   |            | 0.02492    |            |       |  0.73

Nlocal:             61 ave          61 max          61 min
Histogram: 1 0 0 0 0 0 0 0 0 0
Nghost:              0 ave           0 max           0 min
Histogram: 1 0 0 0 0 0 0 0 0 0
Neighs:            610 ave         610 max         610 min
Histogram: 1 0 0 0 0 0 0 0 0 0

Total # of neighbors = 610
Ave neighs/atom = 10
Ave special neighs/atom = 5.8032787
Neighbor list builds = 465
Dangerous builds = 0
=== TEST: cycle 1: hold at 298 K ===
Generated 0 of 6 mixed pair_coeff terms from geometric mixing rule
Setting up Verlet run ...
  Unit style    : real
  Current step  : 360000
  Time step     : 10
Per MPI rank memory allocation (min/avg/max) = 9.626 | 9.626 | 9.626 Mbytes
   Step         PotEng         KinEng          Temp     
    360000  -9.6079758      51.715965      289.16058    
    361000  -15.423236      61.247311      342.45339    
    362000  -15.272126      60.455403      338.02558    
    363000  -13.011858      55.518597      310.42231    
    364000  -16.327702      58.20176       325.42474    
    365000  -23.366334      60.3798        337.60286    
    366000  -26.81432       62.935914      351.89492    
    367000  -31.172852      66.643334      372.62429    
    368000  -25.384841      60.462212      338.06365    
    369000  -7.5406548      41.456283      231.7954     
    370000  -30.98086       60.725235      339.5343     
    371000  -23.204638      53.819554      300.92242    
    372000  -23.680344      54.29683       303.59102    
    373000  -23.883054      49.545254      277.02343    
    374000  -32.374983      55.929623      312.72049    
    375000  -38.110808      57.019182      318.81257    
    376000  -26.270373      49.888965      278.94523    
    377000  -25.944445      54.496281      304.70622    
    378000  -23.268274      53.353298      298.31543    
    379000  -24.845728      54.519921      304.83839    
    380000  -33.508638      59.120827      330.56354    
    381000  -31.699027      56.690921      316.97715    
    382000  -36.915181      53.759688      300.58769    
    383000  -37.526246      54.156237      302.80492    
    384000  -33.023655      50.129023      280.28747    
    385000  -37.992113      53.429811      298.74324    
    386000  -47.272361      60.950309      340.79276    
    387000  -41.259632      50.544564      282.61089    
    388000  -37.869164      47.779609      267.15114    
    389000  -31.894111      45.169334      252.55626    
    390000  -34.928814      50.454617      282.10797    
    391000  -30.879237      49.907492      279.04882    
    392000  -27.655739      46.261465      258.66271    
    393000  -29.225224      43.532732      243.40549    
    394000  -35.201178      54.687644      305.77619    
    395000  -22.678392      41.60275       232.61434    
    396000  -25.422855      44.008164      246.06378    
    397000  -28.621895      49.502344      276.78351    
    398000  -25.916309      46.245419      258.573      
    399000  -29.046132      44.903957      251.07245    
    400000  -25.023777      46.096911      257.74264    
    401000  -25.20881       53.544367      299.38376    
    402000  -23.778264      52.243011      292.10746    
    403000  -20.095566      48.40466       270.64601    
    404000  -16.689319      47.173821      263.76399    
    405000  -21.55944       55.077153      307.95406    
    406000  -19.039559      49.860014      278.78336    
    407000  -22.85259       52.963412      296.13545    
    408000  -20.046347      50.275376      281.10578    
    409000  -18.856637      55.369631      309.58939    
    410000  -15.025189      53.203509      297.47791    
    411000  -16.873726      53.87744       301.24608    
    412000  -25.668449      53.750158      300.5344     
    413000  -25.243264      57.231152      319.99776    
    414000  -25.601373      49.520933      276.88745    
    415000  -22.411472      46.811419      261.73769    
    416000  -23.685476      48.515981      271.26844    
    417000  -31.103502      55.212896      308.71304    
    418000  -29.965775      50.908217      284.6442     
    419000  -29.23476       50.139132      280.344      
    420000  -31.906644      45.123352      252.29916    
    421000  -30.08537       46.281643      258.77554    
    422000  -34.388808      50.322532      281.36945    
    423000  -34.564899      53.217624      297.55683    
    424000  -31.180807      50.32295       281.37178    
    425000  -29.4378        46.792933      261.63432    
    426000  -27.821982      44.73745       250.14146    
    427000  -24.634626      44.402262      248.26731    
    428000  -23.414796      42.518602      237.73517    
    429000  -29.415415      51.183139      286.18137    
    430000  -32.477002      51.558063      288.2777     
    431000  -25.351776      44.65751       249.69449    
    432000  -21.19622       45.037871      251.82121    
    433000  -27.006922      52.77557       295.08517    
    434000  -25.305304      52.165637      291.67484    
    435000  -25.792161      53.60006       299.69516    
    436000  -25.104939      58.085186      324.77293    
    437000  -14.602993      47.423389      265.1594     
    438000  -23.939785      55.834902      312.19087    
    439000  -26.337711      59.190285      330.9519     
    440000  -27.358504      54.304821      303.6357     
Loop time of 3.52382 on 1 procs for 80000 steps with 61 atoms

Performance: 19615.085 ns/day, 0.001 hours/ns, 22702.644 timesteps/s, 1.385 Matom-step/s
99.4% CPU use with 1 MPI tasks x 1 OpenMP threads

MPI task timing breakdown:
Section |  min time  |  avg time  |  max time  |%varavg| %total
---------------------------------------------------------------
Pair    | 3.0701     | 3.0701     | 3.0701     |   0.0 | 87.12
Bond    | 0.25723    | 0.25723    | 0.25723    |   0.0 |  7.30
Neigh   | 0.02541    | 0.02541    | 0.02541    |   0.0 |  0.72
Comm    | 0.033886   | 0.033886   | 0.033886   |   0.0 |  0.96
Output  | 0.012743   | 0.012743   | 0.012743   |   0.0 |  0.36
Modify  | 0.11055    | 0.11055    | 0.11055    |   0.0 |  3.14
Other   |            | 0.01389    |            |       |  0.39

Nlocal:             61 ave          61 max          61 min
Histogram: 1 0 0 0 0 0 0 0 0 0
Nghost:              0 ave           0 max           0 min
Histogram: 1 0 0 0 0 0 0 0 0 0
Neighs:            528 ave         528 max         528 min
Histogram: 1 0 0 0 0 0 0 0 0 0

Total # of neighbors = 528
Ave neighs/atom = 8.6557377
Ave special neighs/atom = 5.8032787
Neighbor list builds = 159
Dangerous builds = 0
=== TEST: cycle 2/2 : heat 298 -> 500 K ===
Generated 0 of 6 mixed pair_coeff terms from geometric mixing rule
Setting up Verlet run ...
  Unit style    : real
  Current step  : 440000
  Time step     : 10
Per MPI rank memory allocation (min/avg/max) = 9.626 | 9.626 | 9.626 Mbytes
   Step         PotEng         KinEng          Temp     
    440000  -27.358504      54.304821      303.6357     
    441000  -24.620202      49.010306      274.03237    
    442000  -27.383635      51.177038      286.14726    
    443000  -24.384959      51.372785      287.24174    
    444000  -29.942625      53.196256      297.43736    
    445000  -35.675703      54.166757      302.86374    
    446000  -27.126967      49.17699       274.96435    
    447000  -18.580171      44.830806      250.66344    
    448000  -28.682422      54.230919      303.22249    
    449000  -30.8018        60.094811      336.0094     
    450000  -28.591757      60.071449      335.87877    
    451000  -18.804984      54.042489      302.16892    
    452000  -23.67216       61.366581      343.12027    
    453000  -16.511332      58.879855      329.21618    
    454000  -15.33282       58.407195      326.57339    
    455000  -25.134066      69.622363      389.281      
    456000  -9.4034872      54.324076      303.74336    
    457000  -19.34341       59.520572      332.79864    
    458000  -28.214625      61.819688      345.65373    
    459000  -21.176352      54.671643      305.68672    
    460000  -20.20494       47.139782      263.57367    
    461000  -24.80009       58.567348      327.46886    
    462000  -20.546934      53.499642      299.13369    
    463000  -25.645703      59.462697      332.47504    
    464000  -18.041697      59.279207      331.44909    
    465000  -20.948806      65.614239      366.87029    
    466000  -15.047284      61.331277      342.92287    
    467000  -8.3555939      57.537698      321.71175    
    468000  -12.607264      68.890696      385.19002    
    469000  -7.5874766      67.236163      375.93899    
    470000  -14.73761       76.585977      428.2168     
    471000  -5.9328137      66.135945      369.78732    
    472000  -3.975281       68.580529      383.45577    
    473000  -9.8551118      74.104985      414.34478    
    474000   5.8316026      56.644001      316.71481    
    475000   0.49176381     59.583725      333.15175    
    476000  -5.605725       67.377379      376.72857    
    477000  -2.8171483      63.057732      352.57604    
    478000  -13.9107        74.526731      416.7029     
    479000  -5.7673894      66.57425       372.23802    
    480000  -3.5979013      59.20626       331.04122    
    481000  -4.133095       66.489428      371.76376    
    482000  -2.3259158      68.17776       381.20376    
    483000  -0.74043723     75.562071      422.49181    
    484000   5.4631656      68.750983      384.40884    
    485000  -1.1037132      77.72749       434.59937    
    486000   8.5753388      71.991818      402.52938    
    487000   15.870722      70.732334      395.4872     
    488000   14.883681      79.636944      445.27574    
    489000   18.780513      82.88405       463.43135    
    490000   27.099138      76.071186      425.33844    
    491000   10.172566      85.984882      480.7691     
    492000   20.808771      75.436207      421.78807    
    493000   17.245019      86.924174      486.02098    
    494000   8.4542184      87.422297      488.80615    
    495000   6.4132109      85.152717      476.1162     
    496000   11.492286      92.001363      514.40918    
    497000   19.271441      79.856351      446.50251    
    498000   17.949532      71.39399       399.18673    
    499000   7.4058052      72.668001      406.31014    
    500000   6.0689171      75.682472      423.16501    
    501000  -1.5570367      70.3637        393.42606    
    502000  -4.4161183      77.085808      431.01152    
    503000   6.1043353      68.289258      381.82718    
    504000  -17.204808      80.822713      451.90575    
    505000  -15.493496      81.41503       455.21759    
    506000  -1.3161066      76.434233      427.36835    
    507000  -1.1421821      72.513355      405.44547    
    508000   4.8396321      69.294685      387.44885    
    509000  -6.9219429      85.387751      477.43035    
    510000   21.030192      68.107266      380.8096     
    511000   14.038521      69.417719      388.13677    
    512000   8.6025376      75.838753      424.03884    
    513000   3.9956955      82.400311      460.72662    
    514000   11.705453      77.916576      435.65661    
    515000   15.747864      79.306158      443.42621    
    516000   4.1349559      84.102634      470.24485    
    517000   17.642687      69.764288      390.07455    
    518000   14.163008      75.114906      419.99157    
    519000   11.614746      80.341732      449.21644    
    520000   10.430811      88.488733      494.76894    
Loop time of 3.94139 on 1 procs for 80000 steps with 61 atoms

Performance: 17536.949 ns/day, 0.001 hours/ns, 20297.395 timesteps/s, 1.238 Matom-step/s
99.4% CPU use with 1 MPI tasks x 1 OpenMP threads

MPI task timing breakdown:
Section |  min time  |  avg time  |  max time  |%varavg| %total
---------------------------------------------------------------
Pair    | 3.4811     | 3.4811     | 3.4811     |   0.0 | 88.32
Bond    | 0.25824    | 0.25824    | 0.25824    |   0.0 |  6.55
Neigh   | 0.029422   | 0.029422   | 0.029422   |   0.0 |  0.75
Comm    | 0.034586   | 0.034586   | 0.034586   |   0.0 |  0.88
Output  | 0.012786   | 0.012786   | 0.012786   |   0.0 |  0.32
Modify  | 0.11094    | 0.11094    | 0.11094    |   0.0 |  2.81
Other   |            | 0.01428    |            |       |  0.36

Nlocal:             61 ave          61 max          61 min
Histogram: 1 0 0 0 0 0 0 0 0 0
Nghost:              0 ave           0 max           0 min
Histogram: 1 0 0 0 0 0 0 0 0 0
Neighs:            440 ave         440 max         440 min
Histogram: 1 0 0 0 0 0 0 0 0 0

Total # of neighbors = 440
Ave neighs/atom = 7.2131148
Ave special neighs/atom = 5.8032787
Neighbor list builds = 185
Dangerous builds = 0
=== TEST: cycle 2: hold at 500 K ===
Generated 0 of 6 mixed pair_coeff terms from geometric mixing rule
Setting up Verlet run ...
  Unit style    : real
  Current step  : 520000
  Time step     : 10
Per MPI rank memory allocation (min/avg/max) = 9.626 | 9.626 | 9.626 Mbytes
   Step         PotEng         KinEng          Temp     
    520000   10.430811      88.488733      494.76894    
    521000   35.802304      70.427076      393.78041    
    522000   24.457229      77.389808      432.71128    
    523000   18.264523      87.067089      486.82007    
    524000   24.950675      80.534858      450.29626    
    525000   22.418808      86.024812      480.99236    
    526000   26.247449      91.588547      512.10099    
    527000   24.761646      89.667147      501.35783    
    528000   31.162773      86.341237      482.7616     
    529000   44.258085      76.180948      425.95215    
    530000   38.335854      84.265076      471.15311    
    531000   34.725628      89.735459      501.73978    
    532000   25.559895      96.812982      541.31249    
    533000   34.052805      85.178374      476.25965    
    534000   40.784146      84.41336       471.98222    
    535000   47.975889      80.786591      451.70378    
    536000   47.342882      83.375514      466.17929    
    537000   57.788552      76.744207      429.10152    
    538000   43.146599      89.861892      502.44671    
    539000   37.407741      98.831235      552.59719    
    540000   43.983961      95.270991      532.69072    
    541000   35.0779        107.40718      600.54807    
    542000   54.373893      83.306814      465.79516    
    543000   47.289633      95.400711      533.41603    
    544000   38.751647      100.71386      563.12352    
    545000   52.393159      87.833892      491.10751    
    546000   48.152356      87.045027      486.69671    
    547000   56.821958      82.06964       458.87772    
    548000   50.440763      90.100268      503.77955    
    549000   44.314176      86.679163      484.65105    
    550000   44.860082      83.715948      468.08276    
    551000   41.148942      90.834848      507.88682    
    552000   41.548545      92.945499      519.68815    
    553000   44.67361       95.792516      535.60674    
    554000   53.656334      83.809736      468.60716    
    555000   55.879302      84.95365       475.00315    
    556000   59.844688      84.820169      474.25682    
    557000   57.226721      91.917936      513.94271    
    558000   56.334547      87.660247      490.1366     
    559000   59.419668      89.731628      501.71836    
    560000   52.818077      93.142198      520.78795    
    561000   53.214783      89.861226      502.44298    
    562000   65.903192      76.754514      429.15914    
    563000   61.61575       79.393074      443.91218    
    564000   56.809632      82.049771      458.76663    
    565000   47.918899      91.247003      510.19131    
    566000   46.880631      87.367664      488.50068    
    567000   46.313433      82.978134      463.95741    
    568000   54.675706      80.623038      450.78931    
    569000   41.905287      90.308762      504.9453     
    570000   40.481431      87.759959      490.69413    
    571000   40.738997      89.81928       502.20845    
    572000   48.700031      77.908452      435.61119    
    573000   46.741681      82.060142      458.82462    
    574000   36.95578       86.217284      482.06854    
    575000   45.476643      81.957709      458.25188    
    576000   37.007951      96.203424      537.90425    
    577000   42.962716      89.979629      503.10501    
    578000   52.634488      77.910464      435.62244    
    579000   43.3529        100.08639      559.61515    
    580000   48.070648      91.95485       514.14911    
    581000   40.815968      97.269165      543.86315    
    582000   40.83905       106.22032      593.91195    
    583000   46.127451      88.534621      495.02551    
    584000   49.892519      90.205157      504.36602    
    585000   48.189726      97.466777      544.96807    
    586000   62.692599      85.606908      478.65573    
    587000   64.006757      89.753817      501.84243    
    588000   49.213825      102.37316      572.40122    
    589000   47.796952      94.56197       528.72636    
    590000   62.039785      78.852996      440.89244    
    591000   59.430035      86.48519       483.56648    
    592000   61.963276      90.057807      503.54213    
    593000   47.019414      97.175262      543.33811    
    594000   49.52562       92.104764      514.98733    
    595000   37.407027      111.59549      623.96623    
    596000   48.852729      99.796146      557.99232    
    597000   50.35297       88.476945      494.70302    
    598000   49.524563      99.440826      556.00561    
    599000   56.893559      87.920733      491.59306    
    600000   69.029624      77.634755      434.08086    
Loop time of 2.14785 on 1 procs for 80000 steps with 61 atoms

Performance: 32181.027 ns/day, 0.001 hours/ns, 37246.559 timesteps/s, 2.272 Matom-step/s
99.3% CPU use with 1 MPI tasks x 1 OpenMP threads

MPI task timing breakdown:
Section |  min time  |  avg time  |  max time  |%varavg| %total
---------------------------------------------------------------
Pair    | 1.6854     | 1.6854     | 1.6854     |   0.0 | 78.47
Bond    | 0.25612    | 0.25612    | 0.25612    |   0.0 | 11.92
Neigh   | 0.03748    | 0.03748    | 0.03748    |   0.0 |  1.74
Comm    | 0.033558   | 0.033558   | 0.033558   |   0.0 |  1.56
Output  | 0.012716   | 0.012716   | 0.012716   |   0.0 |  0.59
Modify  | 0.1095     | 0.1095     | 0.1095     |   0.0 |  5.10
Other   |            | 0.01306    |            |       |  0.61

Nlocal:             61 ave          61 max          61 min
Histogram: 1 0 0 0 0 0 0 0 0 0
Nghost:              0 ave           0 max           0 min
Histogram: 1 0 0 0 0 0 0 0 0 0
Neighs:            292 ave         292 max         292 min
Histogram: 1 0 0 0 0 0 0 0 0 0

Total # of neighbors = 292
Ave neighs/atom = 4.7868852
Ave special neighs/atom = 5.8032787
Neighbor list builds = 254
Dangerous builds = 0
=== TEST: cycle 2: cool 500 -> 298 K ===
Generated 0 of 6 mixed pair_coeff terms from geometric mixing rule
Setting up Verlet run ...
  Unit style    : real
  Current step  : 600000
  Time step     : 10
Per MPI rank memory allocation (min/avg/max) = 9.626 | 9.626 | 9.626 Mbytes
   Step         PotEng         KinEng          Temp     
    600000   69.029624      77.634755      434.08086    
    601000   42.500514      100.30242      560.82303    
    602000   58.028371      83.575475      467.29733    
    603000   45.631821      100.10794      559.73564    
    604000   49.181705      91.186594      509.85354    
    605000   49.009932      91.969724      514.23228    
    606000   48.905129      87.939054      491.6955     
    607000   52.004211      88.594816      495.36208    
    608000   57.895961      85.026173      475.40865    
    609000   48.348942      86.65011       484.48861    
    610000   38.678724      90.845452      507.94611    
    611000   40.014633      85.849353      480.01131    
    612000   41.248574      85.28905       476.87848    
    613000   48.656893      71.718686      401.00222    
    614000   29.884852      92.588519      517.69216    
    615000   43.639512      84.436142      472.1096     
    616000   40.132216      81.600583      456.25508    
    617000   32.553393      84.137624      470.44049    
    618000   38.262239      83.236042      465.39945    
    619000   48.112039      73.796917      412.62227    
    620000   37.52635       90.926369      508.39854    
    621000   49.306457      78.831337      440.77133    
    622000   47.311715      93.169253      520.93923    
    623000   42.766264      91.42351       511.17822    
    624000   47.798625      79.906977      446.78558    
    625000   48.934493      73.026766      408.31611    
    626000   52.67511       73.889164      413.13805    
    627000   53.67208       70.674536      395.16404    
    628000   44.599179      77.379706      432.6548     
    629000   48.597696      72.885987      407.52897    
    630000   49.179069      67.875467      379.51354    
    631000   54.577532      67.226255      375.88359    
    632000   53.721346      71.854603      401.76217    
    633000   51.930158      68.175276      381.18987    
    634000   50.766509      76.310911      426.67882    
    635000   58.699677      74.073983      414.17144    
    636000   49.621086      80.600664      450.66421    
    637000   51.404111      75.729779      423.42952    
    638000   50.064106      76.92398       430.10668    
    639000   48.618471      80.279286      448.86728    
    640000   49.137727      81.268464      454.39809    
    641000   56.133217      80.539649      450.32305    
    642000   60.369064      67.703653      378.55288    
    643000   51.770853      71.322372      398.7863     
    644000   45.193525      82.961814      463.86616    
    645000   51.06261       86.868986      485.71241    
    646000   60.830833      71.222148      398.22591    
    647000   41.613742      96.36009       538.78022    
    648000   52.418333      87.631103      489.97365    
    649000   53.759264      83.783292      468.4593     
    650000   52.422837      83.292295      465.71398    
    651000   46.992641      86.194925      481.94352    
    652000   63.528531      77.166181      431.46091    
    653000   51.79844       88.317918      493.81386    
    654000   58.024737      84.631796      473.20356    
    655000   52.186585      93.458216      522.55491    
    656000   55.602553      89.686823      501.46784    
    657000   48.500802      94.771267      529.8966     
    658000   58.902856      79.171403      442.67275    
    659000   50.416026      91.134745      509.56364    
    660000   54.290263      88.215864      493.24324    
    661000   53.405644      82.107348      459.08856    
    662000   46.719244      94.345536      527.5162     
    663000   63.100735      83.803917      468.57462    
    664000   66.414223      73.775911      412.50482    
    665000   54.653564      84.298059      471.33753    
    666000   47.340671      78.503776      438.93983    
    667000   48.783657      82.41233       460.79381    
    668000   46.519677      80.733177      451.40513    
    669000   46.882172      81.825581      457.51311    
    670000   61.411179      66.668184      372.76324    
    671000   50.217441      83.920467      469.22629    
    672000   58.912382      71.290054      398.6056     
    673000   59.684911      69.266074      387.28887    
    674000   50.995953      80.015643      447.39317    
    675000   48.35544       82.232747      459.78971    
    676000   46.600873      85.647617      478.88334    
    677000   54.929289      76.40272       427.19216    
    678000   52.60826       76.917658      430.07134    
    679000   52.517281      81.741065      457.04055    
    680000   47.04883       83.612082      467.50201    
    681000   47.262127      78.637353      439.6867     
    682000   43.161834      83.518732      466.98006    
    683000   55.167593      74.32653       415.58351    
    684000   47.092063      75.645191      422.95657    
    685000   52.419828      69.981397      391.28848    
    686000   60.310322      61.697914      344.97286    
    687000   49.457805      73.138324      408.93987    
    688000   47.916459      77.230447      431.82024    
    689000   44.784699      80.340818      449.21132    
    690000   43.2478        78.097244      436.66678    
    691000   40.766011      82.507323      461.32495    
    692000   43.64644       78.55413       439.22138    
    693000   44.171193      74.312165      415.50319    
    694000   44.294189      70.683359      395.21337    
    695000   45.863453      68.811182      384.74543    
    696000   44.794846      68.11927       380.87672    
    697000   48.29673       64.650641      361.48251    
    698000   45.539664      59.129086      330.60972    
    699000   43.767313      61.825933      345.68865    
    700000   39.418814      64.11236       358.4728     
    701000   38.029592      70.307314      393.11078    
    702000   41.314353      67.289355      376.2364     
    703000   36.704923      70.322443      393.19537    
    704000   38.173685      69.687626      389.64591    
    705000   47.699071      59.110803      330.50749    
    706000   40.08107       68.386417      382.37043    
    707000   32.886059      68.536127      383.2075     
    708000   34.232509      62.991818      352.20749    
    709000   30.633288      67.340752      376.52378    
    710000   29.125         71.091725      397.49667    
    711000   28.858277      67.09027       375.12326    
    712000   34.030306      71.543258      400.02134    
    713000   35.95456       63.37517       354.35094    
    714000   33.476244      59.440439      332.35059    
    715000   25.875857      61.971258      346.50121    
    716000   31.832401      55.681907      311.33543    
    717000   28.358346      63.313449      354.00583    
    718000   26.876852      62.07291       347.06958    
    719000   35.173617      63.462004      354.83646    
    720000   33.792217      66.775745      373.36464    
    721000   37.278053      63.735807      356.36738    
    722000   35.309036      56.986558      318.63016    
    723000   37.290893      53.644941      299.9461     
    724000   46.103879      49.665481      277.69566    
    725000   32.278555      63.189875      353.31489    
    726000   39.455519      57.112793      319.33598    
    727000   34.241632      62.544606      349.70699    
    728000   43.910499      61.931028      346.27627    
    729000   40.24644       66.241516      370.3776     
    730000   38.763422      67.929299      379.81453    
    731000   40.212694      63.53184       355.22693    
    732000   37.719804      66.959261      374.39074    
    733000   40.881105      58.911707      329.39428    
    734000   34.013936      79.517264      444.60657    
    735000   30.142969      77.300035      432.20933    
    736000   37.170195      74.457264      416.31449    
    737000   35.294837      70.73632       395.50949    
    738000   37.52884       65.985736      368.94745    
    739000   33.8368        73.093228      408.68772    
    740000   41.754131      64.65713       361.51879    
    741000   44.13245       62.323353      348.46989    
    742000   42.346578      54.435594      304.36689    
    743000   35.378236      61.933967      346.29271    
    744000   30.443328      57.412981      321.01442    
    745000   26.952728      56.356872      315.10938    
    746000   29.313482      58.212241      325.48334    
    747000   34.933748      54.534178      304.91811    
    748000   36.853359      57.279512      320.26815    
    749000   24.422455      71.139484      397.76371    
    750000   35.765155      58.205139      325.44363    
    751000   23.131687      72.188406      403.62857    
    752000   35.868298      58.137477      325.06531    
    753000   36.076131      58.586114      327.57378    
    754000   30.613566      67.402005      376.86626    
    755000   36.326239      65.545611      366.48657    
    756000   34.906004      67.811844      379.15781    
    757000   32.252832      64.764712      362.12031    
    758000   33.181826      57.121652      319.38551    
    759000   33.689847      59.551581      332.97202    
    760000   21.693826      62.015066      346.74616    
Loop time of 2.62761 on 1 procs for 160000 steps with 61 atoms

Performance: 52610.489 ns/day, 0.000 hours/ns, 60891.769 timesteps/s, 3.714 Matom-step/s
99.0% CPU use with 1 MPI tasks x 1 OpenMP threads

MPI task timing breakdown:
Section |  min time  |  avg time  |  max time  |%varavg| %total
---------------------------------------------------------------
Pair    | 1.7253     | 1.7253     | 1.7253     |   0.0 | 65.66
Bond    | 0.50897    | 0.50897    | 0.50897    |   0.0 | 19.37
Neigh   | 0.063284   | 0.063284   | 0.063284   |   0.0 |  2.41
Comm    | 0.065565   | 0.065565   | 0.065565   |   0.0 |  2.50
Output  | 0.023998   | 0.023998   | 0.023998   |   0.0 |  0.91
Modify  | 0.21613    | 0.21613    | 0.21613    |   0.0 |  8.23
Other   |            | 0.02439    |            |       |  0.93

Nlocal:             61 ave          61 max          61 min
Histogram: 1 0 0 0 0 0 0 0 0 0
Nghost:              0 ave           0 max           0 min
Histogram: 1 0 0 0 0 0 0 0 0 0
Neighs:            233 ave         233 max         233 min
Histogram: 1 0 0 0 0 0 0 0 0 0

Total # of neighbors = 233
Ave neighs/atom = 3.8196721
Ave special neighs/atom = 5.8032787
Neighbor list builds = 454
Dangerous builds = 0
=== TEST: cycle 2: hold at 298 K ===
Generated 0 of 6 mixed pair_coeff terms from geometric mixing rule
Setting up Verlet run ...
  Unit style    : real
  Current step  : 760000
  Time step     : 10
Per MPI rank memory allocation (min/avg/max) = 9.626 | 9.626 | 9.626 Mbytes
   Step         PotEng         KinEng          Temp     
    760000   21.693826      62.015066      346.74616    
    761000   29.022558      56.757798      317.35108    
    762000   28.687563      59.568877      333.06873    
    763000   25.791869      59.61436       333.32304    
    764000   26.141495      56.938285      318.36024    
    765000   20.037126      63.148697      353.08465    
    766000   23.805315      57.202622      319.83824    
    767000   27.285685      51.610583      288.57135    
    768000   26.600638      56.127392      313.82628    
    769000   24.373123      64.50058       360.64347    
    770000   19.697058      61.897259      346.08746    
    771000   20.310011      60.907103      340.55118    
    772000   22.074799      54.708934      305.89523    
    773000   18.257765      60.304454      337.18158    
    774000   23.183056      61.044839      341.32131    
    775000   22.37162       62.192916      347.74057    
    776000   21.318378      60.202107      336.60932    
    777000   16.599556      58.894632      329.29881    
    778000   17.783869      57.055777      319.01718    
    779000   19.704607      60.520772      338.39108    
    780000   21.356652      61.161099      341.97135    
    781000   20.666824      61.272028      342.59159    
    782000   8.7124507      69.320026      387.59054    
    783000   12.85881       67.364123      376.65446    
    784000   13.238675      65.440912      365.90116    
    785000   11.877881      65.49683       366.21382    
    786000   18.785688      55.393346      309.72199    
    787000   15.450024      53.294335      297.98575    
    788000   13.714767      59.773472      334.21269    
    789000   21.211136      55.444082      310.00567    
    790000   21.312299      55.442942      309.9993     
    791000   26.092666      53.685441      300.17255    
    792000   21.425545      54.889615      306.90547    
    793000   15.482172      55.613515      310.95303    
    794000   25.405841      44.029187      246.18133    
    795000   16.478516      53.148482      297.17024    
    796000   12.384618      52.584622      294.01752    
    797000   13.215919      49.988202      279.5001     
    798000   12.024028      56.614035      316.54726    
    799000   12.676587      53.75232       300.54649    
    800000   21.292695      50.22365       280.81656    
    801000   19.209483      52.599591      294.10121    
    802000   19.868824      46.908551      262.28078    
    803000   19.594638      49.551684      277.05939    
    804000   19.532076      49.7422        278.12462    
    805000   25.352316      45.534173      254.59619    
    806000   22.99144       50.006393      279.60181    
    807000   22.553025      53.645327      299.94826    
    808000   28.608911      46.430374      259.60714    
    809000   25.686268      50.501329      282.36915    
    810000   28.852861      50.550583      282.64455    
    811000   22.251874      60.80561       339.9837     
    812000   21.440837      59.807143      334.40095    
    813000   22.704347      56.111629      313.73815    
    814000   22.019285      56.220416      314.34641    
    815000   22.335275      56.812393      317.65634    
    816000   26.976561      42.960736      240.20728    
    817000   23.472289      55.007795      307.56626    
    818000   26.728458      52.723366      294.79328    
    819000   23.293005      55.222626      308.76744    
    820000   20.809147      51.451908      287.68415    
    821000   20.605279      48.002583      268.39786    
    822000   27.756532      47.548793      265.86058    
    823000   12.910959      59.256433      331.32176    
    824000   24.924861      47.158252      263.67694    
    825000   13.31748       55.528082      310.47535    
    826000   9.9427312      63.599811      355.60698    
    827000   15.493664      52.562495      293.89379    
    828000   5.8445012      60.405194      337.74485    
    829000   7.5885423      53.255         297.76581    
    830000   7.1226888      58.715493      328.29718    
    831000   5.2018087      61.945147      346.35522    
    832000   8.6830911      59.100772      330.4514     
    833000   10.663156      59.282267      331.4662     
    834000   17.860252      53.213776      297.53532    
    835000   23.545885      48.79257       272.81493    
    836000   20.325633      57.625408      322.20217    
    837000   8.1374357      70.796179      395.84418    
    838000   19.820125      59.387748      332.05598    
    839000   19.735907      54.527034      304.87816    
    840000   32.710663      46.924493      262.36992    
Loop time of 1.96104 on 1 procs for 80000 steps with 61 atoms

Performance: 35246.528 ns/day, 0.001 hours/ns, 40794.593 timesteps/s, 2.488 Matom-step/s
99.3% CPU use with 1 MPI tasks x 1 OpenMP threads

MPI task timing breakdown:
Section |  min time  |  avg time  |  max time  |%varavg| %total
---------------------------------------------------------------
Pair    | 1.5109     | 1.5109     | 1.5109     |   0.0 | 77.05
Bond    | 0.25486    | 0.25486    | 0.25486    |   0.0 | 13.00
Neigh   | 0.027667   | 0.027667   | 0.027667   |   0.0 |  1.41
Comm    | 0.033359   | 0.033359   | 0.033359   |   0.0 |  1.70
Output  | 0.012253   | 0.012253   | 0.012253   |   0.0 |  0.62
Modify  | 0.10916    | 0.10916    | 0.10916    |   0.0 |  5.57
Other   |            | 0.0128     |            |       |  0.65

Nlocal:             61 ave          61 max          61 min
Histogram: 1 0 0 0 0 0 0 0 0 0
Nghost:              0 ave           0 max           0 min
Histogram: 1 0 0 0 0 0 0 0 0 0
Neighs:            366 ave         366 max         366 min
Histogram: 1 0 0 0 0 0 0 0 0 0

Total # of neighbors = 366
Ave neighs/atom = 6
Ave special neighs/atom = 5.8032787
Neighbor list builds = 185
Dangerous builds = 0
=== TEST: final 298 K re-equilibration ===
Generated 0 of 6 mixed pair_coeff terms from geometric mixing rule
Setting up Verlet run ...
  Unit style    : real
  Current step  : 840000
  Time step     : 10
Per MPI rank memory allocation (min/avg/max) = 9.626 | 9.626 | 9.626 Mbytes
   Step         PotEng         KinEng          Temp     
    840000   32.710663      46.924493      262.36992    
    841000   19.983938      58.119363      324.96403    
    842000   25.667413      49.264934      275.45607    
    843000   16.369799      55.387454      309.68905    
    844000   10.330865      62.58705       349.9443     
    845000   15.121855      61.72697       345.13532    
    846000   15.946032      63.874825      357.14467    
    847000   22.762631      54.833969      306.59434    
    848000   21.645891      58.019392      324.40506    
    849000   22.369715      59.903249      334.93831    
    850000   26.108609      63.372557      354.33633    
    851000   26.950066      66.132141      369.76605    
    852000   29.728005      65.224679      364.69214    
    853000   16.120211      74.724987      417.81141    
    854000   22.130134      61.456255      343.62167    
    855000   26.901892      52.519957      293.65595    
    856000   20.150047      52.811533      295.28625    
    857000   14.61041       56.276933      314.66241    
    858000   4.6616314      68.008049      380.25485    
    859000   8.2233445      59.826024      334.50652    
    860000   9.133532       53.911649      301.43735    
    861000   9.2834189      49.748008      278.15709    
    862000  -7.5127191      60.478269      338.15343    
    863000  -1.7138187      55.9833        313.02062    
    864000  -3.7725061      57.929279      323.90121    
    865000  -3.1763713      56.361137      315.13323    
    866000  -4.7186349      55.299817      309.19904    
    867000  -2.4852112      57.822959      323.30674    
    868000   7.7202882      54.047518      302.19703    
    869000  -1.0271964      61.013188      341.14434    
    870000   5.6412963      49.293553      275.61609    
    871000  -3.8964362      56.023595      313.24592    
    872000   0.58952654     50.777013      283.91059    
    873000  -4.5983596      60.323669      337.28901    
    874000  -6.1389946      58.569319      327.47988    
    875000  -6.7378349      56.4752        315.77099    
    876000  -6.8327317      55.678499      311.31638    
    877000  -6.4304248      47.0185        262.89554    
    878000  -8.5649794      48.96011       273.75171    
    879000  -7.7833195      50.996398      285.13724    
    880000  -9.4869838      51.870351      290.0238     
Loop time of 1.19372 on 1 procs for 40000 steps with 61 atoms

Performance: 28951.616 ns/day, 0.001 hours/ns, 33508.815 timesteps/s, 2.044 Matom-step/s
99.3% CPU use with 1 MPI tasks x 1 OpenMP threads

MPI task timing breakdown:
Section |  min time  |  avg time  |  max time  |%varavg| %total
---------------------------------------------------------------
Pair    | 0.96858    | 0.96858    | 0.96858    |   0.0 | 81.14
Bond    | 0.12748    | 0.12748    | 0.12748    |   0.0 | 10.68
Neigh   | 0.013402   | 0.013402   | 0.013402   |   0.0 |  1.12
Comm    | 0.016587   | 0.016587   | 0.016587   |   0.0 |  1.39
Output  | 0.0062431  | 0.0062431  | 0.0062431  |   0.0 |  0.52
Modify  | 0.054865   | 0.054865   | 0.054865   |   0.0 |  4.60
Other   |            | 0.00656    |            |       |  0.55

Nlocal:             61 ave          61 max          61 min
Histogram: 1 0 0 0 0 0 0 0 0 0
Nghost:              0 ave           0 max           0 min
Histogram: 1 0 0 0 0 0 0 0 0 0
Neighs:            338 ave         338 max         338 min
Histogram: 1 0 0 0 0 0 0 0 0 0

Total # of neighbors = 338
Ave neighs/atom = 5.5409836
Ave special neighs/atom = 5.8032787
Neighbor list builds = 88
Dangerous builds = 0
System init for write_data ...
Generated 0 of 6 mixed pair_coeff terms from geometric mixing rule
=== TEST: DONE ===
Total wall time: 0:00:23
