LAMMPS (29 Aug 2024)
  using 1 OpenMP thread(s) per MPI task
  using 1 OpenMP thread(s) per MPI task
Reading data file ...
  orthogonal box = (-500.6 -500.6 -500.6) to (500.6 500.6 500.6)
  1 by 1 by 1 MPI processor grid
  reading atoms ...
  161 atoms
  scanning bonds ...
  1 = max bonds/atom
  scanning angles ...
  1 = max angles/atom
  orthogonal box = (-500.6 -500.6 -500.6) to (500.6 500.6 500.6)
  1 by 1 by 1 MPI processor grid
  reading bonds ...
  160 bonds
  reading angles ...
  159 angles
Finding 1-2 1-3 1-4 neighbors ...
  special bond factors lj:    0        0        0       
  special bond factors coul:  0        0        0       
     2 = max # of 1-2 neighbors
     2 = max # of 1-3 neighbors
     4 = max # of 1-4 neighbors
     6 = max # of special neighbors
  special bonds CPU = 0.000 seconds
  read_data CPU = 0.029 seconds
Finding 1-2 1-3 1-4 neighbors ...
  special bond factors lj:    0        0        1       
  special bond factors coul:  0        0        0       
     2 = max # of 1-2 neighbors
     2 = max # of 1-3 neighbors
     4 = max # of 1-4 neighbors
     6 = max # of special neighbors
  special bonds CPU = 0.000 seconds

CITE-CITE-CITE-CITE-CITE-CITE-CITE-CITE-CITE-CITE-CITE-CITE-CITE

Your simulation uses code contributions which should be cited:
- Type Label Framework: https://doi.org/10.1021/acs.jpcb.3c08419
The log file lists these citations in BibTeX format.

CITE-CITE-CITE-CITE-CITE-CITE-CITE-CITE-CITE-CITE-CITE-CITE-CITE

Generated 0 of 6 mixed pair_coeff terms from geometric mixing rule
Neighbor list info ...
  update: every = 10 steps, delay = 0 steps, check = yes
  max neighbors/atom: 2000, page size: 100000
  master list distance cutoff = 33
  ghost atom cutoff = 33
  binsize = 16.5, bins = 61 61 61
  2 neighbor lists, perpetual/occasional/extra = 2 0 0
  (1) pair lj/cut, perpetual, trim from (2)
      attributes: half, newton on, cut 25
      pair build: trim
      stencil: none
      bin: none
  (2) pair base/rna, perpetual
      attributes: half, newton on
      pair build: half/bin/newton
      stencil: half/bin/3d
      bin: standard
Setting up Verlet run ...
  Unit style    : real
  Current step  : 0
  Time step     : 10
Per MPI rank memory allocation (min/avg/max) = 8.373 | 8.373 | 8.373 Mbytes
   Step         PotEng         KinEng          Temp     
         0   217.95376      0              0            
     10000   83.404674      129.67242      271.89007    
     20000   94.383267      148.90904      312.22435    
     30000   91.316978      154.82802      324.63494    
     40000   84.144135      135.16236      283.40107    
     50000   86.48549       142.28893      298.34368    
     60000   60.527489      144.49382      302.96677    
     70000   63.982287      144.67815      303.35326    
     80000   48.358324      137.03811      287.33403    
     90000   68.098801      129.43519      271.39265    
    100000   54.187341      153.4868       321.82275    
    110000   50.522176      143.38883      300.64989    
    120000   43.723402      142.73642      299.28195    
    130000   51.033027      139.0781       291.61137    
    140000   35.049912      153.85897      322.6031     
    150000   37.590998      151.55068      317.76319    
    160000   39.486546      162.26982      340.23852    
    170000   5.9413684      156.38233      327.89394    
    180000  -33.492284      160.62461      336.78892    
    190000  -15.264914      141.51833      296.72793    
    200000  -18.969714      147.41598      309.09378    
    210000  -18.352841      133.33993      279.5799     
    220000  -26.218048      128.27938      268.96921    
    230000  -24.378035      153.77554      322.42816    
    240000   2.8311084      140.74237      295.10092    
    250000  -31.897319      157.79663      330.85937    
    260000  -41.339073      150.1874       314.90474    
    270000  -41.296479      137.31531      287.91525    
    280000  -62.140224      140.35531      294.28936    
    290000  -56.640934      135.44156      283.98648    
    300000  -53.960866      143.36095      300.59142    
    310000  -71.320531      149.23425      312.90623    
    320000  -71.675926      141.3173       296.30642    
    330000  -66.787356      155.26953      325.56069    
    340000  -64.401591      162.62251      340.978      
    350000  -81.702597      153.46542      321.77792    
    360000  -58.420218      142.02304      297.78617    
    370000  -72.442712      152.9681       320.73518    
    380000  -94.803701      145.03941      304.11073    
    390000  -95.009966      133.09992      279.07665    
    400000  -104.71828      137.65168      288.62054    
    410000  -80.037573      130.39074      273.3962     
    420000  -74.518918      141.86954      297.46431    
    430000  -93.528475      134.67166      282.37219    
    440000  -91.255466      119.54802      250.66176    
    450000  -101.28107      132.60395      278.03673    
    460000  -110.88762      147.84553      309.99444    
    470000  -113.54727      139.83039      293.18874    
    480000  -113.60034      129.57494      271.68567    
    490000  -93.441825      144.79979      303.60831    
    500000  -88.859009      131.23646      275.16945    
    510000  -111.61936      143.0279       299.89311    
    520000  -107.37107      143.46682      300.81341    
    530000  -96.260913      145.35444      304.77127    
    540000  -78.091069      147.39007      309.03947    
    550000  -80.599681      142.04935      297.84133    
    560000  -83.643776      159.01376      333.41137    
    570000  -84.991697      156.24728      327.61078    
    580000  -97.364153      154.91677      324.82104    
    590000  -82.259656      161.18399      337.96181    
    600000  -68.25698       156.8182       328.80786    
    610000  -81.963929      153.02324      320.8508     
    620000  -91.782674      145.71429      305.52579    
    630000  -94.956778      159.51873      334.47018    
    640000  -87.356341      143.46666      300.81308    
    650000  -103.95999      146.00616      306.13776    
    660000  -110.5022       149.68314      313.84745    
    670000  -115.07142      154.59597      324.1484     
    680000  -114.29654      144.83874      303.68996    
    690000  -118.38649      140.20658      293.97751    
    700000  -109.43135      129.89973      272.36668    
    710000  -111.91393      138.44264      290.27898    
    720000  -109.80456      142.00203      297.74212    
    730000  -112.66234      151.96121      318.62399    
    740000  -138.91786      151.69936      318.07495    
    750000  -103.76277      127.04506      266.38115    
    760000  -117.51688      143.98809      301.90638    
    770000  -132.12114      162.52817      340.7802     
    780000  -125.47794      143.9089       301.74034    
    790000  -121.86055      134.49673      282.00542    
    800000  -123.7478       142.18767      298.13135    
    810000  -127.48472      140.21495      293.99507    
    820000  -140.06641      143.14866      300.1463     
    830000  -127.72155      144.75987      303.5246     
    840000  -106.35496      131.4371       275.59014    
    850000  -110.3987       149.95766      314.42305    
    860000  -97.212731      139.05183      291.5563     
    870000  -100.97594      141.7684       297.25225    
    880000  -110.47499      151.96794      318.63809    
    890000  -116.09157      130.25985      273.12175    
    900000  -92.69085       146.49985      307.1729     
    910000  -100.64065      139.46496      292.42253    
    920000  -105.04695      137.24489      287.7676     
    930000  -110.38042      147.71192      309.7143     
    940000  -109.52156      153.01552      320.8346     
    950000  -84.134411      151.44469      317.54097    
    960000  -85.004953      121.97691      255.75453    
    970000  -99.390169      146.0231       306.17329    
    980000  -108.5766       142.94398      299.71715    
    990000  -105.96897      149.37842      313.20852    
   1000000  -102.07233      136.91098      287.06749    
   1010000  -92.570429      149.91312      314.32965    
   1020000  -98.520614      157.6632       330.5796     
   1030000  -109.52237      150.64996      315.87462    
   1040000  -74.37505       143.37997      300.6313     
   1050000  -95.741413      147.26278      308.77258    
   1060000  -119.42774      145.76211      305.62604    
   1070000  -115.28052      153.65329      322.17184    
   1080000  -91.882725      136.85122      286.94218    
   1090000  -113.37506      141.16932      295.99612    
   1100000  -127.32948      126.5229       265.28632    
   1110000  -132.57439      125.77492      263.71801    
   1120000  -140.97311      143.05376      299.94734    
   1130000  -100.62832      136.15177      285.4756     
   1140000  -130.39626      150.43971      315.43377    
   1150000  -118.44271      143.57358      301.03726    
   1160000  -116.06675      140.8185       295.26055    
   1170000  -125.81002      142.57571      298.94498    
   1180000  -112.38897      130.41779      273.45291    
   1190000  -114.50066      128.25956      268.92765    
   1200000  -100.83904      135.15517      283.38599    
   1210000  -88.251252      142.47035      298.72405    
   1220000  -113.01365      146.28899      306.73078    
   1230000  -106.75166      149.06837      312.55842    
   1240000  -84.386014      135.46748      284.04082    
   1250000  -80.310591      137.8036       288.93908    
   1260000  -105.54161      143.27029      300.40133    
   1270000  -104.51435      132.98993      278.84605    
   1280000  -99.927398      139.39268      292.27097    
   1290000  -102.71425      131.8643       276.48589    
   1300000  -100.39356      146.20699      306.55884    
   1310000  -95.102112      144.23148      302.4167     
   1320000  -95.587751      148.12506      310.58054    
   1330000  -111.29119      153.71631      322.30397    
   1340000  -114.96742      141.58109      296.85951    
   1350000  -94.25867       143.04333      299.92545    
   1360000  -100.17761      147.48657      309.24181    
   1370000  -83.203553      142.74785      299.30591    
   1380000  -106.37816      146.16723      306.47548    
   1390000  -84.760145      142.91491      299.65619    
   1400000  -93.549268      151.78896      318.26282    
   1410000  -87.192468      148.47355      311.31125    
   1420000  -115.45797      139.8129       293.15206    
   1430000  -117.49449      131.03452      274.74604    
   1440000  -121.4978       150.37217      315.29217    
   1450000  -89.95936       141.45625      296.59776    
   1460000  -95.481147      134.11756      281.21038    
   1470000  -109.40234      132.32167      277.44486    
   1480000  -110.44871      152.57401      319.90887    
   1490000  -82.577621      144.57676      303.14067    
   1500000  -93.347177      149.74475      313.97662    
   1510000  -111.5116       140.7201       295.05423    
   1520000  -104.30715      134.05397      281.07705    
   1530000  -92.832188      133.44716      279.80473    
   1540000  -88.361669      142.43232      298.64433    
   1550000  -99.169191      140.67386      294.95728    
   1560000  -111.6654       160.06006      335.60521    
   1570000  -86.02159       127.53102      267.40008    
   1580000  -101.6021       150.07972      314.67898    
   1590000  -101.97402      133.16268      279.20826    
   1600000  -108.03982      121.67246      255.11618    
   1610000  -90.436803      139.3937       292.27311    
   1620000  -94.871764      125.77931      263.72719    
   1630000  -114.03478      136.69894      286.62289    
   1640000  -104.18877      145.91606      305.94884    
   1650000  -115.98952      148.9601       312.33141    
   1660000  -106.99512      135.2103       283.50159    
   1670000  -140.87222      132.35405      277.51276    
   1680000  -127.01522      138.29134      289.96173    
   1690000  -128.60626      146.61251      307.40913    
   1700000  -108.6138       131.40765      275.52841    
   1710000  -103.31515      138.34735      290.07918    
   1720000  -100.42452      146.17976      306.50176    
   1730000  -80.942048      147.73572      309.76421    
   1740000  -97.795544      128.05969      268.50857    
   1750000  -110.00659      141.62095      296.94309    
   1760000  -97.725524      147.17544      308.58943    
   1770000  -102.09253      156.81409      328.79924    
   1780000  -103.51911      145.26963      304.59344    
   1790000  -99.996574      162.39253      340.49581    
   1800000  -91.034449      151.12744      316.87579    
   1810000  -91.818962      147.94878      310.21094    
   1820000  -97.661302      149.89941      314.30091    
   1830000  -83.034611      127.0053       266.29779    
   1840000  -95.917169      132.06168      276.89972    
   1850000  -107.71766      135.63816      284.39869    
   1860000  -98.716667      139.22719      291.92399    
   1870000  -107.54177      132.10756      276.99593    
   1880000  -104.26474      129.37231      271.26081    
   1890000  -113.94597      152.75145      320.28092    
   1900000  -98.650572      132.95328      278.76919    
   1910000  -98.863726      125.17361      262.45719    
   1920000  -101.4795       139.57635      292.65608    
   1930000  -115.11387      152.53511      319.82729    
   1940000  -113.52117      151.03016      316.67181    
   1950000  -122.62025      140.92514      295.48416    
   1960000  -115.67682      135.26406      283.6143     
   1970000  -120.30103      142.64738      299.09526    
   1980000  -109.62502      138.68508      290.78731    
   1990000  -101.12586      147.81379      309.92791    
   2000000  -93.090648      123.85958      259.70202    
   2010000  -82.527629      140.89853      295.42835    
   2020000  -98.672352      146.04066      306.21009    
   2030000  -109.13213      144.39962      302.76925    
   2040000  -116.18834      133.2887       279.47247    
   2050000  -129.50014      135.95368      285.06027    
   2060000  -119.50917      133.57026      280.06285    
   2070000  -133.07999      138.57423      290.55488    
   2080000  -132.00237      137.16336      287.59665    
   2090000  -128.79857      134.27126      281.53266    
   2100000  -102.52615      145.16247      304.36874    
   2110000  -117.31855      146.68         307.55063    
   2120000  -121.07531      140.34797      294.27397    
   2130000  -122.03275      148.10119      310.53051    
   2140000  -136.95399      140.73334      295.082      
   2150000  -136.61697      145.90714      305.93014    
   2160000  -136.46681      146.21145      306.5682     
   2170000  -119.94596      142.56311      298.91856    
   2180000  -129.28899      133.78595      280.51509    
   2190000  -126.05615      140.08036      293.71287    
   2200000  -131.56866      149.25329      312.94616    
   2210000  -143.78559      155.66543      326.39078    
   2220000  -114.32631      143.61449      301.12303    
   2230000  -119.40011      136.79709      286.82869    
   2240000  -142.25867      135.26441      283.61503    
   2250000  -142.49236      153.45039      321.74641    
   2260000  -134.45531      160.04498      335.5736     
   2270000  -125.18544      150.90454      316.40841    
   2280000  -143.25088      141.35379      296.38292    
   2290000  -129.20149      139.19347      291.85327    
   2300000  -117.7343       134.5516       282.12046    
   2310000  -128.77615      153.13856      321.09259    
   2320000  -129.55556      149.41443      313.28403    
   2330000  -137.25123      155.37494      325.78171    
   2340000  -108.59178      142.13301      298.01674    
   2350000  -79.435255      120.45606      252.56569    
   2360000  -125.63626      151.22635      317.08317    
   2370000  -132.5935       148.58322      311.54119    
   2380000  -113.14808      152.47684      319.70512    
   2390000  -96.627913      141.55144      296.79735    
   2400000  -127.0215       148.01982      310.35989    
   2410000  -112.06869      138.6561       290.72654    
   2420000  -119.16928      150.04493      314.60603    
   2430000  -126.48397      158.07288      331.4386     
   2440000  -128.11669      140.79461      295.21046    
   2450000  -130.75909      141.00352      295.64849    
   2460000  -131.14137      146.99423      308.20949    
   2470000  -128.37504      155.01041      325.01738    
   2480000  -119.91626      127.26506      266.84245    
   2490000  -137.54734      133.02698      278.92372    
   2500000  -132.50724      137.23367      287.74408    
   2510000  -135.57735      133.00022      278.8676     
   2520000  -113.68544      150.01651      314.54645    
   2530000  -104.50121      139.72685      292.97164    
   2540000  -106.1451       154.68493      324.33493    
   2550000  -117.52812      140.90497      295.44187    
   2560000  -116.86653      137.77528      288.8797     
   2570000  -108.22951      156.2587       327.63471    
   2580000  -111.4095       143.44159      300.7605     
   2590000  -100.52419      133.79875      280.54191    
   2600000  -118.26369      137.85231      289.04122    
   2610000  -134.44387      136.77323      286.77866    
   2620000  -124.61617      139.53554      292.57051    
   2630000  -132.25641      153.72276      322.31749    
   2640000  -132.73721      158.21813      331.74314    
   2650000  -121.43278      153.38756      321.61467    
   2660000  -111.05455      142.13809      298.02739    
   2670000  -91.8697        131.22842      275.1526     
   2680000  -128.01168      151.73025      318.13971    
   2690000  -121.48973      145.90438      305.92436    
   2700000  -105.66673      147.29241      308.83469    
   2710000  -112.34637      163.98988      343.84504    
   2720000  -109.46518      142.7668       299.34564    
   2730000  -122.65615      147.01905      308.26152    
   2740000  -103.71879      139.35101      292.18361    
   2750000  -120.0159       147.90734      310.12404    
   2760000  -133.11346      140.46225      294.51359    
   2770000  -129.06001      156.03825      327.1725     
   2780000  -126.76338      152.52385      319.80369    
   2790000  -130.45976      132.61577      278.06152    
   2800000  -123.71389      134.29778      281.58827    
   2810000  -119.01123      143.86331      301.64474    
   2820000  -130.53397      158.75903      332.87729    
   2830000  -132.94717      142.77501      299.36285    
   2840000  -114.71145      136.61179      286.44016    
   2850000  -128.6043       144.09752      302.13582    
   2860000  -114.90601      137.1189       287.50343    
   2870000  -128.1277       133.408        279.72262    
   2880000  -115.68937      126.16646      264.53895    
   2890000  -115.16188      141.52495      296.74179    
   2900000  -104.58949      132.59284      278.01345    
   2910000  -104.51132      134.91396      282.88023    
   2920000  -117.40898      124.21951      260.4567     
   2930000  -120.42586      133.00245      278.87229    
   2940000  -130.21398      126.19419      264.5971     
   2950000  -104.22314      135.97949      285.11438    
   2960000  -109.3995       146.1318       306.40119    
   2970000  -112.69597      165.57357      347.16564    
   2980000  -107.67668      153.36789      321.57343    
   2990000  -118.57419      161.24607      338.09197    
   3000000  -109.65694      127.79543      267.95449    
   3010000  -111.6377       141.34458      296.3636     
   3020000  -130.02041      151.55338      317.76886    
   3030000  -131.70168      165.33602      346.66755    
   3040000  -129.72043      158.6692       332.68892    
   3050000  -111.50439      142.39162      298.55899    
   3060000  -128.13649      154.71026      324.38804    
   3070000  -137.89047      158.01581      331.31894    
   3080000  -117.59339      146.9721       308.16308    
   3090000  -115.73898      141.74932      297.21225    
   3100000  -98.458075      138.4612       290.31789    
   3110000  -127.82319      146.51887      307.21277    
   3120000  -121.11757      146.28429      306.72092    
   3130000  -139.82441      156.56673      328.28058    
   3140000  -141.84458      138.43896      290.27127    
   3150000  -130.10615      147.7082       309.7065     
   3160000  -108.0896       135.87536      284.89606    
   3170000  -116.38028      151.57854      317.82163    
   3180000  -101.6068       154.01395      322.92805    
   3190000  -94.825166      131.52405      275.77245    
   3200000  -125.44806      135.22981      283.5425     
   3210000  -124.01494      135.42467      283.95106    
   3220000  -123.46015      134.24579      281.47924    
   3230000  -126.33466      144.22189      302.3966     
   3240000  -117.10478      142.41225      298.60224    
   3250000  -103.21203      127.8563       268.08213    
   3260000  -127.00013      148.27386      310.89254    
   3270000  -142.0232       140.99814      295.63722    
   3280000  -144.8251       154.0769       323.06003    
   3290000  -138.66467      139.04981      291.55205    
   3300000  -119.02041      136.4183       286.03445    
   3310000  -91.956356      146.39297      306.9488     
   3320000  -116.88365      198.41447      416.02464    
   3330000  -113.63924      158.57005      332.48103    
   3340000  -118.57422      145.20351      304.45481    
   3350000  -142.14145      152.29416      319.32209    
   3360000  -147.76528      145.87355      305.85971    
   3370000  -143.84248      122.90631      257.70325    
   3380000  -131.74024      149.27181      312.985      
   3390000  -106.16176      161.74651      339.14126    
   3400000  -99.243332      144.08377      302.10698    
   3410000  -115.83625      150.32442      315.19205    
   3420000  -145.80989      140.17231      293.90565    
   3430000  -126.1216       142.20661      298.17106    
   3440000  -128.20914      149.83215      314.15989    
   3450000  -126.01838      127.95812      268.29561    
   3460000  -142.68963      144.40105      302.77226    
   3470000  -132.43951      151.78018      318.2444     
   3480000  -117.48939      141.48107      296.64979    
   3490000  -119.11973      147.20964      308.66114    
   3500000  -139.70816      136.10824      285.38433    
   3510000  -119.72501      133.47147      279.85569    
   3520000  -98.339672      148.46247      311.288      
   3530000  -89.684038      131.51787      275.7595     
   3540000  -112.70516      139.16206      291.78742    
   3550000  -136.01522      132.66016      278.15458    
   3560000  -137.70539      145.67917      305.45215    
   3570000  -127.5861       130.87325      274.4079     
   3580000  -123.47378      140.99155      295.62339    
   3590000  -109.35382      128.47486      269.37908    
   3600000  -103.68558      139.59977      292.7052     
   3610000  -108.2347       144.90321      303.82515    
   3620000  -108.9644       152.72454      320.22449    
   3630000  -107.57736      147.01084      308.24431    
   3640000  -91.04437       159.10327      333.59906    
   3650000  -121.92488      159.64915      334.74364    
   3660000  -98.347217      130.01785      272.61433    
   3670000  -105.52118      139.43848      292.367      
   3680000  -101.42273      143.89682      301.715      
   3690000  -112.13103      144.83751      303.6874     
   3700000  -102.65131      130.77957      274.21147    
   3710000  -125.59864      138.41236      290.2155     
   3720000  -119.62527      149.31171      313.06865    
   3730000  -113.29645      139.5109       292.51885    
   3740000  -107.69441      127.26792      266.84843    
   3750000  -109.65448      141.37975      296.43736    
   3760000  -88.403823      141.7361       297.18453    
   3770000  -126.72062      144.24207      302.4389     
   3780000  -123.77468      129.82596      272.21199    
   3790000  -127.86561      159.6781       334.80433    
   3800000  -128.11223      140.74756      295.11181    
   3810000  -123.36911      135.2252       283.53283    
   3820000  -125.75201      159.08578      333.56239    
   3830000  -105.14387      145.67004      305.433      
   3840000  -81.397247      149.3252       313.09693    
   3850000  -114.47125      155.72316      326.51184    
   3860000  -115.06383      133.81461      280.57519    
   3870000  -110.81325      132.16953      277.12587    
   3880000  -116.567        155.34966      325.72871    
   3890000  -101.21683      154.32117      323.57221    
   3900000  -107.09128      139.16453      291.7926     
   3910000  -115.55185      145.44704      304.96543    
   3920000  -114.6178       145.32741      304.7146     
   3930000  -107.70998      136.70434      286.6342     
   3940000  -113.89396      122.97568      257.8487     
   3950000  -119.33863      141.32791      296.32866    
   3960000  -122.87468      144.29355      302.54685    
   3970000  -124.85948      145.22013      304.48966    
   3980000  -112.34776      143.46305      300.80551    
   3990000  -92.0998        119.32271      250.18936    
   4000000  -132.95672      147.12533      308.48438    
Loop time of 646.952 on 1 procs for 4000000 steps with 161 atoms

Performance: 5341.973 ns/day, 0.004 hours/ns, 6182.839 timesteps/s, 995.437 katom-step/s
99.6% CPU use with 1 MPI tasks x 1 OpenMP threads

MPI task timing breakdown:
Section |  min time  |  avg time  |  max time  |%varavg| %total
---------------------------------------------------------------
Pair    | 595.64     | 595.64     | 595.64     |   0.0 | 92.07
Bond    | 33.122     | 33.122     | 33.122     |   0.0 |  5.12
Neigh   | 2.0355     | 2.0355     | 2.0355     |   0.0 |  0.31
Comm    | 1.8625     | 1.8625     | 1.8625     |   0.0 |  0.29
Output  | 0.088454   | 0.088454   | 0.088454   |   0.0 |  0.01
Modify  | 13.244     | 13.244     | 13.244     |   0.0 |  2.05
Other   |            | 0.9627     |            |       |  0.15

Nlocal:            161 ave         161 max         161 min
Histogram: 1 0 0 0 0 0 0 0 0 0
Nghost:              0 ave           0 max           0 min
Histogram: 1 0 0 0 0 0 0 0 0 0
Neighs:           1854 ave        1854 max        1854 min
Histogram: 1 0 0 0 0 0 0 0 0 0

Total # of neighbors = 1854
Ave neighs/atom = 11.515528
Ave special neighs/atom = 5.9254658
Neighbor list builds = 8592
Dangerous builds = 0
Generated 0 of 6 mixed pair_coeff terms from geometric mixing rule
Setting up Verlet run ...
  Unit style    : real
  Current step  : 4000000
  Time step     : 10
Per MPI rank memory allocation (min/avg/max) = 9.642 | 9.642 | 9.642 Mbytes
   Step         PotEng         KinEng          Temp     
   4000000  -132.95672      147.12533      308.48438    
   4010000  -144.46343      138.76182      290.94821    
   4020000  -143.40228      143.31116      300.48702    
   4030000  -137.79192      145.06658      304.16769    
   4040000  -119.98692      133.16484      279.21277    
   4050000  -135.39953      148.4866       311.33862    
   4060000  -117.81137      143.70738      301.31781    
   4070000  -111.03633      159.17464      333.7487     
   4080000  -108.41676      146.83256      307.87051    
   4090000  -95.847969      144.74024      303.48345    
   4100000  -115.11319      154.80104      324.57839    
   4110000  -99.750382      148.1127       310.55463    
   4120000  -124.68312      149.29344      313.03034    
   4130000  -121.04672      145.88927      305.89266    
   4140000  -112.96924      158.24639      331.80241    
   4150000  -102.41113      155.35157      325.7327     
   4160000  -107.8374       158.45237      332.2343     
   4170000  -107.95025      150.29527      315.13093    
   4180000  -110.53571      153.7048       322.27985    
   4190000  -105.51134      152.02102      318.74938    
   4200000  -97.142615      139.65301      292.81682    
   4210000  -123.04594      150.73536      316.05368    
   4220000  -146.45119      152.90826      320.6097     
   4230000  -132.58209      152.71733      320.20937    
   4240000  -125.77042      144.04896      302.034      
   4250000  -142.12563      145.66581      305.42413    
   4260000  -144.38234      140.07772      293.70733    
   4270000  -145.77109      128.22252      268.84998    
   4280000  -134.45399      147.40386      309.06837    
   4290000  -124.07596      156.70021      328.56045    
   4300000  -111.82892      143.26104      300.38194    
   4310000  -97.685593      138.37929      290.14615    
   4320000  -108.16648      170.98747      358.51721    
   4330000  -94.761822      145.7136       305.52434    
   4340000  -95.043616      135.56105      284.23702    
   4350000  -119.05001      143.34756      300.56335    
   4360000  -117.59529      131.15847      275.00594    
   4370000  -123.58998      161.45096      338.52157    
   4380000  -126.36307      154.01709      322.93463    
   4390000  -111.57312      135.1745       283.42653    
   4400000  -139.51737      154.55173      324.05565    
   4410000  -121.55587      128.82755      270.11858    
   4420000  -119.20632      153.64693      322.1585     
   4430000  -116.57698      146.8186       307.84124    
   4440000  -80.52959       138.4013       290.19229    
   4450000  -118.53633      144.19423      302.33861    
   4460000  -126.1302       142.33926      298.4492     
   4470000  -120.01976      129.35885      271.23259    
   4480000  -104.10795      144.38         302.72812    
   4490000  -115.18621      141.04073      295.72651    
   4500000  -103.05679      142.65578      299.11286    
   4510000  -101.53445      140.24185      294.05147    
   4520000  -103.17103      153.00076      320.80365    
   4530000  -124.65182      142.15015      298.05268    
   4540000  -94.512425      151.86332      318.41874    
   4550000  -64.393614      152.7369       320.25041    
   4560000  -91.018523      152.87449      320.5389     
   4570000  -109.44778      143.40035      300.67403    
   4580000  -116.97684      136.48605      286.17651    
   4590000  -131.65888      138.24441      289.86334    
   4600000  -145.8077       154.07883      323.06409    
   4610000  -97.899929      147.69456      309.6779     
   4620000  -109.67314      162.29865      340.29895    
   4630000  -106.83297      154.19638      323.31056    
   4640000  -103.20818      149.81971      314.13379    
   4650000  -107.55584      147.60787      309.49612    
   4660000  -103.14669      159.44406      334.31361    
   4670000  -101.96493      155.42023      325.87666    
   4680000  -96.231742      150.02779      314.57009    
   4690000  -108.30209      163.07361      341.92386    
   4700000  -108.01954      168.85427      354.04442    
   4710000  -113.4775       148.02919      310.37953    
   4720000  -105.17798      150.92543      316.45222    
   4730000  -85.378282      141.99252      297.72218    
   4740000  -103.83249      154.97503      324.94319    
   4750000  -85.000778      158.1976       331.7001     
   4760000  -101.09984      146.8325       307.87039    
   4770000  -85.105014      146.06327      306.2575     
   4780000  -87.163977      146.1107       306.35695    
   4790000  -69.505473      158.0962       331.4875     
   4800000  -101.88114      164.26706      344.42621    
   4810000  -99.445857      147.72831      309.74866    
   4820000  -74.464059      163.80304      343.45328    
   4830000  -69.532918      153.21932      321.26191    
   4840000  -80.737558      148.45411      311.27048    
   4850000  -114.61073      156.59975      328.34982    
   4860000  -99.047209      151.9536       318.60803    
   4870000  -94.697737      161.75086      339.15038    
   4880000  -87.130221      146.41511      306.99522    
   4890000  -108.33917      150.3186       315.17985    
   4900000  -100.63114      143.44675      300.77132    
   4910000  -104.88908      152.98082      320.76185    
   4920000  -110.38903      170.86708      358.26477    
   4930000  -108.72207      154.5512       324.05454    
   4940000  -118.91025      140.76926      295.15732    
   4950000  -111.66992      141.81412      297.34811    
   4960000  -103.53093      156.04814      327.19322    
   4970000  -93.077976      164.5268       344.97082    
   4980000  -99.982766      171.16046      358.87992    
   4990000  -91.750908      151.74018      318.16055    
   5000000  -116.00995      153.48518      321.81936    
   5010000  -109.8456       153.78095      322.43951    
   5020000  -95.084361      159.84855      335.16173    
   5030000  -126.67557      174.92389      366.77088    
   5040000  -75.097916      147.99374      310.3052     
   5050000  -82.877585      152.51709      319.78952    
   5060000  -128.09508      164.11799      344.11365    
   5070000  -98.805341      153.43287      321.70967    
   5080000  -125.48613      156.1556       327.41856    
   5090000  -119.77802      161.31426      338.23495    
   5100000  -110.25052      152.11546      318.94741    
   5110000  -81.215467      141.06015      295.76723    
   5120000  -87.087348      165.88304      347.81451    
   5130000  -107.36895      163.15295      342.09021    
   5140000  -98.947274      161.15384      337.89858    
   5150000  -108.91686      167.75833      351.74652    
   5160000  -124.24651      153.78114      322.43991    
   5170000  -122.60943      166.46596      349.03674    
   5180000  -97.445601      162.98177      341.73128    
   5190000  -97.436119      177.53455      372.24477    
   5200000  -106.9489       156.05001      327.19716    
   5210000  -90.439011      164.50028      344.91521    
   5220000  -94.381468      175.00223      366.93513    
   5230000  -79.356274      167.76653      351.76371    
   5240000  -91.189938      148.28337      310.91249    
   5250000  -84.38865       133.77521      280.49256    
   5260000  -114.52638      149.22857      312.89433    
   5270000  -93.147542      150.0045       314.52125    
   5280000  -112.6385       162.98216      341.7321     
   5290000  -115.55906      160.62247      336.78444    
   5300000  -118.46815      152.30637      319.34769    
   5310000  -113.18959      141.94959      297.63216    
   5320000  -109.22511      151.5223       317.7037     
   5330000  -87.191309      147.5641       309.40436    
   5340000  -77.548304      146.95276      308.12254    
   5350000  -98.055065      162.51643      340.75559    
   5360000  -100.86215      177.1302       371.39696    
   5370000  -70.039879      152.1563       319.03302    
   5380000  -81.094647      167.95947      352.16827    
   5390000  -67.053108      159.08888      333.5689     
   5400000  -55.998364      179.90373      377.21233    
   5410000  -54.457592      151.68535      318.04557    
   5420000  -56.330434      154.95276      324.89651    
   5430000  -49.648573      151.65696      317.98604    
   5440000  -56.4751        160.38283      336.28197    
   5450000  -68.722939      172.98521      362.70595    
   5460000  -86.921774      169.17098      354.70849    
   5470000  -82.779534      179.26597      375.87511    
   5480000  -63.772095      161.64637      338.93129    
   5490000  -72.267059      154.34289      323.61775    
   5500000  -75.950675      152.04462      318.79887    
   5510000  -91.974234      168.67849      353.67587    
   5520000  -66.634316      165.57627      347.1713     
   5530000  -94.764016      179.42367      376.20577    
   5540000  -86.254686      166.10881      348.2879     
   5550000  -79.477864      162.08697      339.85511    
   5560000  -60.887462      153.03048      320.86596    
   5570000  -83.532195      134.48131      281.97308    
   5580000  -71.779888      133.55665      280.03429    
   5590000  -87.772719      184.45358      386.75221    
   5600000  -77.243228      142.8056       299.427      
   5610000  -101.45105      172.33814      361.34921    
   5620000  -87.670292      156.428        327.98969    
   5630000  -89.409964      153.52739      321.90787    
   5640000  -67.056716      174.74247      366.39048    
   5650000  -97.142105      167.30686      350.79991    
   5660000  -88.204716      158.12499      331.54785    
   5670000  -95.510086      154.70356      324.37399    
   5680000  -100.89256      149.86753      314.23408    
   5690000  -74.955969      166.72325      349.57622    
   5700000  -77.175158      173.82708      364.47115    
   5710000  -72.975127      143.20772      300.27014    
   5720000  -77.293189      174.12078      365.08695    
   5730000  -106.8978       168.84805      354.03139    
   5740000  -81.111299      162.18701      340.06487    
   5750000  -97.922673      169.23129      354.83494    
   5760000  -92.386377      161.43172      338.48124    
   5770000  -83.412397      156.39114      327.91242    
   5780000  -96.566615      172.11596      360.88337    
   5790000  -59.05721       148.31919      310.9876     
   5800000  -68.373612      160.25866      336.02161    
   5810000  -77.637789      154.53264      324.01562    
   5820000  -77.761919      155.26473      325.55061    
   5830000  -97.889812      165.58959      347.19922    
   5840000  -68.409807      143.89694      301.71526    
   5850000  -83.092059      162.12367      339.93206    
   5860000  -48.7104        158.13607      331.57109    
   5870000  -71.939135      168.1622       352.59333    
   5880000  -66.011909      142.54133      298.8729     
   5890000  -41.695428      140.23407      294.03516    
   5900000  -55.644148      163.68053      343.19641    
   5910000  -47.981959      166.03623      348.13571    
   5920000  -74.114347      155.51896      326.08368    
   5930000  -57.7363        145.01554      304.06067    
   5940000  -71.482124      164.26123      344.414      
   5950000  -73.743497      170.29722      357.06994    
   5960000  -53.816531      160.34447      336.20155    
   5970000  -34.112384      142.6492       299.09906    
   5980000  -44.471673      166.67112      349.46693    
   5990000  -37.402112      171.93368      360.50116    
   6000000  -56.495702      160.55812      336.64952    
   6010000  -40.792251      169.28085      354.93885    
   6020000  -44.466776      174.49207      365.86546    
   6030000  -47.849629      167.36109      350.91362    
   6040000  -72.933613      173.65773      364.11605    
   6050000  -65.839455      165.29053      346.57218    
   6060000  -54.979158      153.93839      322.76963    
   6070000  -32.906375      170.13117      356.72177    
   6080000  -31.092307      157.63237      330.51495    
   6090000  -48.155054      168.41298      353.11915    
   6100000  -26.344317      170.37885      357.24107    
   6110000  -68.629466      173.27733      363.31846    
   6120000  -73.938843      177.00267      371.12955    
   6130000  -40.27668       170.93938      358.41637    
   6140000  -52.157362      191.30298      401.11367    
   6150000  -59.876547      167.74871      351.72634    
   6160000  -47.122354      153.13173      321.07826    
   6170000  -63.837732      185.87427      389.73104    
   6180000  -61.304341      166.75927      349.65174    
   6190000  -77.624839      177.21048      371.56527    
   6200000  -40.636583      146.94044      308.09671    
   6210000  -58.614946      164.46216      344.8353     
   6220000  -55.130594      175.18004      367.30795    
   6230000  -55.758319      168.29443      352.87059    
   6240000  -71.82225       162.42104      340.55558    
   6250000  -64.060928      174.41767      365.70945    
   6260000  -45.805818      161.58434      338.80124    
   6270000  -62.036747      168.5829       353.47544    
   6280000  -39.067964      153.21503      321.25292    
   6290000  -25.457059      161.43507      338.48825    
   6300000  -20.206859      168.26565      352.81024    
   6310000  -46.731354      170.41912      357.32552    
   6320000  -65.104957      179.93713      377.28236    
   6330000  -37.805259      167.14616      350.46296    
   6340000  -50.713223      167.24041      350.66057    
   6350000  -71.989898      159.68666      334.82229    
   6360000  -53.355633      157.85501      330.98179    
   6370000  -49.351861      157.09967      329.39803    
   6380000  -40.670227      165.29425      346.57997    
   6390000  -52.136547      193.28308      405.26542    
   6400000  -39.695114      190.55894      399.55359    
   6410000  -42.696377      193.68469      406.10751    
   6420000  -55.186453      173.23699      363.23388    
   6430000  -65.468535      165.89711      347.84401    
   6440000  -52.247467      163.20895      342.20764    
   6450000  -41.222547      182.25242      382.13693    
   6460000  -60.054859      189.29118      396.89542    
   6470000  -63.846906      161.72773      339.10188    
   6480000  -45.659607      164.62933      345.1858     
   6490000  -55.880657      171.41967      359.42341    
   6500000  -45.732271      163.73694      343.31468    
   6510000  -41.241028      169.54573      355.49425    
   6520000  -24.438622      189.19186      396.68717    
   6530000  -5.564516       210.45792      441.27668    
   6540000   4.1179666      176.73818      370.57498    
   6550000  -13.782771      188.91086      396.09799    
   6560000  -0.057097782    160.95492      337.4815     
   6570000  -28.53351       171.08624      358.7243     
   6580000  -9.8827497      173.66139      364.12373    
   6590000  -44.094643      187.74302      393.64932    
   6600000  -35.732414      162.66368      341.06434    
   6610000  -41.359929      163.36202      342.52857    
   6620000  -45.23443       187.17534      392.45905    
   6630000  -53.06721       171.17212      358.90436    
   6640000  -26.997024      172.35263      361.37959    
   6650000  -33.760954      166.46516      349.03508    
   6660000  -59.443471      172.01651      360.67483    
   6670000  -63.984441      174.97782      366.88395    
   6680000  -39.415062      163.72306      343.28559    
   6690000  -42.666164      163.0434       341.86052    
   6700000  -46.188423      182.00008      381.60785    
   6710000   0.81661108     185.14147      388.19455    
   6720000  -7.1753902      179.34416      376.03905    
   6730000  -15.142392      186.9533       391.99349    
   6740000   7.9997579      179.72386      376.83519    
   6750000  -29.371476      191.95938      402.48996    
   6760000   0.21540186     159.66401      334.77478    
   6770000  -10.189122      206.55948      433.10266    
   6780000   24.29617       180.84455      379.18499    
   6790000   16.215926      196.27859      411.54624    
   6800000   11.881871      172.50474      361.69853    
   6810000   4.2623744      167.67293      351.56746    
   6820000  -0.23019989     175.78167      368.56942    
   6830000   10.488844      209.26205      438.76926    
   6840000   6.6043166      203.42028      426.52056    
   6850000   9.5981045      174.16925      365.18859    
   6860000  -10.879425      190.25454      398.91534    
   6870000   7.890995       174.03624      364.9097     
   6880000  -0.46138701     179.92915      377.26564    
   6890000  -33.821592      183.27501      384.28104    
   6900000  -14.580129      168.75052      353.82689    
   6910000  -22.248371      187.10383      392.30911    
   6920000  -24.698148      185.25292      388.42822    
   6930000  -5.2087104      185.79248      389.55954    
   6940000   8.8693501      197.01148      413.08293    
   6950000   9.0714635      176.11256      369.26322    
   6960000  -26.199103      175.55364      368.0913     
   6970000  -3.0176536      182.0352       381.68148    
   6980000  -12.799531      182.80731      383.30039    
   6990000  -16.350935      191.65409      401.84984    
   7000000  -37.606158      175.06735      367.07167    
   7010000  -52.483682      184.3823       386.60275    
   7020000  -25.101172      171.15024      358.85849    
   7030000  -10.653208      150.73679      316.05667    
   7040000  -4.4131755      189.66637      397.68211    
   7050000  -1.5309699      175.32817      367.61856    
   7060000   18.589962      174.5622       366.01251    
   7070000   5.6711652      190.13401      398.66262    
   7080000  -17.680008      192.21687      403.02984    
   7090000  -7.3806958      178.128        373.48908    
   7100000  -30.895994      183.41995      384.58496    
   7110000  -58.144061      199.57028      418.44808    
   7120000  -30.270991      164.52494      344.96693    
   7130000  -30.65189       176.01754      369.06398    
   7140000  -28.07091       190.75751      399.96995    
   7150000  -10.583399      166.79497      349.7266     
   7160000  -26.708474      193.67558      406.08839    
   7170000  -36.608978      201.06611      421.58445    
   7180000  -15.491103      161.68188      339.00574    
   7190000   1.1686755      181.13237      379.78847    
   7200000  -22.174116      178.50828      374.28643    
   7210000  -26.038644      169.16114      354.68785    
   7220000  -9.8520864      169.38933      355.16631    
   7230000  -19.356343      177.28558      371.72273    
   7240000   6.1588032      157.77132      330.8063     
   7250000  -31.071095      184.08953      385.98888    
   7260000  -12.288548      158.38569      332.09448    
   7270000  -15.66695       170.29307      357.06122    
   7280000  -23.098857      175.6439       368.28054    
   7290000  -39.84585       184.72858      387.32881    
   7300000  -9.9357902      176.33707      369.73395    
   7310000  -0.60186896     193.37315      405.45428    
   7320000   4.4366087      165.18722      346.35555    
   7330000  -7.6771518      170.10435      356.66553    
   7340000  -13.689255      177.6391       372.46398    
   7350000   12.012752      178.27289      373.79287    
   7360000  -2.434638       192.70232      404.04772    
   7370000  -0.24423144     174.00136      364.83657    
   7380000  -1.5666701      166.67939      349.48427    
   7390000  -5.3083512      180.56402      378.59679    
   7400000  -12.094259      164.1669       344.2162     
   7410000   2.6166255      156.01484      327.12342    
   7420000  -20.738647      192.78096      404.2126     
   7430000  -13.575942      178.00496      373.23109    
   7440000   7.6871396      200.0048       419.35917    
   7450000   8.0942709      187.70208      393.56349    
   7460000  -31.528335      170.90378      358.34173    
   7470000  -34.265018      176.93203      370.98143    
   7480000  -35.740744      180.38695      378.22553    
   7490000  -50.597021      174.75437      366.41544    
   7500000  -27.696131      186.35873      390.74682    
   7510000  -9.4338028      182.49833      382.65256    
   7520000   10.113042      188.94223      396.16376    
   7530000  -0.89962237     183.68914      385.14937    
   7540000  -8.4780169      176.65916      370.40929    
   7550000  -13.930515      176.99875      371.12134    
   7560000  -9.2893536      179.67277      376.72807    
   7570000  -28.424051      167.92297      352.09173    
   7580000  -17.808776      170.63469      357.77751    
   7590000  -8.998035       186.9021       391.88613    
   7600000  -4.1362294      206.29213      432.54208    
   7610000   1.8401453      197.28717      413.66098    
   7620000   13.189421      183.97263      385.74379    
   7630000  -12.183851      188.99739      396.27942    
   7640000   4.463727       178.70499      374.69888    
   7650000   9.7004761      187.86357      393.9021     
   7660000   21.041887      201.61781      422.74122    
   7670000   9.3072142      181.45568      380.46637    
   7680000  -0.87240864     192.90751      404.47794    
   7690000   24.831845      183.99611      385.79302    
   7700000   11.845049      177.24666      371.64114    
   7710000   0.87801423     198.17096      415.51406    
   7720000   33.839663      190.74307      399.93966    
   7730000   28.141181      205.47411      430.82692    
   7740000   22.146629      179.07099      375.46629    
   7750000   1.3858599      183.16214      384.04438    
   7760000   30.580498      170.10932      356.67596    
   7770000   20.933934      195.52392      409.9639     
   7780000   34.489424      190.0516       398.48983    
   7790000   39.317638      188.23802      394.68722    
   7800000   21.353995      211.76117      444.00927    
   7810000   16.095928      172.21288      361.08658    
   7820000   2.2893274      193.3202       405.34326    
   7830000   30.72911       184.41622      386.67387    
   7840000   18.310993      196.48767      411.98463    
   7850000   5.2363694      175.89992      368.81736    
   7860000   26.662858      178.95352      375.21998    
   7870000   34.116256      182.4025       382.45161    
   7880000   24.024375      166.34952      348.7926     
   7890000   26.293708      186.90454      391.89126    
   7900000   20.877699      174.29947      365.46163    
   7910000   32.588156      205.27011      430.39917    
   7920000   26.813519      185.32528      388.57995    
   7930000   12.344935      194.09056      406.9585     
   7940000   48.836734      179.50402      376.37424    
   7950000   56.743073      188.5306       395.30068    
   7960000   28.6975        188.16854      394.54153    
   7970000   16.455043      182.86565      383.42273    
   7980000   19.919969      195.04         408.94924    
   7990000   26.732293      169.45687      355.30792    
   8000000   28.337105      177.94811      373.1119     
   8010000   33.161996      197.40363      413.90516    
   8020000   51.304392      196.41683      411.8361     
   8030000   57.897524      189.31316      396.9415     
   8040000   59.072756      203.76841      427.25048    
   8050000   55.557726      190.65262      399.75003    
   8060000   35.451571      192.46487      403.54985    
   8070000   47.016324      198.48432      416.17111    
   8080000   62.811525      198.41715      416.03026    
   8090000   19.033856      212.75119      446.0851     
   8100000   34.044345      204.10472      427.95565    
   8110000   26.419497      190.00183      398.38548    
   8120000   37.66843       197.41096      413.92054    
   8130000   32.08064       194.45805      407.72903    
   8140000   43.866939      184.3678       386.57235    
   8150000   41.614266      197.58402      414.28341    
   8160000   73.607075      196.37801      411.75471    
   8170000   55.855367      190.69953      399.84838    
   8180000   31.333204      199.42993      418.15381    
   8190000   34.165213      170.6282       357.7639     
   8200000   27.714405      192.84557      404.34808    
   8210000   44.115419      177.37013      371.90001    
   8220000   49.439021      180.94824      379.40241    
   8230000   17.633282      207.54866      435.17672    
   8240000   38.229983      219.35296      459.92732    
   8250000   34.724115      186.56917      391.18807    
   8260000   50.692357      201.48971      422.47264    
   8270000   77.118064      175.82536      368.66102    
   8280000   57.241749      203.52386      426.73773    
   8290000   62.665883      215.54088      451.93436    
   8300000   73.284003      237.78475      498.57411    
   8310000   88.432207      219.12119      459.44136    
   8320000   94.220552      182.8577       383.40605    
   8330000   60.700071      197.55841      414.22969    
   8340000   39.8361        180.54937      378.56608    
   8350000   37.12337       215.84372      452.56934    
   8360000   62.297415      192.27276      403.14704    
   8370000   65.326911      187.26418      392.64531    
   8380000   45.413328      192.38448      403.38129    
   8390000   55.871308      184.40571      386.65185    
   8400000   22.720394      192.11191      402.80977    
   8410000   50.87937       204.39548      428.56531    
   8420000   63.047517      188.79811      395.86158    
   8430000   47.719638      171.88487      360.39882    
   8440000   67.051704      197.37355      413.8421     
   8450000   65.647905      207.35361      434.76774    
   8460000   79.087026      183.23189      384.19064    
   8470000   70.212248      217.8211       456.71541    
   8480000   58.995294      213.90923      448.51321    
   8490000   70.320526      190.19263      398.78553    
   8500000   56.403437      175.66433      368.32339    
   8510000   47.598196      206.58384      433.15374    
   8520000   73.807426      197.8387       414.8174     
   8530000   44.539361      202.54644      424.68833    
   8540000   29.138055      204.11046      427.96768    
   8550000   53.686336      210.35761      441.06637    
   8560000   57.803862      184.37454      386.58647    
   8570000   41.450886      201.54026      422.57864    
   8580000   58.769458      229.42033      481.03604    
   8590000   70.173687      188.50763      395.25252    
   8600000   73.63081       195.71561      410.36582    
   8610000   83.966516      203.86952      427.46248    
   8620000   57.554084      213.24102      447.11214    
   8630000   56.665901      208.34555      436.84759    
   8640000   77.662187      176.7113       370.51862    
   8650000   67.191213      218.73167      458.62464    
   8660000   80.808127      207.37148      434.80522    
   8670000   64.01945       227.78561      477.60845    
   8680000   92.843118      179.50814      376.38289    
   8690000   76.975124      190.70327      399.85621    
   8700000   54.66931       204.96177      429.75266    
   8710000   59.314804      195.29427      409.48237    
   8720000   76.058392      199.70212      418.72452    
   8730000   81.504053      204.28477      428.33317    
   8740000   84.685037      196.95966      412.97428    
   8750000   103.8585       196.16014      411.29789    
   8760000   93.911627      214.36691      449.47286    
   8770000   80.737211      212.40258      445.35414    
   8780000   99.099276      175.348        367.66014    
   8790000   80.936239      214.54701      449.85048    
   8800000   121.28066      202.95464      425.54422    
   8810000   119.9271       221.09985      463.5901     
   8820000   98.809981      228.66604      479.45449    
   8830000   110.54185      202.44525      424.47617    
   8840000   111.35744      186.84475      391.76589    
   8850000   130.95073      209.89573      440.09791    
   8860000   104.31256      224.31592      470.3334     
   8870000   126.28528      185.36888      388.67136    
   8880000   148.71662      182.52328      382.70486    
   8890000   89.923537      228.49639      479.09877    
   8900000   132.85126      202.07735      423.70477    
   8910000   102.6644       210.94386      442.29559    
   8920000   134.42911      201.69849      422.9104     
   8930000   116.24145      226.17961      474.24107    
   8940000   114.84296      213.37192      447.38661    
   8950000   100.77377      213.76593      448.21276    
   8960000   94.951573      209.5977       439.47303    
   8970000   105.8173       191.88684      402.33785    
   8980000   94.345452      209.00894      438.23855    
   8990000   104.81438      202.56957      424.73683    
   9000000   111.69529      191.88588      402.33584    
   9010000   113.64732      208.04877      436.22532    
   9020000   109.44919      216.12135      453.15146    
   9030000   116.39891      205.59202      431.07414    
   9040000   101.10433      214.46262      449.67352    
   9050000   110.93504      192.14456      402.87825    
   9060000   87.538288      221.7501       464.95351    
   9070000   82.238871      218.60721      458.36369    
   9080000   85.202992      222.299        466.10441    
   9090000   112.97542      210.30798      440.96231    
   9100000   116.1886       202.53285      424.65983    
   9110000   104.4663       183.56842      384.89626    
   9120000   85.587723      195.4757       409.86278    
   9130000   86.974854      214.77864      450.33614    
   9140000   94.148612      187.75975      393.68441    
   9150000   78.827849      220.0057       461.29596    
   9160000   82.755084      208.59423      437.36901    
   9170000   95.516109      212.58254      445.73148    
   9180000   95.382974      209.55033      439.37372    
   9190000   87.747396      206.17796      432.3027     
   9200000   97.544754      218.71192      458.58322    
   9210000   86.834836      224.50535      470.73057    
   9220000   118.41234      205.71431      431.33054    
   9230000   96.644095      217.69584      456.45277    
   9240000   107.43425      218.18361      457.4755     
   9250000   102.75417      224.85157      471.45652    
   9260000   91.309674      202.15457      423.86668    
   9270000   95.294851      193.31303      405.32822    
   9280000   89.528139      196.88856      412.82519    
   9290000   97.770297      193.82109      406.39349    
   9300000   80.556981      204.75112      429.31099    
   9310000   96.463402      207.60844      435.30206    
   9320000   103.49729      212.00924      444.52942    
   9330000   107.85937      200.794        421.01392    
   9340000   123.26669      201.54641      422.59153    
   9350000   103.66732      214.79564      450.37179    
   9360000   79.303573      189.35378      397.02669    
   9370000   62.056418      217.77395      456.61654    
   9380000   84.281432      199.71566      418.7529     
   9390000   127.89303      204.4128       428.60162    
   9400000   79.590538      237.05135      497.03635    
   9410000   116.09248      219.50079      460.23728    
   9420000   138.70681      207.58468      435.25224    
   9430000   114.42788      191.49807      401.52272    
   9440000   112.62344      210.20939      440.75558    
   9450000   118.53419      200.88703      421.20898    
   9460000   124.29328      223.31331      468.23118    
   9470000   116.5588       207.14691      434.33435    
   9480000   104.43861      184.05325      385.91281    
   9490000   89.82252       209.99179      440.29934    
   9500000   108.55452      190.73912      399.93139    
   9510000   126.12242      203.83624      427.39271    
   9520000   100.44238      219.79205      460.84799    
   9530000   98.550495      201.6513       422.81145    
   9540000   100.40066      187.5691       393.28467    
   9550000   98.058463      226.15865      474.19712    
   9560000   87.058347      219.2449       459.70074    
   9570000   72.525736      212.14546      444.81504    
   9580000   123.45894      213.58112      447.82525    
   9590000   106.14666      240.9467       505.20391    
   9600000   122.29284      204.39326      428.56065    
   9610000   116.05186      209.17281      438.58214    
   9620000   71.874492      205.53283      430.95003    
   9630000   74.116159      206.41038      432.79002    
   9640000   109.70573      200.82248      421.07363    
   9650000   79.295554      205.44519      430.76627    
   9660000   95.992224      210.63384      441.64555    
   9670000   77.159632      213.77999      448.24223    
   9680000   89.000177      193.2087       405.10946    
   9690000   66.711505      214.96591      450.72879    
   9700000   64.620752      221.98101      465.43769    
   9710000   74.616657      224.81086      471.37115    
   9720000   77.608274      216.17814      453.27053    
   9730000   94.26449       235.48928      493.76108    
   9740000   103.3834       231.32626      485.03229    
   9750000   75.550629      219.88469      461.04223    
   9760000   83.607901      223.00119      467.57674    
   9770000   86.616609      213.2685       447.16976    
   9780000   61.246779      213.55185      447.76387    
   9790000   59.475705      185.35469      388.6416     
   9800000   65.621372      210.72238      441.8312     
   9810000   72.477187      195.81452      410.57322    
   9820000   66.054169      210.94427      442.29645    
   9830000   66.509421      212.09557      444.71042    
   9840000   78.692618      218.88077      458.93727    
   9850000   76.651349      207.75772      435.61506    
   9860000   81.123664      210.83181      442.06064    
   9870000   80.217011      219.00682      459.20156    
   9880000   110.33878      203.39139      426.45997    
   9890000   100.55868      224.15794      470.00216    
   9900000   128.03288      220.50493      462.34271    
   9910000   137.32159      203.78096      427.27681    
   9920000   118.53751      240.32159      503.89322    
   9930000   92.384071      227.51272      477.03627    
   9940000   93.098181      220.08383      461.45977    
   9950000   97.385662      206.9615       433.9456     
   9960000   103.26618      196.4871       411.98345    
   9970000   89.894572      202.1235       423.80153    
   9980000   117.90422      213.18001      446.98423    
   9990000   102.91932      230.59039      483.48936    
  10000000   103.28906      212.82464      446.2391     
  10010000   109.15089      225.03908      471.84968    
  10020000   118.59397      228.98568      480.1247     
  10030000   123.76244      217.98147      457.05165    
  10040000   138.08074      253.54175      531.61253    
  10050000   133.34919      235.40228      493.57866    
  10060000   103.79048      197.50105      414.10943    
  10070000   103.00486      198.53273      416.27261    
  10080000   134.27289      204.46337      428.70764    
  10090000   132.83646      198.16412      415.49973    
  10100000   114.4049       216.40774      453.75195    
  10110000   99.192757      222.15429      465.80101    
  10120000   137.57012      196.7425       412.51894    
  10130000   88.504221      234.55126      491.79429    
  10140000   112.67983      214.59169      449.94417    
  10150000   126.2562       214.26702      449.26341    
  10160000   93.838883      203.58164      426.85889    
  10170000   126.73789      225.78155      473.40645    
  10180000   132.98143      242.39755      508.24597    
  10190000   142.14536      245.39823      514.53763    
  10200000   133.79549      249.50882      523.1565     
  10210000   129.04131      235.20682      493.16883    
  10220000   114.84758      215.87531      452.63557    
  10230000   111.94612      220.27876      461.86848    
  10240000   100.36602      230.66422      483.64417    
  10250000   111.32696      231.89285      486.22028    
  10260000   94.098408      231.87882      486.19087    
  10270000   91.528916      214.3276       449.39043    
  10280000   95.882835      194.81422      408.47584    
  10290000   95.344292      216.13446      453.17894    
  10300000   103.3532       236.41091      495.69352    
  10310000   108.88584      183.96645      385.73083    
  10320000   95.287429      214.56422      449.88656    
  10330000   119.66181      200.51561      420.4302     
  10340000   150.06016      199.37854      418.04606    
  10350000   98.002788      235.34069      493.44952    
  10360000   98.217644      227.32074      476.63374    
  10370000   98.840379      240.07637      503.37903    
  10380000   117.99905      233.61519      489.8316     
  10390000   131.0005       237.73513      498.47005    
  10400000   114.89151      254.46178      533.54159    
  10410000   92.897364      231.37027      485.12457    
  10420000   107.57423      215.12433      451.06096    
  10430000   121.1347       210.9467       442.30153    
  10440000   126.34101      225.94342      473.74585    
  10450000   121.53652      198.03703      415.23326    
  10460000   93.830456      225.72297      473.28361    
  10470000   134.60517      204.72082      429.24746    
  10480000   103.4571       208.74088      437.6765     
  10490000   114.41309      208.04183      436.21077    
  10500000   86.435947      208.49244      437.15558    
  10510000   91.342958      224.94375      471.6498     
  10520000   102.98162      210.30895      440.96434    
  10530000   89.219572      198.9154       417.07496    
  10540000   97.139103      196.92141      412.89408    
  10550000   124.62562      223.32376      468.25308    
  10560000   121.49774      233.28356      489.13625    
  10570000   130.86223      223.96884      469.60566    
  10580000   120.81184      214.03123      448.76901    
  10590000   126.23126      212.45723      445.46874    
  10600000   171.9706       183.79389      385.36902    
  10610000   153.19629      230.04911      482.35442    
  10620000   148.98132      246.58473      517.02542    
  10630000   152.77926      206.90883      433.83516    
  10640000   127.98253      233.01583      488.57488    
  10650000   141.82637      208.95411      438.12358    
  10660000   132.79023      211.51118      443.48512    
  10670000   128.54329      195.3709       409.64306    
  10680000   115.21571      206.82551      433.66045    
  10690000   142.5911       201.51184      422.51904    
  10700000   139.01073      220.28192      461.87512    
  10710000   149.90668      223.38152      468.3742     
  10720000   143.45746      207.48771      435.04891    
  10730000   146.05959      240.91439      505.13616    
  10740000   122.84757      247.86877      519.71773    
  10750000   123.42625      231.80255      486.03095    
  10760000   140.21628      246.25006      516.32369    
  10770000   132.6458       229.80753      481.8479     
  10780000   114.56751      235.37627      493.52413    
  10790000   154.76806      195.59955      410.12246    
  10800000   117.98956      224.08682      469.85304    
  10810000   127.62603      232.59023      487.68251    
  10820000   124.12773      236.45212      495.77991    
  10830000   102.18821      227.07318      476.11466    
  10840000   120.757        213.65939      447.98936    
  10850000   107.7362       209.26252      438.77025    
  10860000   111.50986      208.60798      437.39784    
  10870000   116.26025      244.70505      513.0842     
  10880000   96.630018      220.42662      462.17851    
  10890000   112.02158      237.93699      498.89331    
  10900000   113.4645       212.12123      444.76422    
  10910000   128.86201      226.07601      474.02386    
  10920000   134.95032      219.86009      460.99064    
  10930000   148.89124      219.01         459.20822    
  10940000   132.11681      230.8491       484.03181    
  10950000   133.44335      219.71398      460.68429    
  10960000   129.69965      206.55721      433.09791    
  10970000   155.26008      221.04515      463.47542    
  10980000   143.47227      194.429        407.66812    
  10990000   155.95086      222.26361      466.03022    
  11000000   174.88179      234.42737      491.53452    
  11010000   159.49787      227.74051      477.51389    
  11020000   149.49671      249.21699      522.5446     
  11030000   136.7233       231.71521      485.84782    
  11040000   135.04487      238.81104      500.72597    
  11050000   133.53287      226.32964      474.55565    
  11060000   139.47846      237.43946      497.85011    
  11070000   130.23575      241.48851      506.33995    
  11080000   141.52143      218.55769      458.25986    
  11090000   158.54308      231.10129      484.56058    
  11100000   132.52641      217.03127      455.05933    
  11110000   136.91411      252.51358      529.45671    
  11120000   138.18715      229.55924      481.3273     
  11130000   146.78342      201.26801      422.00779    
  11140000   140.65187      245.3216       514.37695    
  11150000   129.88792      224.10416      469.88938    
  11160000   148.68377      244.0718       511.75645    
  11170000   125.58382      235.2548       493.26944    
  11180000   121.46624      206.3504       432.66427    
  11190000   112.64474      227.13158      476.23712    
  11200000   114.91722      228.71642      479.56013    
  11210000   123.76827      204.47926      428.74095    
  11220000   123.52284      250.60252      525.44971    
  11230000   150.82034      239.56334      502.30335    
  11240000   126.06073      228.82471      479.78717    
  11250000   130.2447       200.05526      419.46497    
  11260000   131.81555      204.71918      429.24401    
  11270000   137.2276       235.67097      494.14205    
  11280000   145.10477      207.31303      434.68266    
  11290000   157.8232       202.4362       424.45718    
  11300000   160.72705      229.80878      481.85051    
  11310000   153.90391      225.27691      472.34835    
  11320000   140.83551      241.5823       506.5366     
  11330000   151.45706      236.04859      494.93381    
  11340000   152.76093      243.35583      510.25524    
  11350000   166.45758      233.99062      490.61877    
  11360000   159.85725      236.88931      496.69659    
  11370000   128.64287      244.15998      511.94134    
  11380000   145.17982      247.16386      518.2397     
  11390000   148.52475      245.32841      514.39123    
  11400000   138.92389      234.46079      491.60459    
  11410000   135.29431      224.08165      469.84218    
  11420000   157.00875      204.62342      429.04323    
  11430000   140.23828      230.48556      483.26955    
  11440000   141.36227      220.87613      463.12103    
  11450000   153.98143      238.25119      499.55211    
  11460000   121.42788      254.81861      534.28977    
  11470000   150.94823      235.58691      493.96578    
  11480000   144.02081      272.48843      571.33889    
  11490000   128.06287      266.16669      558.08381    
  11500000   128.41896      253.71679      531.97953    
  11510000   150.68697      238.65016      500.38864    
  11520000   165.78691      244.71502      513.1051     
  11530000   153.26053      231.61075      485.6288     
  11540000   166.48624      240.48899      504.24421    
  11550000   161.46759      250.13525      524.46995    
  11560000   156.84014      230.13705      482.53881    
  11570000   140.65285      228.47555      479.05507    
  11580000   124.22301      213.34472      447.32958    
  11590000   145.61367      225.40748      472.62212    
  11600000   162.90581      243.10264      509.72436    
  11610000   149.99931      242.1911       507.8131     
  11620000   131.40807      244.62458      512.91549    
  11630000   151.5209       221.29711      464.00371    
  11640000   197.96543      245.68863      515.14653    
  11650000   179.70993      236.26431      495.38612    
  11660000   164.65296      242.61186      508.69533    
  11670000   147.84765      227.7926       477.62311    
  11680000   150.01147      222.2395       465.97966    
  11690000   146.582        251.50373      527.33931    
  11700000   137.89535      253.09663      530.67921    
  11710000   127.65016      233.42864      489.44045    
  11720000   155.98551      235.67648      494.15359    
  11730000   144.13704      228.9789       480.11048    
  11740000   126.73728      228.80936      479.75499    
  11750000   167.79603      231.04173      484.43571    
  11760000   158.7323       215.94715      452.78622    
  11770000   163.86319      249.83039      523.83075    
  11780000   131.65529      247.39865      518.73199    
  11790000   168.95217      238.05383      499.13829    
  11800000   158.64943      243.80076      511.18815    
  11810000   144.79003      233.36815      489.31361    
  11820000   135.71911      221.85684      465.17733    
  11830000   149.60783      201.57092      422.64293    
  11840000   147.78485      230.31048      482.90246    
  11850000   155.45969      238.63449      500.3558     
  11860000   153.55512      238.73932      500.57559    
  11870000   150.55615      238.48541      500.04321    
  11880000   166.57543      260.7588       546.74483    
  11890000   153.22851      243.5372       510.63553    
  11900000   136.69742      239.24972      501.64577    
  11910000   148.99065      231.08604      484.5286     
  11920000   123.82841      213.35144      447.34366    
  11930000   134.41597      231.14854      484.65966    
  11940000   145.04866      274.32538      575.1905     
  11950000   125.94879      251.40964      527.14203    
  11960000   155.96248      226.6025       475.12777    
  11970000   128.04487      218.21019      457.53123    
  11980000   155.95429      247.32407      518.57563    
  11990000   145.54428      234.84819      492.41687    
  12000000   165.17681      250.2506       524.71182    
Loop time of 882.947 on 1 procs for 8000000 steps with 161 atoms

Performance: 7828.332 ns/day, 0.003 hours/ns, 9060.570 timesteps/s, 1.459 Matom-step/s
99.6% CPU use with 1 MPI tasks x 1 OpenMP threads

MPI task timing breakdown:
Section |  min time  |  avg time  |  max time  |%varavg| %total
---------------------------------------------------------------
Pair    | 780.19     | 780.19     | 780.19     |   0.0 | 88.36
Bond    | 65.255     | 65.255     | 65.255     |   0.0 |  7.39
Neigh   | 4.9652     | 4.9652     | 4.9652     |   0.0 |  0.56
Comm    | 4.2876     | 4.2876     | 4.2876     |   0.0 |  0.49
Output  | 0.17505    | 0.17505    | 0.17505    |   0.0 |  0.02
Modify  | 26.241     | 26.241     | 26.241     |   0.0 |  2.97
Other   |            | 1.83       |            |       |  0.21

Nlocal:            161 ave         161 max         161 min
Histogram: 1 0 0 0 0 0 0 0 0 0
Nghost:              0 ave           0 max           0 min
Histogram: 1 0 0 0 0 0 0 0 0 0
Neighs:            584 ave         584 max         584 min
Histogram: 1 0 0 0 0 0 0 0 0 0

Total # of neighbors = 584
Ave neighs/atom = 3.6273292
Ave special neighs/atom = 5.9254658
Neighbor list builds = 23328
Dangerous builds = 0
Generated 0 of 6 mixed pair_coeff terms from geometric mixing rule
Setting up Verlet run ...
  Unit style    : real
  Current step  : 12000000
  Time step     : 10
Per MPI rank memory allocation (min/avg/max) = 9.643 | 9.643 | 9.643 Mbytes
   Step         PotEng         KinEng          Temp     
  12000000   165.17681      250.2506       524.71182    
  12010000   149.19642      265.7912       557.29651    
  12020000   131.12563      246.27667      516.37949    
  12030000   155.89126      206.2151       432.38057    
  12040000   144.32861      246.02344      515.84854    
  12050000   138.52192      251.8664       528.09973    
  12060000   155.06004      257.04198      538.95161    
  12070000   143.75807      232.01168      486.46944    
  12080000   119.92956      259.7289       544.58539    
  12090000   148.79953      264.66356      554.93213    
  12100000   139.14773      242.89985      509.29915    
  12110000   160.25745      217.55324      456.15376    
  12120000   145.69383      234.29415      491.25519    
  12130000   139.70162      263.19975      551.86289    
  12140000   167.54161      238.71505      500.52471    
  12150000   162.22841      266.37241      558.51514    
  12160000   178.99006      273.6216       573.71485    
  12170000   166.67254      261.42559      548.14292    
  12180000   140.43233      267.21955      560.29138    
  12190000   141.09418      271.26719      568.77826    
  12200000   153.45746      253.60789      531.7512     
  12210000   132.30065      247.86885      519.71789    
  12220000   119.63604      221.11893      463.63012    
  12230000   131.3418       215.31542      451.46163    
  12240000   147.60576      251.25267      526.81289    
  12250000   145.00198      212.82409      446.23795    
  12260000   146.44987      272.66077      571.70023    
  12270000   134.19449      238.48118      500.03434    
  12280000   132.8448       236.40932      495.69017    
  12290000   127.64275      247.02222      517.94272    
  12300000   150.05659      232.28081      487.03375    
  12310000   169.95621      239.15667      501.45067    
  12320000   160.21142      229.99953      482.25048    
  12330000   147.08546      234.61269      491.92309    
  12340000   145.16335      230.91164      484.16293    
  12350000   134.66891      231.83926      486.10791    
  12360000   168.81417      260.07401      545.30901    
  12370000   173.6493       225.08378      471.9434     
  12380000   137.14347      241.74422      506.87609    
  12390000   127.68821      238.17574      499.3939     
  12400000   143.58122      251.62799      527.59986    
  12410000   148.80348      257.60434      540.13074    
  12420000   146.60579      241.63056      506.63779    
  12430000   166.25152      217.40235      455.83739    
  12440000   188.39737      238.68949      500.47111    
  12450000   135.70875      240.52687      504.32363    
  12460000   131.90718      268.02682      561.98402    
  12470000   166.60329      241.88432      507.16986    
  12480000   124.41369      241.81968      507.03431    
  12490000   161.05887      243.59129      510.74894    
  12500000   126.99439      212.69847      445.97455    
  12510000   135.90183      217.35835      455.74513    
  12520000   145.63208      225.4625       472.73747    
  12530000   125.89397      230.4056       483.10191    
  12540000   143.18935      242.59208      508.65386    
  12550000   148.93926      273.3821       573.21269    
  12560000   153.46966      252.4365       529.2951     
  12570000   148.06792      232.86721      488.26328    
  12580000   137.7374       233.39644      489.37293    
  12590000   141.80578      225.06544      471.90493    
  12600000   130.70321      233.76886      490.15381    
  12610000   151.81209      245.21131      514.1457     
  12620000   124.28583      240.24807      503.73906    
  12630000   133.00332      235.19406      493.14207    
  12640000   108.4326       266.07439      557.89027    
  12650000   150.106        237.12573      497.19229    
  12660000   137.64663      259.51571      544.1384     
  12670000   189.04633      237.65692      498.30608    
  12680000   163.90329      225.97004      473.80167    
  12690000   154.66852      262.19063      549.74701    
  12700000   140.53163      225.80762      473.46111    
  12710000   154.97674      215.24859      451.32152    
  12720000   158.16638      268.02267      561.97533    
  12730000   146.86727      216.95308      454.8954     
  12740000   141.00039      221.28583      463.98006    
  12750000   153.53271      240.78177      504.8581     
  12760000   138.49758      249.88902      523.95367    
  12770000   172.21338      236.95057      496.82504    
  12780000   143.27885      237.42563      497.82111    
  12790000   143.28074      226.63995      475.2063     
  12800000   143.55587      250.81076      525.88633    
  12810000   144.22122      242.27236      507.98347    
  12820000   147.70498      226.04591      473.96073    
  12830000   133.63848      239.45203      502.06996    
  12840000   129.62484      270.14589      566.42718    
  12850000   126.73315      231.33432      485.04918    
  12860000   132.32761      231.48911      485.37374    
  12870000   127.47166      247.75895      519.48747    
  12880000   146.27878      245.6394       515.04331    
  12890000   138.08432      245.41916      514.58152    
  12900000   173.76071      231.9112       486.25876    
  12910000   138.37173      227.05582      476.07827    
  12920000   122.00927      247.63791      519.23366    
  12930000   124.65698      238.81355      500.73122    
  12940000   139.81356      230.3666       483.02013    
  12950000   131.99636      244.17751      511.9781     
  12960000   150.59749      250.95532      526.18943    
  12970000   147.48711      236.90488      496.72924    
  12980000   149.55305      221.54681      464.52727    
  12990000   170.47531      252.44145      529.30546    
  13000000   138.68645      222.64395      466.8277     
  13010000   137.67854      232.45562      487.40026    
  13020000   149.97213      277.54703      581.94547    
  13030000   137.94377      251.36444      527.04725    
  13040000   133.0585       243.29854      510.13511    
  13050000   134.13454      251.1618       526.62236    
  13060000   129.59567      240.68447      504.65408    
[...]
 404740000  -140.57061      158.45626      332.24245    
 404750000  -133.53916      144.09334      302.12707    
 404760000  -152.96403      137.68403      288.68837    
 404770000  -135.39588      129.89124      272.34886    
 404780000  -129.76717      151.58767      317.84076    
 404790000  -140.03967      148.57879      311.53191    
 404800000  -128.84015      136.43863      286.07709    
 404810000  -137.22211      150.79107      316.17049    
 404820000  -126.82129      142.03282      297.80667    
 404830000  -150.99529      141.59298      296.88445    
 404840000  -161.75817      141.91189      297.55311    
 404850000  -143.17078      132.20888      277.20838    
 404860000  -141.32172      137.1879       287.64812    
 404870000  -130.98897      140.26921      294.10883    
 404880000  -143.79322      137.15514      287.57942    
 404890000  -144.26314      146.96162      308.1411     
 404900000  -150.59903      138.45877      290.31281    
 404910000  -136.12448      131.00062      274.67497    
 404920000  -128.23701      147.49511      309.2597     
 404930000  -127.82375      142.28701      298.33964    
 404940000  -143.32053      147.95681      310.22776    
 404950000  -133.82609      121.43161      254.61118    
 404960000  -127.40411      142.56288      298.91807    
 404970000  -148.32899      141.40703      296.49455    
 404980000  -146.22803      154.48849      323.92304    
 404990000  -112.68035      138.38403      290.15609    
 405000000  -150.59713      133.93382      280.82512    
 405010000  -145.86475      132.75436      278.35211    
 405020000  -145.75305      129.43778      271.39808    
 405030000  -146.19999      128.09462      268.58181    
 405040000  -149.67056      150.78909      316.16634    
 405050000  -166.36758      153.72763      322.32771    
 405060000  -146.9877       127.75867      267.8774     
 405070000  -152.21746      150.60951      315.7898     
 405080000  -156.8548       140.20088      293.96557    
 405090000  -152.22429      133.80988      280.56525    
 405100000  -162.30235      146.86053      307.92916    
 405110000  -152.49533      132.68045      278.19714    
 405120000  -167.38222      126.19298      264.59456    
 405130000  -174.37022      130.36953      273.35173    
 405140000  -162.26766      145.23044      304.51128    
 405150000  -148.25769      139.80451      293.13447    
 405160000  -142.92272      142.85586      299.53238    
 405170000  -130.42646      146.13341      306.40456    
 405180000  -125.55351      139.19515      291.85679    
 405190000  -138.32017      126.32576      264.87297    
 405200000  -148.95283      135.20815      283.49708    
 405210000  -137.52586      127.29937      266.91439    
 405220000  -130.23801      142.59747      298.99061    
 405230000  -126.47178      165.34994      346.69675    
 405240000  -128.77033      154.24782      323.41843    
 405250000  -133.27743      148.19376      310.7246     
 405260000  -144.41804      141.02687      295.69745    
 405270000  -138.21268      156.00541      327.10363    
 405280000  -117.76486      145.80606      305.71821    
 405290000  -133.28884      135.61616      284.35256    
 405300000  -153.57477      142.54229      298.87491    
 405310000  -128.31324      129.9541       272.48067    
 405320000  -151.29927      136.27414      285.73218    
 405330000  -147.06977      158.86723      333.10415    
 405340000  -137.62533      151.04386      316.70052    
 405350000  -152.97476      144.2409       302.43645    
 405360000  -143.32899      143.89218      301.70528    
 405370000  -135.41462      153.6555       322.17648    
 405380000  -122.91311      156.95533      329.09538    
 405390000  -124.21562      152.66579      320.10131    
 405400000  -121.856        139.25417      291.98056    
 405410000  -131.82857      139.39657      292.27913    
 405420000  -153.46079      144.26271      302.48219    
 405430000  -154.19076      141.22358      296.10991    
 405440000  -155.37016      139.35406      292.19       
 405450000  -162.10588      139.72207      292.96162    
 405460000  -144.78672      127.86127      268.09254    
 405470000  -168.22367      144.82951      303.67063    
 405480000  -147.64806      137.81507      288.96313    
 405490000  -157.96431      143.41572      300.70627    
 405500000  -162.91008      141.08553      295.82045    
 405510000  -148.07172      140.6531       294.91376    
 405520000  -149.92031      140.13492      293.82725    
 405530000  -145.36258      137.42804      288.15163    
 405540000  -152.67788      139.77879      293.08054    
 405550000  -152.04819      139.92759      293.39254    
 405560000  -140.97427      138.7249       290.8708     
 405570000  -145.70878      153.14836      321.11313    
 405580000  -141.67758      143.00149      299.83773    
 405590000  -156.08409      149.82154      314.13764    
 405600000  -159.87716      150.27049      315.07898    
 405610000  -149.41768      142.9389       299.70649    
 405620000  -162.55844      144.03367      302.00195    
 405630000  -127.28065      130.16656      272.92615    
 405640000  -117.86245      135.5182       284.14718    
 405650000  -143.15167      140.71792      295.04966    
 405660000  -161.7522       140.97326      295.58505    
 405670000  -126.9427       127.91607      268.20745    
 405680000  -164.82034      147.89793      310.10432    
 405690000  -179.20398      131.30866      275.32084    
 405700000  -171.1187       146.6974       307.58712    
 405710000  -159.40711      141.10682      295.86509    
 405720000  -133.60432      143.30215      300.46814    
 405730000  -129.7668       138.34828      290.08113    
 405740000  -143.51599      138.15066      289.66678    
 405750000  -129.25311      126.14547      264.49494    
 405760000  -144.33841      165.85207      347.74959    
 405770000  -135.01729      144.65415      303.30293    
 405780000  -134.60705      142.8381       299.49515    
 405790000  -138.21428      129.76285      272.07967    
 405800000  -158.17822      150.29533      315.13105    
 405810000  -154.85795      141.71874      297.14813    
 405820000  -157.12633      145.74451      305.58914    
 405830000  -144.65163      139.5873       292.67903    
 405840000  -134.26882      139.04674      291.54562    
 405850000  -136.00661      143.21006      300.27504    
 405860000  -120.99509      148.18851      310.71359    
 405870000  -123.4696       145.68976      305.47435    
 405880000  -146.43317      140.60095      294.80442    
 405890000  -145.12602      154.9939       324.98276    
 405900000  -131.80553      139.47328      292.43997    
 405910000  -132.60977      152.9962       320.7941     
 405920000  -138.44434      147.10652      308.44493    
 405930000  -125.20388      140.86264      295.35311    
 405940000  -129.74739      161.09215      337.76924    
 405950000  -145.56747      139.38963      292.26457    
 405960000  -140.30368      136.53189      286.27263    
 405970000  -118.99137      148.54922      311.46991    
 405980000  -101.15643      153.15283      321.12251    
 405990000  -113.71604      156.89032      328.95908    
 406000000  -128.67823      138.23871      289.85138    
 406010000  -141.98565      140.26569      294.10146    
 406020000  -132.7383       135.97738      285.10995    
 406030000  -142.32617      151.90778      318.51195    
 406040000  -134.74928      138.85794      291.14976    
 406050000  -121.29944      129.58214      271.70077    
 406060000  -135.03084      172.34201      361.35734    
 406070000  -123.95343      144.76825      303.54217    
 406080000  -130.08765      153.45409      321.75418    
 406090000  -134.49959      158.53807      332.41398    
 406100000  -126.7399       136.62889      286.47602    
 406110000  -130.92559      133.76423      280.46955    
 406120000  -126.10629      137.30446      287.89251    
 406130000  -127.07278      138.11618      289.59448    
 406140000  -115.50311      141.4536       296.5922     
 406150000  -124.56154      137.92441      289.19239    
 406160000  -137.03182      146.13467      306.40721    
 406170000  -142.09614      143.62624      301.14768    
 406180000  -115.48627      128.64561      269.7371     
 406190000  -141.72121      156.18494      327.48006    
 406200000  -124.42132      151.91273      318.52234    
 406210000  -117.48908      151.32158      317.28283    
 406220000  -131.75601      141.66586      297.03726    
 406230000  -123.00819      153.14617      321.10853    
 406240000  -127.85324      157.57228      330.38897    
 406250000  -111.25827      142.24476      298.25105    
 406260000  -129.72088      154.34504      323.62226    
 406270000  -124.01252      149.6066       313.68696    
 406280000  -121.74415      147.8779       310.06231    
 406290000  -124.98656      143.39371      300.66012    
 406300000  -133.56694      141.31387      296.29922    
 406310000  -126.14         157.70494      330.66712    
 406320000  -162.69383      151.65075      317.97302    
 406330000  -133.7831       145.24314      304.53791    
 406340000  -135.44742      149.49909      313.46153    
 406350000  -154.91082      140.96407      295.56577    
 406360000  -144.66367      137.41354      288.12122    
 406370000  -167.98715      146.50646      307.18676    
 406380000  -128.41377      126.41709      265.06446    
 406390000  -140.95011      156.73742      328.63847    
 406400000  -161.84296      156.01344      327.12048    
 406410000  -132.29693      149.82387      314.14252    
 406420000  -137.90248      148.43484      311.23008    
 406430000  -139.86221      139.93584      293.40983    
 406440000  -150.25721      144.18086      302.31056    
 406450000  -154.03888      133.85056      280.65055    
 406460000  -166.1663       160.47126      336.4674     
 406470000  -155.83422      141.30591      296.28253    
 406480000  -141.07211      137.94604      289.23773    
 406490000  -154.91192      140.17154      293.90404    
 406500000  -143.66276      139.90061      293.33596    
 406510000  -142.92915      152.70774      320.18927    
 406520000  -129.20133      152.7122       320.19861    
 406530000  -144.78554      150.15829      314.84372    
 406540000  -144.0769       145.87652      305.86593    
 406550000  -128.35064      150.64169      315.85728    
 406560000  -136.42723      158.32834      331.97423    
 406570000  -129.27622      138.9133       291.26583    
 406580000  -147.63756      145.76966      305.64187    
 406590000  -141.31775      152.21407      319.15416    
 406600000  -130.95247      142.04757      297.83759    
 406610000  -156.33879      143.07411      299.98999    
 406620000  -154.31916      160.35072      336.21464    
 406630000  -163.0809       148.74298      311.87618    
 406640000  -161.07185      131.14088      274.96906    
 406650000  -161.22571      126.01365      264.21855    
 406660000  -160.67016      132.2058       277.20192    
 406670000  -135.96371      133.33466      279.56884    
 406680000  -148.43287      158.71122      332.77704    
 406690000  -148.23671      155.05245      325.10552    
 406700000  -150.51436      167.2684       350.71926    
 406710000  -126.16644      151.98114      318.66576    
 406720000  -163.66833      156.27589      327.67077    
 406730000  -154.0591       151.96758      318.63734    
 406740000  -153.44365      155.88783      326.8571     
 406750000  -143.73478      151.72605      318.13091    
 406760000  -146.48206      158.67396      332.69891    
 406770000  -146.45694      154.54649      324.04466    
 406780000  -139.19416      142.44025      298.66095    
 406790000  -149.22296      138.86913      291.17323    
 406800000  -137.38492      145.89846      305.91194    
 406810000  -139.97459      152.06172      318.83472    
 406820000  -138.39301      144.20897      302.3695     
 406830000  -145.27178      147.04867      308.32364    
 406840000  -148.1525       140.50249      294.59795    
 406850000  -146.57726      138.34832      290.08121    
 406860000  -153.64155      146.54866      307.27523    
 406870000  -147.01938      128.91091      270.29338    
 406880000  -156.02699      136.01423      285.18723    
 406890000  -133.94977      142.59636      298.98828    
 406900000  -145.12945      150.13431      314.79343    
 406910000  -146.44474      154.99766      324.99064    
 406920000  -126.1212       164.73047      345.39786    
 406930000  -123.5603       139.73757      292.99412    
 406940000  -150.08702      165.47178      346.9522     
 406950000  -145.91082      139.65099      292.81258    
 406960000  -160.43249      151.91712      318.53153    
 406970000  -184.49623      152.177        319.07644    
 406980000  -166.62504      123.03933      257.98216    
 406990000  -151.39834      134.57543      282.17043    
 407000000  -158.31821      151.18217      316.99054    
 407010000  -142.3318       153.68882      322.24633    
 407020000  -137.8654       160.39701      336.3117     
 407030000  -109.16039      145.32173      304.70269    
 407040000  -121.30751      150.97656      316.55942    
 407050000  -132.57954      143.3099       300.48439    
 407060000  -137.08565      156.55232      328.25037    
 407070000  -144.06406      144.31879      302.59977    
 407080000  -147.23774      127.58618      267.51575    
 407090000  -156.24742      165.7894       347.61818    
 407100000  -151.40681      142.31682      298.40216    
 407110000  -155.17699      131.94884      276.66313    
 407120000  -149.37817      135.30736      283.70509    
 407130000  -121.37248      129.61596      271.77168    
 407140000  -127.11177      145.13346      304.30793    
 407150000  -148.45808      157.88806      331.05107    
 407160000  -127.46844      146.15898      306.45818    
 407170000  -150.65776      135.94668      285.04558    
 407180000  -134.09797      128.5001       269.43201    
 407190000  -161.20649      145.00891      304.04677    
 407200000  -144.79656      137.66776      288.65426    
 407210000  -153.54399      156.22449      327.56299    
 407220000  -160.0851       153.7076       322.28571    
 407230000  -152.63786      142.41964      298.61774    
 407240000  -164.41971      133.80616      280.55747    
 407250000  -154.53905      132.46724      277.75009    
 407260000  -148.42767      148.53016      311.42994    
 407270000  -138.2102       141.83245      297.38656    
 407280000  -151.64761      138.13265      289.629      
 407290000  -154.22509      149.3078       313.06045    
 407300000  -143.95509      134.16542      281.31073    
 407310000  -128.01625      133.49778      279.91086    
 407320000  -138.28524      172.89323      362.51311    
 407330000  -111.60319      148.75317      311.89753    
 407340000  -123.29928      144.54941      303.08332    
 407350000  -123.19744      128.53013      269.49498    
 407360000  -134.36531      157.59395      330.43439    
 407370000  -139.36272      153.96514      322.82572    
 407380000  -158.86478      138.11738      289.59699    
 407390000  -140.28986      131.8831       276.5253     
 407400000  -134.65697      136.35379      285.89919    
 407410000  -117.99455      144.61288      303.21641    
 407420000  -142.48148      131.82835      276.41049    
 407430000  -143.20774      132.38355      277.5746     
 407440000  -122.0672       145.4511       304.97395    
 407450000  -135.19028      150.80973      316.20962    
 407460000  -117.19711      145.524        305.12678    
 407470000  -130.9256       157.04345      329.28014    
 407480000  -123.87916      150.47548      315.50879    
 407490000  -138.16659      156.07807      327.25599    
 407500000  -116.20822      145.43365      304.93735    
 407510000  -140.8748       138.43757      290.26835    
 407520000  -135.4877       146.05802      306.2465     
 407530000  -131.15136      142.02301      297.7861     
 407540000  -127.68151      140.85192      295.33063    
 407550000  -107.54569      151.10529      316.82933    
 407560000  -126.61888      151.58678      317.83889    
 407570000  -143.74027      154.83394      324.64737    
 407580000  -152.98621      152.88917      320.56969    
 407590000  -155.93366      137.059        287.37783    
 407600000  -153.9231       128.17381      268.74786    
 407610000  -157.85031      154.52918      324.00836    
 407620000  -147.19223      150.47802      315.51411    
 407630000  -152.5092       126.24273      264.69887    
 407640000  -148.61672      132.2998       277.39901    
 407650000  -130.99334      140.96358      295.56474    
 407660000  -149.41639      146.8394       307.88485    
 407670000  -141.2338       147.36089      308.97828    
 407680000  -152.02834      155.51331      326.07183    
 407690000  -152.96641      150.37889      315.30626    
 407700000  -136.4049       137.90921      289.16051    
 407710000  -133.1662       147.22081      308.68456    
 407720000  -144.32257      144.01963      301.9725     
 407730000  -132.67282      154.64152      324.24391    
 407740000  -110.43554      145.4372       304.94479    
 407750000  -117.19756      139.36427      292.2114     
 407760000  -134.91768      142.01242      297.7639     
 407770000  -138.54977      143.2854       300.43301    
 407780000  -127.9927       132.83839      278.52829    
 407790000  -109.14974      142.2512       298.26457    
 407800000  -131.53593      130.40824      273.43288    
 407810000  -138.2924       125.87483      263.92747    
 407820000  -139.13284      142.91752      299.66167    
 407830000  -145.34614      152.7098       320.19358    
 407840000  -129.34005      130.49359      273.61185    
 407850000  -158.35587      159.65476      334.75539    
 407860000  -148.63032      133.95573      280.87107    
 407870000  -145.61809      145.8767       305.86631    
 407880000  -144.94056      154.31142      323.55176    
 407890000  -119.83796      136.32061      285.82962    
 407900000  -125.82616      147.01191      308.24656    
 407910000  -145.32047      157.53646      330.31386    
 407920000  -135.65394      133.06706      279.00775    
 407930000  -141.43572      145.90469      305.925      
 407940000  -137.71545      146.163        306.46661    
 407950000  -123.2022       134.61189      282.24686    
 407960000  -141.50332      155.16438      325.34022    
 407970000  -129.05308      137.69863      288.71897    
 407980000  -147.9344       152.50009      319.75387    
 407990000  -138.38623      138.63134      290.67464    
 408000000  -139.03596      132.15363      277.09254    
Loop time of 867.768 on 1 procs for 4000000 steps with 161 atoms

Performance: 3982.631 ns/day, 0.006 hours/ns, 4609.527 timesteps/s, 742.134 katom-step/s
99.6% CPU use with 1 MPI tasks x 1 OpenMP threads

MPI task timing breakdown:
Section |  min time  |  avg time  |  max time  |%varavg| %total
---------------------------------------------------------------
Pair    | 808.4      | 808.4      | 808.4      |   0.0 | 93.16
Bond    | 35.776     | 35.776     | 35.776     |   0.0 |  4.12
Neigh   | 3.4989     | 3.4989     | 3.4989     |   0.0 |  0.40
Comm    | 3.2631     | 3.2631     | 3.2631     |   0.0 |  0.38
Output  | 0.13499    | 0.13499    | 0.13499    |   0.0 |  0.02
Modify  | 14.835     | 14.835     | 14.835     |   0.0 |  1.71
Other   |            | 1.86       |            |       |  0.21

Nlocal:            161 ave         161 max         161 min
Histogram: 1 0 0 0 0 0 0 0 0 0
Nghost:             15 ave          15 max          15 min
Histogram: 1 0 0 0 0 0 0 0 0 0
Neighs:           2153 ave        2153 max        2153 min
Histogram: 1 0 0 0 0 0 0 0 0 0

Total # of neighbors = 2153
Ave neighs/atom = 13.372671
Ave special neighs/atom = 5.9254658
Neighbor list builds = 8098
Dangerous builds = 0
System init for write_data ...
Generated 0 of 6 mixed pair_coeff terms from geometric mixing rule
Total wall time: 13:56:12
