LAMMPS (29 Aug 2024)
--------------------------------------------------------------------------
MPI_ABORT was invoked on rank 0 in communicator MPI_COMM_WORLD
with errorcode 1.

NOTE: invoking MPI_ABORT causes Open MPI to kill all MPI processes.
You may or may not see output from other processes, depending on
exactly when Open MPI kills them.
--------------------------------------------------------------------------
srun: Job step aborted: Waiting up to 47 seconds for job step to finish.
[2025-11-13T16:36:57.283] error: *** STEP 2296245.0 ON della-i13n25 CANCELLED AT 2025-11-13T16:36:57 DUE to SIGNAL Killed ***
srun: error: della-i13n25: task 0: Exited with exit code 1
srun: Terminating StepId=2296245.0
