LAMMPS data file — Week 13 combined RNA+ASO | target=1XJR | aso=CGUACUCCGC | n_aso=50 | box=±300.0

547 atoms
496 bonds
445 angles

4 atom types
1 bond types
1 angle types

-300.000000  300.000000  xlo xhi
-300.000000  300.000000  ylo yhi
-300.000000  300.000000  zlo zhi

Masses

1 329.20
2 305.20
3 345.20
4 306.20

Atoms

1 1 2 0.000000 20.000000 0.000000 0.000000
2 1 3 0.000000 25.900000 0.000000 0.000000
3 1 4 0.000000 31.800000 0.000000 0.000000
4 1 1 0.000000 37.700000 0.000000 0.000000
5 1 2 0.000000 43.600000 0.000000 0.000000
6 1 4 0.000000 49.500000 0.000000 0.000000
7 1 2 0.000000 55.400000 0.000000 0.000000
8 1 2 0.000000 61.300000 0.000000 0.000000
9 1 3 0.000000 67.200000 0.000000 0.000000
10 1 2 0.000000 73.100000 0.000000 0.000000
11 2 3 0.000000 23.398255 7.159277 -5.482021
12 2 3 0.000000 19.562255 9.915277 -8.497021
13 2 1 0.000000 16.039255 8.926277 -12.695021
14 2 3 0.000000 13.376255 5.165277 -16.197021
15 2 4 0.000000 11.669255 -0.116723 -17.813021
16 2 4 0.000000 10.922255 -5.674723 -16.701021
17 2 2 0.000000 9.977255 -9.878723 -13.037021
18 2 1 0.000000 8.598255 -11.037723 -7.559021
19 2 2 0.000000 6.709255 -9.668723 -2.490021
20 2 2 0.000000 3.464255 -6.339723 0.386979
21 2 3 0.000000 0.406255 -3.823723 5.280979
22 2 1 0.000000 0.587255 1.755277 6.597979
23 2 3 0.000000 -0.259745 6.724277 3.503979
24 2 3 0.000000 -2.994745 8.516277 -1.475021
25 2 2 0.000000 -6.879745 7.034277 -5.039021
26 2 2 0.000000 -11.369745 3.212277 -6.172021
27 2 1 0.000000 -15.505745 -0.142723 -4.274021
28 2 2 0.000000 -18.775745 -1.366723 0.052979
29 2 3 0.000000 -22.018745 -0.430723 4.813979
30 2 2 0.000000 -18.276745 -2.560723 7.990979
31 2 3 0.000000 -12.992745 -3.911723 8.922979
32 2 3 0.000000 -10.367745 -5.399723 13.624979
33 2 1 0.000000 -11.203745 -7.775723 18.154979
34 2 3 0.000000 -14.408745 -3.734723 20.874979
35 2 4 0.000000 -16.192745 0.097277 23.278979
36 2 1 0.000000 -11.938745 3.914277 21.850979
37 2 2 0.000000 -11.258745 7.533277 17.493979
38 2 3 0.000000 -12.772745 10.319277 12.515979
39 2 1 0.000000 -15.341745 10.678277 6.377979
40 2 4 0.000000 -10.043745 11.878277 6.397979
41 2 2 0.000000 -9.731745 6.648277 9.355979
42 2 3 0.000000 -7.998745 1.256277 9.564979
43 2 1 0.000000 -3.958745 -2.998723 10.509979
44 2 3 0.000000 -7.534745 -6.072723 6.550979
45 2 3 0.000000 -8.165745 -7.643723 1.187979
46 2 3 0.000000 -6.068745 -6.394723 -4.114021
47 2 4 0.000000 -2.967745 -3.427723 -7.935021
48 2 1 0.000000 2.164255 -1.363723 -9.243021
49 2 2 0.000000 3.509255 4.808277 -8.583021
50 2 1 0.000000 7.397255 6.045277 -4.860021
51 2 3 0.000000 10.881255 3.367277 -1.451021
52 2 4 0.000000 14.355255 -1.185723 -0.640021
53 2 3 0.000000 17.754255 -5.281723 -2.803021
54 2 1 0.000000 20.443255 -7.645723 -7.129021
55 2 1 0.000000 21.827255 -7.417723 -12.956021
56 2 4 0.000000 22.569255 -4.348723 -17.481021
57 2 4 0.000000 23.417255 0.689277 -20.665021
58 3 2 0.000000 54.317543 -275.493762 -130.482995
59 3 3 0.000000 60.217543 -275.493762 -130.482995
60 3 4 0.000000 66.117543 -275.493762 -130.482995
61 3 1 0.000000 72.017543 -275.493762 -130.482995
62 3 2 0.000000 77.917543 -275.493762 -130.482995
63 3 4 0.000000 83.817543 -275.493762 -130.482995
64 3 2 0.000000 89.717543 -275.493762 -130.482995
65 3 2 0.000000 95.617543 -275.493762 -130.482995
66 3 3 0.000000 101.517543 -275.493762 -130.482995
67 3 2 0.000000 107.417543 -275.493762 -130.482995
68 4 2 0.000000 -187.087772 137.153304 102.485703
69 4 3 0.000000 -181.187772 137.153304 102.485703
70 4 4 0.000000 -175.287772 137.153304 102.485703
71 4 1 0.000000 -169.387772 137.153304 102.485703
72 4 2 0.000000 -163.487772 137.153304 102.485703
73 4 4 0.000000 -157.587772 137.153304 102.485703
74 4 2 0.000000 -151.687772 137.153304 102.485703
75 4 2 0.000000 -145.787772 137.153304 102.485703
76 4 3 0.000000 -139.887772 137.153304 102.485703
77 4 2 0.000000 -133.987772 137.153304 102.485703
78 5 2 0.000000 200.914149 -239.575477 -45.285345
79 5 3 0.000000 206.814149 -239.575477 -45.285345
80 5 4 0.000000 212.714149 -239.575477 -45.285345
81 5 1 0.000000 218.614149 -239.575477 -45.285345
82 5 2 0.000000 224.514149 -239.575477 -45.285345
83 5 4 0.000000 230.414149 -239.575477 -45.285345
84 5 2 0.000000 236.314149 -239.575477 -45.285345
85 5 2 0.000000 242.214149 -239.575477 -45.285345
86 5 3 0.000000 248.114149 -239.575477 -45.285345
87 5 2 0.000000 254.014149 -239.575477 -45.285345
88 6 2 0.000000 -299.267613 -163.189975 3.106067
89 6 3 0.000000 -293.367613 -163.189975 3.106067
90 6 4 0.000000 -287.467613 -163.189975 3.106067
91 6 1 0.000000 -281.567613 -163.189975 3.106067
92 6 2 0.000000 -275.667613 -163.189975 3.106067
93 6 4 0.000000 -269.767613 -163.189975 3.106067
94 6 2 0.000000 -263.867613 -163.189975 3.106067
95 6 2 0.000000 -257.967613 -163.189975 3.106067
96 6 3 0.000000 -252.067613 -163.189975 3.106067
97 6 2 0.000000 -246.167613 -163.189975 3.106067
98 7 2 0.000000 -301.159138 -174.674163 86.932974
99 7 3 0.000000 -295.259138 -174.674163 86.932974
100 7 4 0.000000 -289.359138 -174.674163 86.932974
101 7 1 0.000000 -283.459138 -174.674163 86.932974
102 7 2 0.000000 -277.559138 -174.674163 86.932974
103 7 4 0.000000 -271.659138 -174.674163 86.932974
104 7 2 0.000000 -265.759138 -174.674163 86.932974
105 7 2 0.000000 -259.859138 -174.674163 86.932974
106 7 3 0.000000 -253.959138 -174.674163 86.932974
107 7 2 0.000000 -248.059138 -174.674163 86.932974
108 8 2 0.000000 -0.483941 -162.144439 51.774097
109 8 3 0.000000 5.416059 -162.144439 51.774097
110 8 4 0.000000 11.316059 -162.144439 51.774097
111 8 1 0.000000 17.216059 -162.144439 51.774097
112 8 2 0.000000 23.116059 -162.144439 51.774097
113 8 4 0.000000 29.016059 -162.144439 51.774097
114 8 2 0.000000 34.916059 -162.144439 51.774097
115 8 2 0.000000 40.816059 -162.144439 51.774097
116 8 3 0.000000 46.716059 -162.144439 51.774097
117 8 2 0.000000 52.616059 -162.144439 51.774097
118 9 2 0.000000 152.919665 -286.230719 177.375166
119 9 3 0.000000 158.819665 -286.230719 177.375166
120 9 4 0.000000 164.719665 -286.230719 177.375166
121 9 1 0.000000 170.619665 -286.230719 177.375166
122 9 2 0.000000 176.519665 -286.230719 177.375166
123 9 4 0.000000 182.419665 -286.230719 177.375166
124 9 2 0.000000 188.319665 -286.230719 177.375166
125 9 2 0.000000 194.219665 -286.230719 177.375166
126 9 3 0.000000 200.119665 -286.230719 177.375166
127 9 2 0.000000 206.019665 -286.230719 177.375166
128 10 2 0.000000 88.370849 -92.654700 -199.821890
129 10 3 0.000000 94.270849 -92.654700 -199.821890
130 10 4 0.000000 100.170849 -92.654700 -199.821890
131 10 1 0.000000 106.070849 -92.654700 -199.821890
132 10 2 0.000000 111.970849 -92.654700 -199.821890
133 10 4 0.000000 117.870849 -92.654700 -199.821890
134 10 2 0.000000 123.770849 -92.654700 -199.821890
135 10 2 0.000000 129.670849 -92.654700 -199.821890
136 10 3 0.000000 135.570849 -92.654700 -199.821890
137 10 2 0.000000 141.470849 -92.654700 -199.821890
138 11 2 0.000000 238.633582 -94.775164 -236.207411
139 11 3 0.000000 244.533582 -94.775164 -236.207411
140 11 4 0.000000 250.433582 -94.775164 -236.207411
141 11 1 0.000000 256.333582 -94.775164 -236.207411
142 11 2 0.000000 262.233582 -94.775164 -236.207411
143 11 4 0.000000 268.133582 -94.775164 -236.207411
144 11 2 0.000000 274.033582 -94.775164 -236.207411
145 11 2 0.000000 279.933582 -94.775164 -236.207411
146 11 3 0.000000 285.833582 -94.775164 -236.207411
147 11 2 0.000000 291.733582 -94.775164 -236.207411
148 12 2 0.000000 -260.454501 201.546732 60.161098
149 12 3 0.000000 -254.554501 201.546732 60.161098
150 12 4 0.000000 -248.654501 201.546732 60.161098
151 12 1 0.000000 -242.754501 201.546732 60.161098
152 12 2 0.000000 -236.854501 201.546732 60.161098
153 12 4 0.000000 -230.954501 201.546732 60.161098
154 12 2 0.000000 -225.054501 201.546732 60.161098
155 12 2 0.000000 -219.154501 201.546732 60.161098
156 12 3 0.000000 -213.254501 201.546732 60.161098
157 12 2 0.000000 -207.354501 201.546732 60.161098
158 13 2 0.000000 151.584398 133.244436 21.012293
159 13 3 0.000000 157.484398 133.244436 21.012293
160 13 4 0.000000 163.384398 133.244436 21.012293
161 13 1 0.000000 169.284398 133.244436 21.012293
162 13 2 0.000000 175.184398 133.244436 21.012293
163 13 4 0.000000 181.084398 133.244436 21.012293
164 13 2 0.000000 186.984398 133.244436 21.012293
165 13 2 0.000000 192.884398 133.244436 21.012293
166 13 3 0.000000 198.784398 133.244436 21.012293
167 13 2 0.000000 204.684398 133.244436 21.012293
168 14 2 0.000000 247.857143 -70.450061 30.183566
169 14 3 0.000000 253.757143 -70.450061 30.183566
170 14 4 0.000000 259.657143 -70.450061 30.183566
171 14 1 0.000000 265.557143 -70.450061 30.183566
172 14 2 0.000000 271.457143 -70.450061 30.183566
173 14 4 0.000000 277.357143 -70.450061 30.183566
174 14 2 0.000000 283.257143 -70.450061 30.183566
175 14 2 0.000000 289.157143 -70.450061 30.183566
176 14 3 0.000000 295.057143 -70.450061 30.183566
177 14 2 0.000000 300.957143 -70.450061 30.183566
178 15 2 0.000000 164.504705 68.741456 209.790002
179 15 3 0.000000 170.404705 68.741456 209.790002
180 15 4 0.000000 176.304705 68.741456 209.790002
181 15 1 0.000000 182.204705 68.741456 209.790002
182 15 2 0.000000 188.104705 68.741456 209.790002
183 15 4 0.000000 194.004705 68.741456 209.790002
184 15 2 0.000000 199.904705 68.741456 209.790002
185 15 2 0.000000 205.804705 68.741456 209.790002
186 15 3 0.000000 211.704705 68.741456 209.790002
187 15 2 0.000000 217.604705 68.741456 209.790002
188 16 2 0.000000 18.314244 118.651665 -263.421857
189 16 3 0.000000 24.214244 118.651665 -263.421857
190 16 4 0.000000 30.114244 118.651665 -263.421857
191 16 1 0.000000 36.014244 118.651665 -263.421857
192 16 2 0.000000 41.914244 118.651665 -263.421857
193 16 4 0.000000 47.814244 118.651665 -263.421857
194 16 2 0.000000 53.714244 118.651665 -263.421857
195 16 2 0.000000 59.614244 118.651665 -263.421857
196 16 3 0.000000 65.514244 118.651665 -263.421857
197 16 2 0.000000 71.414244 118.651665 -263.421857
198 17 2 0.000000 -184.369000 -122.154981 -243.720653
199 17 3 0.000000 -178.469000 -122.154981 -243.720653
200 17 4 0.000000 -172.569000 -122.154981 -243.720653
201 17 1 0.000000 -166.669000 -122.154981 -243.720653
202 17 2 0.000000 -160.769000 -122.154981 -243.720653
203 17 4 0.000000 -154.869000 -122.154981 -243.720653
204 17 2 0.000000 -148.969000 -122.154981 -243.720653
205 17 2 0.000000 -143.069000 -122.154981 -243.720653
206 17 3 0.000000 -137.169000 -122.154981 -243.720653
207 17 2 0.000000 -131.269000 -122.154981 -243.720653
208 18 2 0.000000 -181.531286 -231.419171 -128.775310
209 18 3 0.000000 -175.631286 -231.419171 -128.775310
210 18 4 0.000000 -169.731286 -231.419171 -128.775310
211 18 1 0.000000 -163.831286 -231.419171 -128.775310
212 18 2 0.000000 -157.931286 -231.419171 -128.775310
213 18 4 0.000000 -152.031286 -231.419171 -128.775310
214 18 2 0.000000 -146.131286 -231.419171 -128.775310
215 18 2 0.000000 -140.231286 -231.419171 -128.775310
216 18 3 0.000000 -134.331286 -231.419171 -128.775310
217 18 2 0.000000 -128.431286 -231.419171 -128.775310
218 19 2 0.000000 52.146978 -78.397336 -75.295039
219 19 3 0.000000 58.046978 -78.397336 -75.295039
220 19 4 0.000000 63.946978 -78.397336 -75.295039
221 19 1 0.000000 69.846978 -78.397336 -75.295039
222 19 2 0.000000 75.746978 -78.397336 -75.295039
223 19 4 0.000000 81.646978 -78.397336 -75.295039
224 19 2 0.000000 87.546978 -78.397336 -75.295039
225 19 2 0.000000 93.446978 -78.397336 -75.295039
226 19 3 0.000000 99.346978 -78.397336 -75.295039
227 19 2 0.000000 105.246978 -78.397336 -75.295039
228 20 2 0.000000 -195.035922 -135.152863 253.259661
229 20 3 0.000000 -189.135922 -135.152863 253.259661
230 20 4 0.000000 -183.235922 -135.152863 253.259661
231 20 1 0.000000 -177.335922 -135.152863 253.259661
232 20 2 0.000000 -171.435922 -135.152863 253.259661
233 20 4 0.000000 -165.535922 -135.152863 253.259661
234 20 2 0.000000 -159.635922 -135.152863 253.259661
235 20 2 0.000000 -153.735922 -135.152863 253.259661
236 20 3 0.000000 -147.835922 -135.152863 253.259661
237 20 2 0.000000 -141.935922 -135.152863 253.259661
238 21 2 0.000000 59.310523 63.295983 -190.739584
239 21 3 0.000000 65.210523 63.295983 -190.739584
240 21 4 0.000000 71.110523 63.295983 -190.739584
241 21 1 0.000000 77.010523 63.295983 -190.739584
242 21 2 0.000000 82.910523 63.295983 -190.739584
243 21 4 0.000000 88.810523 63.295983 -190.739584
244 21 2 0.000000 94.710523 63.295983 -190.739584
245 21 2 0.000000 100.610523 63.295983 -190.739584
246 21 3 0.000000 106.510523 63.295983 -190.739584
247 21 2 0.000000 112.410523 63.295983 -190.739584
248 22 2 0.000000 106.343543 -195.226554 -69.915844
249 22 3 0.000000 112.243543 -195.226554 -69.915844
250 22 4 0.000000 118.143543 -195.226554 -69.915844
251 22 1 0.000000 124.043543 -195.226554 -69.915844
252 22 2 0.000000 129.943543 -195.226554 -69.915844
253 22 4 0.000000 135.843543 -195.226554 -69.915844
254 22 2 0.000000 141.743543 -195.226554 -69.915844
255 22 2 0.000000 147.643543 -195.226554 -69.915844
256 22 3 0.000000 153.543543 -195.226554 -69.915844
257 22 2 0.000000 159.443543 -195.226554 -69.915844
258 23 2 0.000000 257.373543 81.199861 33.030851
259 23 3 0.000000 263.273543 81.199861 33.030851
260 23 4 0.000000 269.173543 81.199861 33.030851
261 23 1 0.000000 275.073543 81.199861 33.030851
262 23 2 0.000000 280.973543 81.199861 33.030851
263 23 4 0.000000 286.873543 81.199861 33.030851
264 23 2 0.000000 292.773543 81.199861 33.030851
265 23 2 0.000000 298.673543 81.199861 33.030851
266 23 3 0.000000 304.573543 81.199861 33.030851
267 23 2 0.000000 310.473543 81.199861 33.030851
268 24 2 0.000000 80.526266 198.854114 160.079949
269 24 3 0.000000 86.426266 198.854114 160.079949
270 24 4 0.000000 92.326266 198.854114 160.079949
271 24 1 0.000000 98.226266 198.854114 160.079949
272 24 2 0.000000 104.126266 198.854114 160.079949
273 24 4 0.000000 110.026266 198.854114 160.079949
274 24 2 0.000000 115.926266 198.854114 160.079949
275 24 2 0.000000 121.826266 198.854114 160.079949
276 24 3 0.000000 127.726266 198.854114 160.079949
277 24 2 0.000000 133.626266 198.854114 160.079949
278 25 2 0.000000 -183.702118 -271.381859 -107.037232
279 25 3 0.000000 -177.802118 -271.381859 -107.037232
280 25 4 0.000000 -171.902118 -271.381859 -107.037232
281 25 1 0.000000 -166.002118 -271.381859 -107.037232
282 25 2 0.000000 -160.102118 -271.381859 -107.037232
283 25 4 0.000000 -154.202118 -271.381859 -107.037232
284 25 2 0.000000 -148.302118 -271.381859 -107.037232
285 25 2 0.000000 -142.402118 -271.381859 -107.037232
286 25 3 0.000000 -136.502118 -271.381859 -107.037232
287 25 2 0.000000 -130.602118 -271.381859 -107.037232
288 26 2 0.000000 -161.260292 -167.629951 256.887634
289 26 3 0.000000 -155.360292 -167.629951 256.887634
290 26 4 0.000000 -149.460292 -167.629951 256.887634
291 26 1 0.000000 -143.560292 -167.629951 256.887634
292 26 2 0.000000 -137.660292 -167.629951 256.887634
293 26 4 0.000000 -131.760292 -167.629951 256.887634
294 26 2 0.000000 -125.860292 -167.629951 256.887634
295 26 2 0.000000 -119.960292 -167.629951 256.887634
296 26 3 0.000000 -114.060292 -167.629951 256.887634
297 26 2 0.000000 -108.160292 -167.629951 256.887634
298 27 2 0.000000 191.743223 -107.486829 90.154426
299 27 3 0.000000 197.643223 -107.486829 90.154426
300 27 4 0.000000 203.543223 -107.486829 90.154426
301 27 1 0.000000 209.443223 -107.486829 90.154426
302 27 2 0.000000 215.343223 -107.486829 90.154426
303 27 4 0.000000 221.243223 -107.486829 90.154426
304 27 2 0.000000 227.143223 -107.486829 90.154426
305 27 2 0.000000 233.043223 -107.486829 90.154426
306 27 3 0.000000 238.943223 -107.486829 90.154426
307 27 2 0.000000 244.843223 -107.486829 90.154426
308 28 2 0.000000 -87.083497 240.437602 -23.865925
309 28 3 0.000000 -81.183497 240.437602 -23.865925
310 28 4 0.000000 -75.283497 240.437602 -23.865925
311 28 1 0.000000 -69.383497 240.437602 -23.865925
312 28 2 0.000000 -63.483497 240.437602 -23.865925
313 28 4 0.000000 -57.583497 240.437602 -23.865925
314 28 2 0.000000 -51.683497 240.437602 -23.865925
315 28 2 0.000000 -45.783497 240.437602 -23.865925
316 28 3 0.000000 -39.883497 240.437602 -23.865925
317 28 2 0.000000 -33.983497 240.437602 -23.865925
318 29 2 0.000000 -162.919503 -146.956046 35.593518
319 29 3 0.000000 -157.019503 -146.956046 35.593518
320 29 4 0.000000 -151.119503 -146.956046 35.593518
321 29 1 0.000000 -145.219503 -146.956046 35.593518
322 29 2 0.000000 -139.319503 -146.956046 35.593518
323 29 4 0.000000 -133.419503 -146.956046 35.593518
324 29 2 0.000000 -127.519503 -146.956046 35.593518
325 29 2 0.000000 -121.619503 -146.956046 35.593518
326 29 3 0.000000 -115.719503 -146.956046 35.593518
327 29 2 0.000000 -109.819503 -146.956046 35.593518
328 30 2 0.000000 -164.159867 49.059874 230.737272
329 30 3 0.000000 -158.259867 49.059874 230.737272
330 30 4 0.000000 -152.359867 49.059874 230.737272
331 30 1 0.000000 -146.459867 49.059874 230.737272
332 30 2 0.000000 -140.559867 49.059874 230.737272
333 30 4 0.000000 -134.659867 49.059874 230.737272
334 30 2 0.000000 -128.759867 49.059874 230.737272
335 30 2 0.000000 -122.859867 49.059874 230.737272
336 30 3 0.000000 -116.959867 49.059874 230.737272
337 30 2 0.000000 -111.059867 49.059874 230.737272
338 31 2 0.000000 -84.897707 -162.793960 288.571812
339 31 3 0.000000 -78.997707 -162.793960 288.571812
340 31 4 0.000000 -73.097707 -162.793960 288.571812
341 31 1 0.000000 -67.197707 -162.793960 288.571812
342 31 2 0.000000 -61.297707 -162.793960 288.571812
343 31 4 0.000000 -55.397707 -162.793960 288.571812
344 31 2 0.000000 -49.497707 -162.793960 288.571812
345 31 2 0.000000 -43.597707 -162.793960 288.571812
346 31 3 0.000000 -37.697707 -162.793960 288.571812
347 31 2 0.000000 -31.797707 -162.793960 288.571812
348 32 2 0.000000 -21.024750 -237.272541 -262.672502
349 32 3 0.000000 -15.124750 -237.272541 -262.672502
350 32 4 0.000000 -9.224750 -237.272541 -262.672502
351 32 1 0.000000 -3.324750 -237.272541 -262.672502
352 32 2 0.000000 2.575250 -237.272541 -262.672502
353 32 4 0.000000 8.475250 -237.272541 -262.672502
354 32 2 0.000000 14.375250 -237.272541 -262.672502
355 32 2 0.000000 20.275250 -237.272541 -262.672502
356 32 3 0.000000 26.175250 -237.272541 -262.672502
357 32 2 0.000000 32.075250 -237.272541 -262.672502
358 33 2 0.000000 -252.953504 73.918704 169.406031
359 33 3 0.000000 -247.053504 73.918704 169.406031
360 33 4 0.000000 -241.153504 73.918704 169.406031
361 33 1 0.000000 -235.253504 73.918704 169.406031
362 33 2 0.000000 -229.353504 73.918704 169.406031
363 33 4 0.000000 -223.453504 73.918704 169.406031
364 33 2 0.000000 -217.553504 73.918704 169.406031
365 33 2 0.000000 -211.653504 73.918704 169.406031
366 33 3 0.000000 -205.753504 73.918704 169.406031
367 33 2 0.000000 -199.853504 73.918704 169.406031
368 34 2 0.000000 -71.697219 -253.153930 -68.660814
369 34 3 0.000000 -65.797219 -253.153930 -68.660814
370 34 4 0.000000 -59.897219 -253.153930 -68.660814
371 34 1 0.000000 -53.997219 -253.153930 -68.660814
372 34 2 0.000000 -48.097219 -253.153930 -68.660814
373 34 4 0.000000 -42.197219 -253.153930 -68.660814
374 34 2 0.000000 -36.297219 -253.153930 -68.660814
375 34 2 0.000000 -30.397219 -253.153930 -68.660814
376 34 3 0.000000 -24.497219 -253.153930 -68.660814
377 34 2 0.000000 -18.597219 -253.153930 -68.660814
378 35 2 0.000000 261.200401 16.886320 273.225459
379 35 3 0.000000 267.100401 16.886320 273.225459
380 35 4 0.000000 273.000401 16.886320 273.225459
381 35 1 0.000000 278.900401 16.886320 273.225459
382 35 2 0.000000 284.800401 16.886320 273.225459
383 35 4 0.000000 290.700401 16.886320 273.225459
384 35 2 0.000000 296.600401 16.886320 273.225459
385 35 2 0.000000 302.500401 16.886320 273.225459
386 35 3 0.000000 308.400401 16.886320 273.225459
387 35 2 0.000000 314.300401 16.886320 273.225459
388 36 2 0.000000 182.702227 -283.341007 128.018655
389 36 3 0.000000 188.602227 -283.341007 128.018655
390 36 4 0.000000 194.502227 -283.341007 128.018655
391 36 1 0.000000 200.402227 -283.341007 128.018655
392 36 2 0.000000 206.302227 -283.341007 128.018655
393 36 4 0.000000 212.202227 -283.341007 128.018655
394 36 2 0.000000 218.102227 -283.341007 128.018655
395 36 2 0.000000 224.002227 -283.341007 128.018655
396 36 3 0.000000 229.902227 -283.341007 128.018655
397 36 2 0.000000 235.802227 -283.341007 128.018655
398 37 2 0.000000 78.842014 21.442792 -135.241390
399 37 3 0.000000 84.742014 21.442792 -135.241390
400 37 4 0.000000 90.642014 21.442792 -135.241390
401 37 1 0.000000 96.542014 21.442792 -135.241390
402 37 2 0.000000 102.442014 21.442792 -135.241390
403 37 4 0.000000 108.342014 21.442792 -135.241390
404 37 2 0.000000 114.242014 21.442792 -135.241390
405 37 2 0.000000 120.142014 21.442792 -135.241390
406 37 3 0.000000 126.042014 21.442792 -135.241390
407 37 2 0.000000 131.942014 21.442792 -135.241390
408 38 2 0.000000 55.207843 -225.299739 -37.836155
409 38 3 0.000000 61.107843 -225.299739 -37.836155
410 38 4 0.000000 67.007843 -225.299739 -37.836155
411 38 1 0.000000 72.907843 -225.299739 -37.836155
412 38 2 0.000000 78.807843 -225.299739 -37.836155
413 38 4 0.000000 84.707843 -225.299739 -37.836155
414 38 2 0.000000 90.607843 -225.299739 -37.836155
415 38 2 0.000000 96.507843 -225.299739 -37.836155
416 38 3 0.000000 102.407843 -225.299739 -37.836155
417 38 2 0.000000 108.307843 -225.299739 -37.836155
418 39 2 0.000000 -53.390250 263.213238 217.994705
419 39 3 0.000000 -47.490250 263.213238 217.994705
420 39 4 0.000000 -41.590250 263.213238 217.994705
421 39 1 0.000000 -35.690250 263.213238 217.994705
422 39 2 0.000000 -29.790250 263.213238 217.994705
423 39 4 0.000000 -23.890250 263.213238 217.994705
424 39 2 0.000000 -17.990250 263.213238 217.994705
425 39 2 0.000000 -12.090250 263.213238 217.994705
426 39 3 0.000000 -6.190250 263.213238 217.994705
427 39 2 0.000000 -0.290250 263.213238 217.994705
428 40 2 0.000000 -163.784351 0.339946 -186.381909
429 40 3 0.000000 -157.884351 0.339946 -186.381909
430 40 4 0.000000 -151.984351 0.339946 -186.381909
431 40 1 0.000000 -146.084351 0.339946 -186.381909
432 40 2 0.000000 -140.184351 0.339946 -186.381909
433 40 4 0.000000 -134.284351 0.339946 -186.381909
434 40 2 0.000000 -128.384351 0.339946 -186.381909
435 40 2 0.000000 -122.484351 0.339946 -186.381909
436 40 3 0.000000 -116.584351 0.339946 -186.381909
437 40 2 0.000000 -110.684351 0.339946 -186.381909
438 41 2 0.000000 212.774147 214.900771 -116.902021
439 41 3 0.000000 218.674147 214.900771 -116.902021
440 41 4 0.000000 224.574147 214.900771 -116.902021
441 41 1 0.000000 230.474147 214.900771 -116.902021
442 41 2 0.000000 236.374147 214.900771 -116.902021
443 41 4 0.000000 242.274147 214.900771 -116.902021
444 41 2 0.000000 248.174147 214.900771 -116.902021
445 41 2 0.000000 254.074147 214.900771 -116.902021
446 41 3 0.000000 259.974147 214.900771 -116.902021
447 41 2 0.000000 265.874147 214.900771 -116.902021
448 42 2 0.000000 125.706264 22.839837 161.603358
449 42 3 0.000000 131.606264 22.839837 161.603358
450 42 4 0.000000 137.506264 22.839837 161.603358
451 42 1 0.000000 143.406264 22.839837 161.603358
452 42 2 0.000000 149.306264 22.839837 161.603358
453 42 4 0.000000 155.206264 22.839837 161.603358
454 42 2 0.000000 161.106264 22.839837 161.603358
455 42 2 0.000000 167.006264 22.839837 161.603358
456 42 3 0.000000 172.906264 22.839837 161.603358
457 42 2 0.000000 178.806264 22.839837 161.603358
458 43 2 0.000000 -8.944870 -289.668300 -101.989487
459 43 3 0.000000 -3.044870 -289.668300 -101.989487
460 43 4 0.000000 2.855130 -289.668300 -101.989487
461 43 1 0.000000 8.755130 -289.668300 -101.989487
462 43 2 0.000000 14.655130 -289.668300 -101.989487
463 43 4 0.000000 20.555130 -289.668300 -101.989487
464 43 2 0.000000 26.455130 -289.668300 -101.989487
465 43 2 0.000000 32.355130 -289.668300 -101.989487
466 43 3 0.000000 38.255130 -289.668300 -101.989487
467 43 2 0.000000 44.155130 -289.668300 -101.989487
468 44 2 0.000000 -305.253489 248.877197 219.658689
469 44 3 0.000000 -299.353489 248.877197 219.658689
470 44 4 0.000000 -293.453489 248.877197 219.658689
471 44 1 0.000000 -287.553489 248.877197 219.658689
472 44 2 0.000000 -281.653489 248.877197 219.658689
473 44 4 0.000000 -275.753489 248.877197 219.658689
474 44 2 0.000000 -269.853489 248.877197 219.658689
475 44 2 0.000000 -263.953489 248.877197 219.658689
476 44 3 0.000000 -258.053489 248.877197 219.658689
477 44 2 0.000000 -252.153489 248.877197 219.658689
478 45 2 0.000000 165.816007 -111.641807 -256.403403
479 45 3 0.000000 171.716007 -111.641807 -256.403403
480 45 4 0.000000 177.616007 -111.641807 -256.403403
481 45 1 0.000000 183.516007 -111.641807 -256.403403
482 45 2 0.000000 189.416007 -111.641807 -256.403403
483 45 4 0.000000 195.316007 -111.641807 -256.403403
484 45 2 0.000000 201.216007 -111.641807 -256.403403
485 45 2 0.000000 207.116007 -111.641807 -256.403403
486 45 3 0.000000 213.016007 -111.641807 -256.403403
487 45 2 0.000000 218.916007 -111.641807 -256.403403
488 46 2 0.000000 192.695568 259.230678 -240.320998
489 46 3 0.000000 198.595568 259.230678 -240.320998
490 46 4 0.000000 204.495568 259.230678 -240.320998
491 46 1 0.000000 210.395568 259.230678 -240.320998
492 46 2 0.000000 216.295568 259.230678 -240.320998
493 46 4 0.000000 222.195568 259.230678 -240.320998
494 46 2 0.000000 228.095568 259.230678 -240.320998
495 46 2 0.000000 233.995568 259.230678 -240.320998
496 46 3 0.000000 239.895568 259.230678 -240.320998
497 46 2 0.000000 245.795568 259.230678 -240.320998
498 47 2 0.000000 -34.675531 -249.856739 151.149256
499 47 3 0.000000 -28.775531 -249.856739 151.149256
500 47 4 0.000000 -22.875531 -249.856739 151.149256
501 47 1 0.000000 -16.975531 -249.856739 151.149256
502 47 2 0.000000 -11.075531 -249.856739 151.149256
503 47 4 0.000000 -5.175531 -249.856739 151.149256
504 47 2 0.000000 0.724469 -249.856739 151.149256
505 47 2 0.000000 6.624469 -249.856739 151.149256
506 47 3 0.000000 12.524469 -249.856739 151.149256
507 47 2 0.000000 18.424469 -249.856739 151.149256
508 48 2 0.000000 127.633969 -215.532951 -14.336221
509 48 3 0.000000 133.533969 -215.532951 -14.336221
510 48 4 0.000000 139.433969 -215.532951 -14.336221
511 48 1 0.000000 145.333969 -215.532951 -14.336221
512 48 2 0.000000 151.233969 -215.532951 -14.336221
513 48 4 0.000000 157.133969 -215.532951 -14.336221
514 48 2 0.000000 163.033969 -215.532951 -14.336221
515 48 2 0.000000 168.933969 -215.532951 -14.336221
516 48 3 0.000000 174.833969 -215.532951 -14.336221
517 48 2 0.000000 180.733969 -215.532951 -14.336221
518 49 2 0.000000 2.336084 -136.267155 216.011164
519 49 3 0.000000 8.236084 -136.267155 216.011164
520 49 4 0.000000 14.136084 -136.267155 216.011164
521 49 1 0.000000 20.036084 -136.267155 216.011164
522 49 2 0.000000 25.936084 -136.267155 216.011164
523 49 4 0.000000 31.836084 -136.267155 216.011164
524 49 2 0.000000 37.736084 -136.267155 216.011164
525 49 2 0.000000 43.636084 -136.267155 216.011164
526 49 3 0.000000 49.536084 -136.267155 216.011164
527 49 2 0.000000 55.436084 -136.267155 216.011164
528 50 2 0.000000 -71.129995 -167.157041 22.791731
529 50 3 0.000000 -65.229995 -167.157041 22.791731
530 50 4 0.000000 -59.329995 -167.157041 22.791731
531 50 1 0.000000 -53.429995 -167.157041 22.791731
532 50 2 0.000000 -47.529995 -167.157041 22.791731
533 50 4 0.000000 -41.629995 -167.157041 22.791731
534 50 2 0.000000 -35.729995 -167.157041 22.791731
535 50 2 0.000000 -29.829995 -167.157041 22.791731
536 50 3 0.000000 -23.929995 -167.157041 22.791731
537 50 2 0.000000 -18.029995 -167.157041 22.791731
538 51 2 0.000000 106.810020 -173.332383 -109.204551
539 51 3 0.000000 112.710020 -173.332383 -109.204551
540 51 4 0.000000 118.610020 -173.332383 -109.204551
541 51 1 0.000000 124.510020 -173.332383 -109.204551
542 51 2 0.000000 130.410020 -173.332383 -109.204551
543 51 4 0.000000 136.310020 -173.332383 -109.204551
544 51 2 0.000000 142.210020 -173.332383 -109.204551
545 51 2 0.000000 148.110020 -173.332383 -109.204551
546 51 3 0.000000 154.010020 -173.332383 -109.204551
547 51 2 0.000000 159.910020 -173.332383 -109.204551

Bonds

1 1 1 2
2 1 2 3
3 1 3 4
4 1 4 5
5 1 5 6
6 1 6 7
7 1 7 8
8 1 8 9
9 1 9 10
10 1 11 12
11 1 12 13
12 1 13 14
13 1 14 15
14 1 15 16
15 1 16 17
16 1 17 18
17 1 18 19
18 1 19 20
19 1 20 21
20 1 21 22
21 1 22 23
22 1 23 24
23 1 24 25
24 1 25 26
25 1 26 27
26 1 27 28
27 1 28 29
28 1 29 30
29 1 30 31
30 1 31 32
31 1 32 33
32 1 33 34
33 1 34 35
34 1 35 36
35 1 36 37
36 1 37 38
37 1 38 39
38 1 39 40
39 1 40 41
40 1 41 42
41 1 42 43
42 1 43 44
43 1 44 45
44 1 45 46
45 1 46 47
46 1 47 48
47 1 48 49
48 1 49 50
49 1 50 51
50 1 51 52
51 1 52 53
52 1 53 54
53 1 54 55
54 1 55 56
55 1 56 57
56 1 58 59
57 1 59 60
58 1 60 61
59 1 61 62
60 1 62 63
61 1 63 64
62 1 64 65
63 1 65 66
64 1 66 67
65 1 68 69
66 1 69 70
67 1 70 71
68 1 71 72
69 1 72 73
70 1 73 74
71 1 74 75
72 1 75 76
73 1 76 77
74 1 78 79
75 1 79 80
76 1 80 81
77 1 81 82
78 1 82 83
79 1 83 84
80 1 84 85
81 1 85 86
82 1 86 87
83 1 88 89
84 1 89 90
85 1 90 91
86 1 91 92
87 1 92 93
88 1 93 94
89 1 94 95
90 1 95 96
91 1 96 97
92 1 98 99
93 1 99 100
94 1 100 101
95 1 101 102
96 1 102 103
97 1 103 104
98 1 104 105
99 1 105 106
100 1 106 107
101 1 108 109
102 1 109 110
103 1 110 111
104 1 111 112
105 1 112 113
106 1 113 114
107 1 114 115
108 1 115 116
109 1 116 117
110 1 118 119
111 1 119 120
112 1 120 121
113 1 121 122
114 1 122 123
115 1 123 124
116 1 124 125
117 1 125 126
118 1 126 127
119 1 128 129
120 1 129 130
121 1 130 131
122 1 131 132
123 1 132 133
124 1 133 134
125 1 134 135
126 1 135 136
127 1 136 137
128 1 138 139
129 1 139 140
130 1 140 141
131 1 141 142
132 1 142 143
133 1 143 144
134 1 144 145
135 1 145 146
136 1 146 147
137 1 148 149
138 1 149 150
139 1 150 151
140 1 151 152
141 1 152 153
142 1 153 154
143 1 154 155
144 1 155 156
145 1 156 157
146 1 158 159
147 1 159 160
148 1 160 161
149 1 161 162
150 1 162 163
151 1 163 164
152 1 164 165
153 1 165 166
154 1 166 167
155 1 168 169
156 1 169 170
157 1 170 171
158 1 171 172
159 1 172 173
160 1 173 174
161 1 174 175
162 1 175 176