LAMMPS data file via write_data, version 29 Aug 2024, timestep = 50000000, units = real

26 atoms
4 atom types
25 bonds
1 bond types
24 angles
1 angle types

-500.6 500.6 xlo xhi
-500.6 500.6 ylo yhi
-500.6 500.6 zlo zhi

Masses

1 329.2
2 305.2
3 345.2
4 306.2

Bond Coeffs # harmonic

1 7.5 5.9

Angle Coeffs # harmonic

1 5 150

Atoms # full

20 1 3 0 426.34368468786226 -357.56204663305493 444.43053438373 1 0 -1
21 1 2 0 428.6817291095969 -352.17562791681684 443.721522827882 1 0 -1
19 1 1 0 427.1921868650486 -362.337579686137 448.3578817898576 1 0 -1
1 1 1 0 449.3837380601495 -361.2291504916366 447.26751234531656 1 0 -1
22 1 1 0 433.1887146147296 -347.9470829755052 444.1709489584414 1 0 -1
23 1 3 0 439.1794965727692 -347.88897691599243 444.4863114649724 1 0 -1
24 1 2 0 444.94662064518263 -347.8501491611041 446.3124319394134 1 0 -1
25 1 2 0 449.7081117356669 -345.8440205532731 448.6519099057712 1 0 -1
10 1 2 0 419.30172410460455 -359.1610112400871 453.41364151466274 1 0 -1
18 1 2 0 429.8830614816035 -363.34803575888935 453.65954824134894 1 0 -1
9 1 3 0 420.0380254049122 -354.03151719046326 451.6054466502347 1 0 -1
17 1 3 0 431.8265804831798 -360.4897555309765 458.41781859927244 1 0 -1
11 1 2 0 418.67695213217854 -361.09861496098284 459.066968664232 1 0 -1
16 1 3 0 431.32694143647615 -357.17256765980517 463.5427195544882 1 0 -1
12 1 1 0 420.27710052787944 -362.0205464128257 464.64081409400956 1 0 -1
2 1 3 0 450.34988927530924 -358.8590323538746 452.42507877807674 1 0 -1
3 1 3 0 446.64745267555116 -356.77716059771836 456.30292075279124 1 0 -1
4 1 2 0 442.7852083423776 -352.41093118220203 457.01225061825545 1 0 -1
8 1 1 0 423.57419533657645 -349.55626686145666 451.40374014014674 1 0 -1
7 1 2 0 428.43267346368503 -347.52671762379504 453.843115197978 1 0 -1
5 1 1 0 438.1254481184979 -348.89864768330875 457.1705152116451 1 0 -1
6 1 3 0 433.88357135482926 -345.6250468907547 454.6842587032575 1 0 -1
26 1 1 0 453.5790841638295 -345.18415847426195 453.21653153686236 1 0 -1
13 1 1 0 424.4038011951179 -362.81294075349894 468.9530278304522 1 0 -1
14 1 1 0 427.4723956326122 -358.67188652626015 471.6826573866058 1 0 -1
15 1 1 0 431.5303133573627 -355.4531741269735 468.9651413832016 1 0 -1

Velocities

20 7.727018696528314e-05 -0.0018466909985716162 0.0005027747961450704
21 0.00046124389664783824 0.0012142979448485868 -0.0009292684159714434
19 0.0004929444533868141 8.714058763385092e-05 -0.0006162956333260858
1 0.00042160729642179586 -0.00030651100865886234 -0.000988091511969019
22 4.4701462813825815e-05 0.0006302904822984559 0.0016936564362343956
23 8.83908447713545e-05 -0.0013880997601662447 0.0015863165450468026
24 0.0017412135641656794 0.0005842099992433994 7.280516378775734e-05
25 0.0005690959749008492 -2.2985429066852337e-05 -0.00020513486177321617
10 -0.0006028765123482176 0.0002544722324255284 -0.00023662439560505027
18 0.00020455938410835804 0.0017055837153427669 -0.00016180251246515265
9 0.0007543937921772906 0.0005311592277044031 -0.0009969104700542793
17 0.0006358864642160264 0.0007847939958440221 0.0021256849453306003
11 4.870683758528978e-05 0.0003536776333812737 0.0009111459352304107
16 -2.6343582069209087e-05 0.0010277660085279857 -0.00046374861472432184
12 3.42058589111859e-05 9.386265078507633e-05 -0.0022007692856935517
2 0.00018108669147396254 -0.0007501842370259889 0.0006779590910283228
3 -0.0009472181023815015 0.0011884404008377391 0.0002573177507362733
4 -3.357145612243501e-05 -0.0012535359897467787 0.0013471847501838566
8 0.00041303696290561135 -6.28986111432729e-05 1.1134713178986297e-05
7 -0.0010118927877692896 -0.0015349027158538182 8.726676451743933e-06
5 0.0005327711235199838 0.00042955503992239756 3.0673246654380594e-06
6 0.00012607190993494654 0.0023675370216043033 -0.00044370736810661566
26 -0.0014279719257655036 0.0008552676893928372 -0.00038232815241753945
13 -0.0005487597569040934 -0.000724320152770448 0.00027352439167307465
14 0.0012642919159592547 0.0009249266120233046 -7.222705932592205e-05
15 -1.0286160761793227e-05 -0.0010540817858879154 -0.00010586305530492245

Bonds

1 1 20 21
2 1 21 22
3 1 19 20
4 1 1 2
5 1 22 23
6 1 23 24
7 1 24 25
8 1 25 26
9 1 10 11
10 1 18 19
11 1 9 10
12 1 17 18
13 1 11 12
14 1 16 17
15 1 12 13
16 1 2 3
17 1 3 4
18 1 4 5
19 1 8 9
20 1 7 8
21 1 5 6
22 1 6 7
23 1 13 14
24 1 14 15
25 1 15 16

Angles

1 1 19 20 21
2 1 20 21 22
3 1 18 19 20
4 1 21 22 23
5 1 22 23 24
6 1 23 24 25
7 1 24 25 26
8 1 9 10 11
9 1 17 18 19
10 1 8 9 10
11 1 16 17 18
12 1 10 11 12
13 1 15 16 17
14 1 11 12 13
15 1 1 2 3
16 1 2 3 4
17 1 3 4 5
18 1 7 8 9
19 1 6 7 8
20 1 4 5 6
21 1 5 6 7
22 1 12 13 14
23 1 13 14 15
24 1 14 15 16
