LAMMPS (29 Aug 2024)
  using 1 OpenMP thread(s) per MPI task
Reading data file ...
  orthogonal box = (-300 -300 -300) to (300 300 300)
  2 by 2 by 2 MPI processor grid
  reading atoms ...
  536 atoms
  scanning bonds ...
  1 = max bonds/atom
  scanning angles ...
  1 = max angles/atom
  orthogonal box = (-300 -300 -300) to (300 300 300)
  2 by 2 by 2 MPI processor grid
  reading bonds ...
  485 bonds
  reading angles ...
  434 angles
Finding 1-2 1-3 1-4 neighbors ...
  special bond factors lj:    0        0        1       
  special bond factors coul:  0        0        0       
     2 = max # of 1-2 neighbors
     2 = max # of 1-3 neighbors
     4 = max # of 1-4 neighbors
     6 = max # of special neighbors
  special bonds CPU = 0.000 seconds
  read_data CPU = 0.007 seconds

CITE-CITE-CITE-CITE-CITE-CITE-CITE-CITE-CITE-CITE-CITE-CITE-CITE

Your simulation uses code contributions which should be cited:
- Type Label Framework: https://doi.org/10.1021/acs.jpcb.3c08419
The log file lists these citations in BibTeX format.

CITE-CITE-CITE-CITE-CITE-CITE-CITE-CITE-CITE-CITE-CITE-CITE-CITE

Switching to 'neigh_modify every 1 delay 0 check yes' setting during minimization
Generated 0 of 6 mixed pair_coeff terms from geometric mixing rule
Neighbor list info ...
  update: every = 1 steps, delay = 0 steps, check = yes
  max neighbors/atom: 2000, page size: 100000
  master list distance cutoff = 33
  ghost atom cutoff = 33
  binsize = 16.5, bins = 37 37 37
  2 neighbor lists, perpetual/occasional/extra = 2 0 0
  (1) pair lj/cut, perpetual, trim from (2)
      attributes: half, newton on, cut 25
      pair build: trim
      stencil: none
      bin: none
  (2) pair base/rna, perpetual
      attributes: half, newton on
      pair build: half/bin/newton
      stencil: half/bin/3d
      bin: standard
Setting up cg style minimization ...
  Unit style    : real
  Current step  : 0
Per MPI rank memory allocation (min/avg/max) = 8.452 | 8.486 | 8.721 Mbytes
   Step          Temp          E_pair         E_mol          TotEng         Press     
         0   0              135.90064      610.74384      746.64448      0.16056819   
        93   0             -53.734863      544.65402      490.91916      0.00067333323
Loop time of 0.00793033 on 8 procs for 93 steps with 536 atoms

86.6% CPU use with 8 MPI tasks x 1 OpenMP threads

Minimization stats:
  Stopping criterion = energy tolerance
  Energy initial, next-to-last, final = 
       746.64448151544   490.958397094269   490.919159881399
  Force two-norm initial, final = 220.5542 1.2780207
  Force max component initial, final = 110.31362 0.39630173
  Final line search alpha, max atom move = 0.16202495 0.064210767
  Iterations, force evaluations = 93 132

MPI task timing breakdown:
Section |  min time  |  avg time  |  max time  |%varavg| %total
---------------------------------------------------------------
Pair    | 0.0018252  | 0.0022088  | 0.0028647  |   0.6 | 27.85
Bond    | 0.00011758 | 0.00031998 | 0.00053676 |   0.0 |  4.03
Neigh   | 0          | 0          | 0          |   0.0 |  0.00
Comm    | 0.0031289  | 0.0039621  | 0.0044847  |   0.7 | 49.96
Output  | 0          | 0          | 0          |   0.0 |  0.00
Modify  | 0          | 0          | 0          |   0.0 |  0.00
Other   |            | 0.001439   |            |       | 18.15

Nlocal:             67 ave         118 max          22 min
Histogram: 1 0 0 2 1 3 0 0 0 1
Nghost:         78.375 ave         105 max          54 min
Histogram: 1 0 3 0 0 1 0 2 0 1
Neighs:        134.625 ave         204 max          69 min
Histogram: 1 0 0 2 3 0 0 0 1 1

Total # of neighbors = 1077
Ave neighs/atom = 2.0093284
Ave special neighs/atom = 4.858209
Neighbor list builds = 0
Dangerous builds = 0
Generated 0 of 6 mixed pair_coeff terms from geometric mixing rule
Setting up Verlet run ...
  Unit style    : real
  Current step  : 0
  Time step     : 10
Per MPI rank memory allocation (min/avg/max) = 7.343 | 7.377 | 7.611 Mbytes
   Step         PotEng         KinEng         TotEng          Temp          Press         Density    
         0   490.91916      478.42001      969.33917      300            0.1019218      0.0013252038 
     10000   242.13872      485.69308      727.8318       304.56068     -0.045001448    0.0013252038 
     20000   226.43941      473.76685      700.20626      297.08217      0.030180365    0.0013252038 
     30000   237.96733      463.67444      701.64177      290.75358      0.085902423    0.0013252038 
     40000   250.05932      486.67485      736.73417      305.17631     -0.0037358602   0.0013252038 
     50000   253.27222      487.38019      740.65241      305.61861      0.080546267    0.0013252038 
     60000   227.79302      478.29276      706.08578      299.9202      -0.027678226    0.0013252038 
     70000   236.96421      503.14617      740.11039      315.50489      0.00081383098  0.0013252038 
     80000   234.0436       499.95541      733.99901      313.50407     -0.065217916    0.0013252038 
     90000   251.61339      494.3589       745.97228      309.9947      -0.047863359    0.0013252038 
    100000   254.35553      474.10667      728.46221      297.29526     -0.07775582     0.0013252038 
    110000   232.72396      472.51855      705.24251      296.29941     -0.08228523     0.0013252038 
    120000   254.17255      488.45479      742.62734      306.29245     -0.016595679    0.0013252038 
    130000   212.20495      458.30896      670.51391      287.38908     -0.012051998    0.0013252038 
    140000   207.9041       480.19761      688.10171      301.11467     -0.0070445067   0.0013252038 
    150000   212.20856      477.01119      689.21975      299.11658      0.046563295    0.0013252038 
    160000   232.19993      487.9396       720.13953      305.96939      0.036886435    0.0013252038 
    170000   221.08439      433.09309      654.17749      271.57712     -0.052297285    0.0013252038 
    180000   247.96042      472.72028      720.6807       296.4259       0.052166644    0.0013252038 
    190000   213.11191      477.12755      690.23946      299.18955      0.094447933    0.0013252038 
    200000   205.66798      475.39806      681.06604      298.10504     -0.031698252    0.0013252038 
    210000   225.17222      472.22454      697.39676      296.11504     -0.02582755     0.0013252038 
    220000   225.77329      494.71142      720.48471      310.21576     -0.095431056    0.0013252038 
    230000   249.05561      465.35524      714.41086      291.80755     -0.055485178    0.0013252038 
    240000   210.53093      469.59873      680.12966      294.46849     -0.031812955    0.0013252038 
    250000   209.14697      463.32337      672.47034      290.53344     -0.039156412    0.0013252038 
    260000   204.08861      472.90343      676.99203      296.54075     -0.00033006587  0.0013252038 
    270000   263.35655      501.80304      765.15959      314.66266     -0.026245586    0.0013252038 
    280000   218.28309      476.68157      694.96466      298.90988     -0.0021600241   0.0013252038 
    290000   198.6372       468.18529      666.82249      293.58217      0.037737458    0.0013252038 
    300000   239.36248      454.4202       693.78268      284.95058      0.023453524    0.0013252038 
    310000   201.81548      483.93486      685.75033      303.45816     -0.052572364    0.0013252038 
    320000   216.82634      475.8159       692.64224      298.36705     -0.042453641    0.0013252038 
    330000   226.83876      457.89646      684.73522      287.13042     -0.0057577905   0.0013252038 
    340000   200.70085      487.32207      688.02292      305.58216      0.019758702    0.0013252038 
    350000   249.39632      453.14787      702.54419      284.15275     -0.004636974    0.0013252038 
    360000   231.2546       467.83135      699.08595      293.36023     -0.028746614    0.0013252038 
    370000   210.02556      500.21507      710.24063      313.6669       0.053873315    0.0013252038 
    380000   184.9252       459.26929      644.19449      287.99127      0.0098310797   0.0013252038 
    390000   223.89788      480.87506      704.77294      301.53947      0.0016115569   0.0013252038 
    400000   214.28071      477.38791      691.66862      299.3528      -0.036426269    0.0013252038 
    410000   208.46275      474.25045      682.7132       297.38542     -0.0086924607   0.0013252038 
    420000   220.7717       483.51293      704.28463      303.19359      0.031417306    0.0013252038 
    430000   245.36428      484.1318       729.49608      303.58166     -0.071079023    0.0013252038 
    440000   219.33999      527.29023      746.63023      330.64476      0.037413453    0.0013252038 
    450000   243.30248      502.77937      746.08185      315.27488     -0.058651472    0.0013252038 
    460000   236.24784      468.63786      704.88569      293.86596      0.024190626    0.0013252038 
    470000   221.58133      464.83907      686.4204       291.48388     -0.02699664     0.0013252038 
    480000   218.00418      490.31312      708.3173       307.45774      0.060119256    0.0013252038 
    490000   231.55408      456.85156      688.40565      286.4752      -0.015248828    0.0013252038 
    500000   214.99882      497.95286      712.95169      312.24835      0.056918753    0.0013252038 
    510000   232.38728      480.74853      713.13582      301.46013     -0.0090470997   0.0013252038 
    520000   224.05197      485.48061      709.53258      304.42745     -0.0098901204   0.0013252038 
    530000   236.41708      497.46777      733.88485      311.94416      0.0055061003   0.0013252038 
    540000   231.92217      499.488        731.41017      313.21098      0.031286109    0.0013252038 
    550000   202.09249      466.9976       669.09009      292.83741     -0.018071026    0.0013252038 
    560000   201.62432      484.22985      685.85418      303.64314     -0.021500435    0.0013252038 
    570000   210.8581       455.18451      666.04261      285.42985     -0.0219054      0.0013252038 
    580000   210.59191      480.98035      691.57226      301.6055       0.0029317655   0.0013252038 
    590000   192.6335       472.99494      665.62844      296.59813      0.011903444    0.0013252038 
    600000   226.6479       492.88663      719.53454      309.0715       0.010744713    0.0013252038 
    610000   215.65855      496.54917      712.20772      311.36814      0.0056975496   0.0013252038 
    620000   197.49341      510.75651      708.24992      320.27705      0.059044572    0.0013252038 
    630000   225.25633      466.19005      691.44637      292.33103      0.059286303    0.0013252038 
    640000   222.10952      467.87444      689.98396      293.38725      0.066765907    0.0013252038 
    650000   195.53151      483.62472      679.15623      303.26368     -0.041336279    0.0013252038 
    660000   224.6278       505.01447      729.64227      316.67643     -0.035964574    0.0013252038 
    670000   230.37976      465.80914      696.1889       292.09217      0.011410789    0.0013252038 
    680000   213.59764      482.12674      695.72438      302.32436      0.10301221     0.0013252038 
    690000   213.88432      506.6918       720.57612      317.72822      0.029786399    0.0013252038 
    700000   217.94137      463.53384      681.47521      290.66542      0.002087909    0.0013252038 
    710000   192.90827      508.38188      701.29015      318.78801      0.035897956    0.0013252038 
    720000   216.61004      479.52182      696.13185      300.6909       0.086863305    0.0013252038 
    730000   248.86253      500.68985      749.55238      313.96461      0.038611582    0.0013252038 
    740000   228.57553      486.88925      715.46478      305.31076      0.092303667    0.0013252038 
    750000   201.60315      492.51315      694.1163       308.8373      -0.0019229733   0.0013252038 
    760000   222.77053      490.43306      713.2036       307.53295      0.01446882     0.0013252038 
    770000   181.9658       457.42761      639.39341      286.83642     -0.013820639    0.0013252038 
    780000   172.79863      461.20679      634.00542      289.20621     -0.022149184    0.0013252038 
    790000   185.41087      444.25299      629.66385      278.57509      0.082602635    0.0013252038 
    800000   170.61249      459.88226      630.49475      288.37564     -0.051174073    0.0013252038 
    810000   207.58968      478.17366      685.76334      299.84552     -0.016779073    0.0013252038 
    820000   211.05558      464.9633       676.01888      291.56178      0.043545534    0.0013252038 
    830000   208.64943      461.46005      670.10948      289.36502      0.047911188    0.0013252038 
    840000   192.66935      477.7401       670.40944      299.57365      0.016081534    0.0013252038 
    850000   222.53443      481.13307      703.6675       301.70126      0.035340938    0.0013252038 
    860000   209.51225      491.97727      701.48951      308.50127      0.00777241     0.0013252038 
    870000   231.83337      482.97318      714.80654      302.85513      0.021971497    0.0013252038 
    880000   223.39785      477.17029      700.56815      299.21635     -0.066876477    0.0013252038 
    890000   204.35094      461.43451      665.78546      289.349        0.052436572    0.0013252038 
    900000   183.13212      463.72072      646.85285      290.7826       0.018277999    0.0013252038 
    910000   208.69358      467.30485      675.99843      293.03008     -0.0042735823   0.0013252038 
    920000   202.5502       421.50902      624.05922      264.31316     -0.015385518    0.0013252038 
    930000   209.90361      473.83145      683.73506      297.12268      0.0073239169   0.0013252038 
    940000   244.1125       472.79441      716.90691      296.47239      0.039935055    0.0013252038 
    950000   213.5592       482.6566       696.2158       302.65661      0.052051992    0.0013252038 
    960000   200.53194      460.43889      660.97083      288.72468     -0.028887036    0.0013252038 
    970000   196.61809      453.5123       650.13038      284.38127     -0.022329936    0.0013252038 
    980000   237.48885      447.20194      684.69079      280.42427     -0.012545818    0.0013252038 
    990000   232.93958      500.12297      733.06256      313.60915     -0.011751528    0.0013252038 
   1000000   209.63521      466.33315      675.96835      292.42076      0.017913708    0.0013252038 
   1010000   206.96239      450.66585      657.62824      282.59636      0.10811681     0.0013252038 
   1020000   225.1389       488.56039      713.69929      306.35867     -0.038195205    0.0013252038 
   1030000   197.81037      487.12198      684.93235      305.45669      0.0054064332   0.0013252038 
   1040000   228.48831      491.31033      719.79864      308.08305     -0.040686664    0.0013252038 
   1050000   225.8466       463.70415      689.55075      290.77221      0.10792883     0.0013252038 
   1060000   213.51629      466.16877      679.68506      292.31769     -0.081468694    0.0013252038 
   1070000   210.73231      500.38781      711.12012      313.77522      0.0067358407   0.0013252038 
   1080000   192.45457      494.14569      686.60026      309.86101     -0.0048462494   0.0013252038 
   1090000   233.89746      496.01293      729.91039      311.03188      0.09470112     0.0013252038 
   1100000   235.31688      470.28972      705.6066       294.90179      0.050731947    0.0013252038 
   1110000   226.42263      482.2386       708.66124      302.3945      -0.010748316    0.0013252038 
   1120000   186.60434      500.95569      687.56003      314.13131      0.053155273    0.0013252038 
   1130000   202.93605      476.78445      679.72051      298.9744       0.016558581    0.0013252038 
   1140000   183.81126      445.84222      629.65349      279.57164     -0.04061835     0.0013252038 
   1150000   185.31         486.98223      672.29223      305.36906     -0.029141004    0.0013252038 
   1160000   206.13473      454.97407      661.1088       285.29789      0.052732778    0.0013252038 
   1170000   189.12019      500.95935      690.07954      314.13361     -0.0096336132   0.0013252038 
   1180000   213.6362       457.14166      670.77786      286.65711     -0.036560883    0.0013252038 
   1190000   181.13184      482.18708      663.31893      302.36219      0.082358583    0.0013252038 
   1200000   185.8055       491.92091      677.72641      308.46593      0.0097118364   0.0013252038 
   1210000   163.95878      500.39057      664.34935      313.77695      0.059939616    0.0013252038 
   1220000   196.14342      479.80257      675.94599      300.86695      0.00031244775  0.0013252038 
   1230000   137.77321      483.59115      621.36436      303.24264      0.012206634    0.0013252038 
   1240000   179.75864      477.60934      657.36798      299.49165     -0.022250582    0.0013252038 
   1250000   201.84565      463.17152      665.01717      290.43822     -0.076313297    0.0013252038 
   1260000   161.29218      453.37652      614.6687       284.29613     -0.056743815    0.0013252038 
   1270000   180.75857      468.69186      649.45043      293.89983      0.007531371    0.0013252038 
   1280000   193.16157      476.82628      669.98785      299.00063      0.0080663918   0.0013252038 
   1290000   163.16646      496.2065       659.37296      311.15327      0.046352226    0.0013252038 
   1300000   177.69497      483.15955      660.85451      302.97199      0.028822653    0.0013252038 
   1310000   198.92348      482.89365      681.81713      302.80526      0.010311479    0.0013252038 
   1320000   182.16702      494.27028      676.4373       309.93913      0.011008342    0.0013252038 
   1330000   172.99257      448.00787      621.00044      280.92963     -0.057748051    0.0013252038 
   1340000   160.41361      487.2736       647.68721      305.55177     -0.030260505    0.0013252038 
   1350000   210.34011      459.81209      670.1522       288.33164     -0.024564034    0.0013252038 
   1360000   175.37865      462.00707      637.38572      289.70803     -0.037354841    0.0013252038 
   1370000   208.15906      503.2811       711.44017      315.5895       0.055743919    0.0013252038 
   1380000   184.08222      470.49984      654.58205      295.03354      0.015559032    0.0013252038 
   1390000   163.38923      493.06428      656.45351      309.18289     -0.087791723    0.0013252038 
   1400000   160.61511      480.75808      641.37319      301.46612      0.034287652    0.0013252038 
   1410000   181.77447      503.227        685.00148      315.55557     -0.047803491    0.0013252038 
   1420000   143.77593      476.17009      619.94602      298.58916      0.052103364    0.0013252038 
   1430000   165.13487      491.78205      656.91692      308.37886     -0.019335528    0.0013252038 
   1440000   167.90236      480.8333       648.73566      301.51329      0.072263917    0.0013252038 
   1450000   164.95648      464.51816      629.47464      291.28265      0.01718901     0.0013252038 
   1460000   194.62198      457.74264      652.36462      287.03396      0.051872763    0.0013252038 
   1470000   166.72307      446.92915      613.65222      280.25321     -0.074631717    0.0013252038 
   1480000   177.292        467.49707      644.78907      293.15062      0.082059513    0.0013252038 
   1490000   175.20529      490.95719      666.16248      307.86162      0.0083453196   0.0013252038 
   1500000   173.26173      498.70423      671.96596      312.71951      0.017254774    0.0013252038 
   1510000   142.46527      477.70179      620.16706      299.54963      0.033787452    0.0013252038 
   1520000   170.56991      494.42819      664.99811      310.03815      0.033891814    0.0013252038 
   1530000   163.38079      474.87085      638.25164      297.77445      0.010854372    0.0013252038 
   1540000   175.4703       505.84204      681.31234      317.19537     -0.01456565     0.0013252038 
   1550000   162.29769      487.3524       649.65008      305.60118      0.0098374773   0.0013252038 
   1560000   162.57245      479.41701      641.98946      300.62518      0.055101876    0.0013252038 
   1570000   173.60755      476.46932      650.07687      298.77679     -0.058383823    0.0013252038 
   1580000   138.3425       475.39155      613.73405      298.10096      0.046714046    0.0013252038 
   1590000   166.55542      502.07218      668.6276       314.83142      0.078273969    0.0013252038 
   1600000   158.23018      493.67281      651.90299      309.56448      0.035018455    0.0013252038 
   1610000   147.0046       507.61126      654.61587      318.30478     -0.033517818    0.0013252038 
   1620000   166.72456      483.78112      650.50568      303.36176      0.018813778    0.0013252038 
   1630000   163.9577       479.1133       643.07101      300.43474     -0.02524374     0.0013252038 
   1640000   174.68244      478.79331      653.47576      300.23408      0.031898824    0.0013252038 
   1650000   151.32767      498.29714      649.62481      312.46423      0.018418273    0.0013252038 
   1660000   156.86834      480.12791      636.99625      301.07096     -0.0072246964   0.0013252038 
   1670000   184.37563      456.56405      640.93967      286.29491     -0.02859955     0.0013252038 
   1680000   164.99977      453.82634      618.82611      284.57819     -0.062606791    0.0013252038 
   1690000   149.76977      498.28335      648.05313      312.45559     -0.042437691    0.0013252038 
   1700000   157.0087       442.28332      599.29202      277.33998     -0.014758056    0.0013252038 
   1710000   163.55057      478.72528      642.27585      300.19142     -0.1473645      0.0013252038 
   1720000   197.90126      477.81545      675.71671      299.6209      -0.015417852    0.0013252038 
   1730000   159.17938      480.83738      640.01676      301.51584     -0.074284606    0.0013252038 
   1740000   168.13566      494.54754      662.6832       310.11299      0.043058703    0.0013252038 
   1750000   183.75509      460.65635      644.41144      288.86105     -0.018469632    0.0013252038 
   1760000   149.28404      497.12928      646.41332      311.73191      0.050759826    0.0013252038 
   1770000   153.90087      458.74216      612.64303      287.66073     -0.0015036615   0.0013252038 
   1780000   148.00556      468.09045      616.09602      293.5227       0.048200946    0.0013252038 
   1790000   146.28035      508.84428      655.12462      319.07796     -0.019991697    0.0013252038 
   1800000   147.49492      525.3628       672.85772      329.43614      0.029969608    0.0013252038 
   1810000   152.15473      455.2496       607.40434      285.47067      0.021870693    0.0013252038 
   1820000   146.39522      500.72315      647.11837      313.9855      -0.024430248    0.0013252038 
   1830000   142.52176      491.42073      633.94249      308.15228      0.096733383    0.0013252038 
   1840000   145.10414      481.73342      626.83756      302.07772     -0.054754765    0.0013252038 
   1850000   176.73865      506.92346      683.66211      317.87349     -0.027436583    0.0013252038 
   1860000   128.00764      461.29531      589.30295      289.26171      0.062323783    0.0013252038 
   1870000   167.10351      481.0314       648.1349       301.63751      0.024589871    0.0013252038 
   1880000   146.67582      497.14512      643.82094      311.74184     -0.0068649931   0.0013252038 
   1890000   165.9103       488.71381      654.62412      306.45487     -0.0079315263   0.0013252038 
   1900000   146.91926      506.99329      653.91255      317.91727      0.077987938    0.0013252038 
   1910000   156.17536      479.40803      635.58339      300.61955      0.12079719     0.0013252038 
   1920000   163.64662      478.6835       642.33011      300.16522      0.01776552     0.0013252038 
   1930000   146.61501      459.9522       606.56721      288.4195       0.00011553702  0.0013252038 
   1940000   144.40418      464.37513      608.77931      291.19296      0.077168105    0.0013252038 
   1950000   134.91922      518.14083      653.06005      324.9075       0.08907278     0.0013252038 
   1960000   169.63796      474.92178      644.55974      297.80638      0.091019238    0.0013252038 
   1970000   127.84312      481.63647      609.4796       302.01693      0.06197407     0.0013252038 
   1980000   133.6939       464.86371      598.55761      291.49933      0.022536945    0.0013252038 
   1990000   157.30921      452.13007      609.43928      283.51452      0.0067358104   0.0013252038 
   2000000   169.1394       451.51743      620.65683      283.13036     -0.023930415    0.0013252038 
   2010000   177.67208      470.24815      647.92024      294.87572      0.012942558    0.0013252038 
   2020000   145.3802       468.89597      614.27618      294.02782      0.047643858    0.0013252038 
   2030000   133.67469      460.5285       594.20319      288.78087     -0.020383538    0.0013252038 
   2040000   141.78904      459.10733      600.89637      287.88971      0.062765224    0.0013252038 
   2050000   131.3699       491.17028      622.54018      307.99523     -0.00016805818  0.0013252038 
   2060000   147.92811      521.51408      669.44219      327.02274      0.052146864    0.0013252038 
   2070000   159.7508       464.47999      624.23079      291.25871     -0.0061106207   0.0013252038 
   2080000   156.83071      501.86944      658.70015      314.70429      0.00122817     0.0013252038 
   2090000   139.15035      469.75344      608.90379      294.5655      -0.049804157    0.0013252038 
   2100000   158.51457      461.90062      620.41519      289.64128      0.018596501    0.0013252038 
   2110000   175.21049      456.70399      631.91448      286.38266      0.07521636     0.0013252038 
   2120000   147.92209      498.93131      646.8534       312.8619       0.026106956    0.0013252038 
   2130000   175.86945      472.93312      648.80257      296.55937     -0.043582873    0.0013252038 
   2140000   156.86103      476.31088      633.17191      298.67744      0.030253676    0.0013252038 
   2150000   152.33093      468.73059      621.06152      293.92411      0.032666997    0.0013252038 
   2160000   139.60174      491.5169       631.11864      308.21259     -0.0087876141   0.0013252038 
   2170000   143.63778      504.14066      647.77844      316.12849      0.05190575     0.0013252038 
   2180000   157.77624      455.56148      613.33772      285.66624      0.066713781    0.0013252038 
   2190000   171.10046      459.09185      630.19231      287.88        -0.010616411    0.0013252038 
   2200000   140.21069      467.16477      607.37546      292.94224      0.021049975    0.0013252038 
   2210000   118.02258      480.33483      598.35742      301.20072     -0.0088265253   0.0013252038 
   2220000   117.31032      482.36363      599.67396      302.4729       0.029739155    0.0013252038 
   2230000   146.94837      475.88489      622.83325      298.41031      0.062607432    0.0013252038 
   2240000   151.27651      479.39892      630.67543      300.61384      0.10005891     0.0013252038 
   2250000   159.68086      501.01142      660.69229      314.16626      0.0069002526   0.0013252038 
   2260000   146.22142      449.61781      595.83923      281.93917      0.1378989      0.0013252038 
   2270000   152.84617      491.09414      643.9403       307.94749      0.047716913    0.0013252038 
   2280000   155.75469      448.47707      604.23176      281.22386      0.013728865    0.0013252038 
   2290000   132.80284      505.90887      638.71172      317.23728     -0.031197927    0.0013252038 
   2300000   138.17755      454.84814      593.0257       285.21893     -0.0061532101   0.0013252038 
   2310000   166.20582      503.30493      669.51075      315.60444      0.02847382     0.0013252038 
   2320000   160.02448      499.98367      660.00815      313.5218       0.0071496426   0.0013252038 
   2330000   128.45749      467.77424      596.23173      293.32442      0.071487979    0.0013252038 
   2340000   140.96881      486.93448      627.9033       305.33912     -0.0071214448   0.0013252038 
   2350000   149.23328      469.44002      618.6733       294.36897     -0.057906217    0.0013252038 
   2360000   112.63425      497.54719      610.18144      311.99396     -0.0067570362   0.0013252038 
   2370000   137.28096      487.39048      624.67145      305.62506      0.013129817    0.0013252038 
   2380000   157.22165      509.6671       666.88875      319.59393     -0.0069683383   0.0013252038 
   2390000   161.19979      456.98456      618.18434      286.5586      -0.016578353    0.0013252038 
   2400000   129.58192      473.4284       603.01032      296.86994     -0.059922185    0.0013252038 
   2410000   170.54881      506.17847      676.72728      317.40633     -0.0075372554   0.0013252038 
   2420000   125.63767      485.32338      610.96105      304.32885      0.11760934     0.0013252038 
   2430000   149.06675      471.81688      620.88363      295.85941     -0.024789947    0.0013252038 
   2440000   148.13408      494.51113      642.6452       310.09016      0.038045525    0.0013252038 
   2450000   163.39744      491.43483      654.83228      308.16113      0.12367388     0.0013252038 
   2460000   168.50265      486.75204      655.25469      305.22472      0.012033487    0.0013252038 
   2470000   177.72141      454.00501      631.72642      284.69023     -0.011473938    0.0013252038 
   2480000   144.50963      516.13292      660.64255      323.64841     -0.067269561    0.0013252038 
   2490000   112.85397      480.50613      593.36009      301.30813     -0.0045186042   0.0013252038 
   2500000   141.39513      445.88127      587.27641      279.59613     -0.026974071    0.0013252038 
   2510000   142.30488      466.65207      608.95695      292.62075     -0.0097926822   0.0013252038 
   2520000   164.94453      509.99617      674.9407       319.80028      0.016288163    0.0013252038 
   2530000   153.26652      449.72942      602.99594      282.00916      0.006963327    0.0013252038 
   2540000   173.93768      459.49955      633.43723      288.13566     -0.06147798     0.0013252038 
   2550000   131.94011      477.94972      609.88984      299.7051       0.00039569363  0.0013252038 
   2560000   128.63121      468.31493      596.94614      293.66346      0.08886567     0.0013252038 
   2570000   154.75479      498.42574      653.18053      312.54487      0.020715676    0.0013252038 
   2580000   175.50627      483.64111      659.14738      303.27396      0.0021197044   0.0013252038 
   2590000   156.21349      442.6014       598.81489      277.53943     -0.018671317    0.0013252038 
   2600000   183.57788      456.87104      640.44892      286.48741      0.018512421    0.0013252038 
   2610000   183.83755      484.74448      668.58203      303.96585      0.0096649868   0.0013252038 
   2620000   160.84107      484.36943      645.2105       303.73067      0.020916987    0.0013252038 
   2630000   146.06768      467.83508      613.90276      293.36257      0.041606058    0.0013252038 
   2640000   172.59535      496.93094      669.52629      311.60754      0.02238181     0.0013252038 
   2650000   166.42097      460.55392      626.97489      288.79682      0.097534564    0.0013252038 
   2660000   177.39083      491.18918      668.58001      308.00709      0.028567668    0.0013252038 
   2670000   167.87421      495.15425      663.02846      310.49344      0.012962892    0.0013252038 
   2680000   154.45426      493.86114      648.3154       309.68257      0.018650611    0.0013252038 
   2690000   146.80087      522.5287       669.32958      327.65897      0.014900086    0.0013252038 
   2700000   177.19477      490.74833      667.9431       307.73064      0.023406276    0.0013252038 
   2710000   158.35185      484.46149      642.81334      303.78839     -0.038754962    0.0013252038 
   2720000   154.88591      445.03729      599.9232       279.06689      0.020208541    0.0013252038 
   2730000   151.53134      464.81211      616.34345      291.46697      0.022987108    0.0013252038 
   2740000   177.01019      451.74752      628.75772      283.27464     -0.0066610603   0.0013252038 
   2750000   198.6997       450.94866      649.64836      282.7737       0.0027707957   0.0013252038 
   2760000   194.57596      466.10463      660.68058      292.27746      0.054656743    0.0013252038 
   2770000   154.89913      458.76099      613.66013      287.67253      0.083201485    0.0013252038 
   2780000   151.48192      467.32828      618.8102       293.04477     -0.022707067    0.0013252038 
   2790000   191.57533      485.35001      676.92534      304.34555      0.046225933    0.0013252038 
   2800000   182.99645      476.88078      659.87723      299.0348      -0.10061008     0.0013252038 
   2810000   151.63103      494.69053      646.32156      310.20265     -0.015887589    0.0013252038 
   2820000   155.63427      477.53877      633.17305      299.44741      0.063458773    0.0013252038 
   2830000   167.29738      463.29009      630.58748      290.51257     -0.015049693    0.0013252038 
   2840000   171.46525      477.82052      649.28577      299.62408     -0.031166352    0.0013252038 
   2850000   176.36849      462.93971      639.3082       290.29286      0.088360486    0.0013252038 
   2860000   157.68877      476.27869      633.96746      298.65725      0.035795107    0.0013252038 
   2870000   132.16586      444.088        576.25386      278.47163      0.025619766    0.0013252038 
   2880000   141.2436       480.63617      621.87977      301.38967      0.034184516    0.0013252038 
   2890000   158.59349      462.08152      620.67501      289.75472     -0.038118018    0.0013252038 
   2900000   139.95557      474.03901      613.99457      297.25283     -0.039159421    0.0013252038 
   2910000   156.8704       488.7244       645.5948       306.46151     -0.0079832317   0.0013252038 
   2920000   147.43554      484.18914      631.62468      303.61761      0.063145409    0.0013252038 
   2930000   167.26215      458.42754      625.68968      287.46344      0.049681788    0.0013252038 
   2940000   174.51551      481.31256      655.82807      301.81381     -0.076103173    0.0013252038 
   2950000   132.31963      486.42931      618.74894      305.02234      0.006566067    0.0013252038 
   2960000   175.61492      450.95124      626.56617      282.77532     -0.02224256     0.0013252038 
   2970000   161.55716      470.34418      631.90134      294.93593     -0.090479521    0.0013252038 
   2980000   163.13851      472.79433      635.93284      296.47233      0.097800605    0.0013252038 
   2990000   161.53612      481.91087      643.44699      302.18899     -0.038084164    0.0013252038 
   3000000   160.46708      471.64955      632.11663      295.75449      0.012062872    0.0013252038 
   3010000   158.96573      467.94497      626.91071      293.43148      0.08268565     0.0013252038 
   3020000   143.69787      477.36128      621.05915      299.33611     -0.029557642    0.0013252038 
   3030000   173.5972       455.87996      629.47716      285.86594     -0.027702643    0.0013252038 
   3040000   173.95559      453.61754      627.57313      284.44726     -0.05107109     0.0013252038 
   3050000   153.47585      509.38436      662.86021      319.41663     -0.0050109714   0.0013252038 
   3060000   167.83379      505.73571      673.56951      317.12869      0.037795825    0.0013252038 
   3070000   148.18586      501.08649      649.27234      314.21333     -0.056917225    0.0013252038 
   3080000   165.22693      470.00714      635.23407      294.72459      0.030177749    0.0013252038 
   3090000   169.18861      487.82833      657.01694      305.89961     -0.037287669    0.0013252038 
   3100000   157.57992      480.71901      638.29893      301.44162     -0.050023544    0.0013252038 
   3110000   156.37374      474.60309      630.97683      297.60655     -0.065763507    0.0013252038 
   3120000   163.5512       456.37101      619.92221      286.17386     -0.015257537    0.0013252038 
   3130000   151.7045       481.39097      633.09547      301.86298      0.023896875    0.0013252038 
   3140000   162.97912      478.63894      641.61807      300.13728      0.012498894    0.0013252038 
   3150000   150.30694      476.31162      626.61855      298.6779       0.023572479    0.0013252038 
   3160000   172.59422      494.17985      666.77408      309.88243     -0.075588687    0.0013252038 
   3170000   174.87797      475.4432       650.32117      298.13335     -0.030843602    0.0013252038 
   3180000   203.129        497.3606       700.48961      311.87696     -0.085738337    0.0013252038 
   3190000   146.26979      495.95316      642.22295      310.99441      0.077724967    0.0013252038 
   3200000   191.94578      464.88214      656.82791      291.51088      0.029868014    0.0013252038 
   3210000   150.85967      468.95672      619.81639      294.06591     -0.026428378    0.0013252038 
   3220000   160.20374      476.91278      637.11653      299.05487      0.071708033    0.0013252038 
   3230000   159.70671      473.86398      633.57069      297.14308      0.093025827    0.0013252038 
   3240000   174.02145      488.7184       662.73985      306.45775     -0.02623558     0.0013252038 
   3250000   159.43379      482.47527      641.90906      302.54291     -0.046825388    0.0013252038 
   3260000   156.71739      472.52681      629.2442       296.30459      0.05158985     0.0013252038 
   3270000   163.29343      474.4236       637.71703      297.49399      0.059716183    0.0013252038 
   3280000   181.30323      481.07654      662.37978      301.66582     -0.062549406    0.0013252038 
   3290000   174.50187      467.84979      642.35166      293.37179      0.0834173      0.0013252038 
   3300000   161.35286      492.23001      653.58287      308.65975      0.073372347    0.0013252038 
   3310000   155.36936      464.72102      620.09038      291.40985      0.032172877    0.0013252038 
   3320000   169.54657      482.20722      651.75379      302.37482      0.049288663    0.0013252038 
   3330000   160.84408      468.89364      629.73772      294.02635      0.016324607    0.0013252038 
   3340000   166.85794      477.61229      644.47023      299.49351     -0.016187611    0.0013252038 
   3350000   137.12711      474.06713      611.19424      297.27046     -0.080699618    0.0013252038 
   3360000   153.88367      489.67753      643.5612       307.05919      0.018801493    0.0013252038 
   3370000   176.8546       465.62769      642.48229      291.97839      0.08927823     0.0013252038 
   3380000   166.80321      477.63486      644.43807      299.50766      0.065813033    0.0013252038 
   3390000   150.92357      492.02131      642.94488      308.52889      0.11133394     0.0013252038 
   3400000   138.8898       461.03049      599.92029      289.09566     -0.02058618     0.0013252038 
   3410000   182.05926      456.31117      638.37044      286.13634     -0.055643721    0.0013252038 
   3420000   184.32611      483.3573       667.68341      303.096        0.082564635    0.0013252038 
   3430000   163.53008      486.93034      650.46042      305.33652      0.0021345142   0.0013252038 
   3440000   189.23052      471.22644      660.45696      295.48917     -0.0018221954   0.0013252038 
   3450000   163.38328      489.66753      653.05081      307.05291      0.065287515    0.0013252038 
   3460000   181.89439      468.86966      650.76405      294.01132     -0.049014921    0.0013252038 
   3470000   149.16504      489.46769      638.63273      306.9276       0.00052073218  0.0013252038 
   3480000   141.51843      477.95548      619.47391      299.70871     -0.043864488    0.0013252038 
   3490000   145.10588      455.25379      600.35967      285.4733       0.032239187    0.0013252038 
   3500000   138.75161      483.01479      621.7664       302.88122      0.011311883    0.0013252038 
   3510000   152.66428      493.58895      646.25323      309.51189      0.034204308    0.0013252038 
   3520000   155.04179      475.90802      630.94982      298.42482     -0.060345653    0.0013252038 
   3530000   179.18493      484.09494      663.27988      303.55855     -0.0078850242   0.0013252038 
   3540000   157.39355      468.32623      625.71978      293.67055     -0.041436784    0.0013252038 
   3550000   168.24638      477.99479      646.24117      299.73336     -0.060654546    0.0013252038 
   3560000   144.66246      483.57136      628.23382      303.23022      0.068058939    0.0013252038 
   3570000   138.12545      487.00402      625.12946      305.38272     -0.037359315    0.0013252038 
   3580000   170.78935      455.66953      626.45889      285.73399      0.043787768    0.0013252038 
   3590000   137.68563      484.24204      621.92767      303.65079      0.00061281198  0.0013252038 
   3600000   128.36713      460.14737      588.51451      288.54189     -0.010024343    0.0013252038 
   3610000   145.79316      449.63733      595.43049      281.95141      0.017081633    0.0013252038 
   3620000   136.54139      494.77065      631.31204      310.25289      0.12460863     0.0013252038 
   3630000   122.19895      489.28344      611.48239      306.81206      0.15562619     0.0013252038 
   3640000   145.70109      486.15608      631.85717      304.85101      0.034544437    0.0013252038 
   3650000   112.12922      446.87838      559.00759      280.22137      0.037223908    0.0013252038 
   3660000   154.9667       453.62817      608.59487      284.45393      0.012800576    0.0013252038 
   3670000   152.28465      475.06966      627.35431      297.89911     -0.028866238    0.0013252038 
   3680000   146.34213      462.56257      608.90471      290.05637     -0.084740614    0.0013252038 
   3690000   146.17091      461.3342       607.50512      289.2861      -0.0083627786   0.0013252038 
   3700000   144.81937      481.28324      626.10262      301.79543     -0.048012035    0.0013252038 
   3710000   153.97026      462.72015      616.6904       290.15518     -0.042696291    0.0013252038 
   3720000   145.19852      455.62165      600.82016      285.70396     -0.04680989     0.0013252038 
   3730000   150.22585      469.9976       620.22345      294.71861      0.069750373    0.0013252038 
   3740000   164.79851      492.10474      656.90324      308.5812       0.028321928    0.0013252038 
   3750000   172.21501      476.42572      648.64073      298.74945      0.013838663    0.0013252038 
   3760000   151.54346      465.24454      616.788        291.73814      0.018064109    0.0013252038 
   3770000   137.81965      459.03944      596.85909      287.84714     -0.059815812    0.0013252038 
   3780000   133.57918      501.98898      635.56817      314.77925      0.059770141    0.0013252038 
   3790000   124.63541      485.58585      610.22126      304.49344      0.033491358    0.0013252038 
   3800000   118.90813      462.84349      581.75163      290.23252      0.03618863     0.0013252038 
   3810000   153.54208      468.35757      621.89966      293.69021     -0.0053547466   0.0013252038 
   3820000   145.69034      491.46273      637.15307      308.17862      0.0096393418   0.0013252038 
   3830000   136.3899       471.74288      608.13279      295.81301     -0.011057123    0.0013252038 
   3840000   147.22659      459.96568      607.19228      288.42795     -0.028365547    0.0013252038 
   3850000   143.8785       471.74695      615.62545      295.81556      0.023551937    0.0013252038 
   3860000   125.29655      489.85111      615.14766      307.16803     -0.044829718    0.0013252038 
   3870000   152.99713      446.63735      599.63448      280.07023      0.0016341008   0.0013252038 
   3880000   137.37427      486.89774      624.27201      305.31608      0.016919725    0.0013252038 
   3890000   158.58565      496.34252      654.92817      311.23856      0.0014968742   0.0013252038 
   3900000   149.85145      465.82073      615.67218      292.09944      0.064497447    0.0013252038 
   3910000   160.83219      506.294        667.12619      317.47878     -0.056350293    0.0013252038 
   3920000   140.25862      495.78417      636.04279      310.88844     -0.0054126324   0.0013252038 
   3930000   158.00483      466.24827      624.2531       292.36754      0.073524166    0.0013252038 
   3940000   143.40804      485.86314      629.27118      304.66732      0.087601457    0.0013252038 
   3950000   148.96275      486.16792      635.13067      304.85843      0.04840726     0.0013252038 
   3960000   169.70253      471.74895      641.45149      295.81682      0.0680202      0.0013252038 
   3970000   164.55829      474.33705      638.89534      297.43972     -0.054991325    0.0013252038 
   3980000   164.62844      473.80554      638.43398      297.10643     -0.042819441    0.0013252038 
   3990000   157.2003       477.14038      634.34068      299.19759     -0.017298871    0.0013252038 
   4000000   151.17449      469.27348      620.44797      294.26454      0.056672629    0.0013252038 
   4010000   136.28406      491.24244      627.5265       308.04048      0.01577619     0.0013252038 
   4020000   130.71082      500.5604       631.27122      313.88344     -0.040093132    0.0013252038 
   4030000   127.90858      485.84288      613.75146      304.65461     -0.068177456    0.0013252038 
   4040000   146.97883      482.2562       629.23503      302.40553     -0.04765909     0.0013252038 
   4050000   105.80344      482.55844      588.36187      302.59506      0.068272532    0.0013252038 
   4060000   150.99394      463.68815      614.68209      290.76218     -0.02547987     0.0013252038 
   4070000   143.33879      466.77885      610.11764      292.70025      0.081449614    0.0013252038 
   4080000   141.58083      502.30354      643.88437      314.9765      -0.050285827    0.0013252038 
   4090000   127.67892      441.24608      568.92499      276.68956      0.00093029398  0.0013252038 
   4100000   155.77906      495.15579      650.93484      310.4944       0.062592153    0.0013252038 
   4110000   135.66801      490.78144      626.44944      307.75141     -0.067110503    0.0013252038 
   4120000   139.99067      451.78997      591.78064      283.30126     -0.068786087    0.0013252038 
   4130000   182.69377      492.271        674.96477      308.68546      0.04392007     0.0013252038 
   4140000   127.94118      486.8047       614.74588      305.25774      0.018115621    0.0013252038 
   4150000   132.99598      492.12383      625.11982      308.59317      0.059607691    0.0013252038 
   4160000   122.78584      473.88328      596.66912      297.15518      0.026630243    0.0013252038 
   4170000   117.23825      474.07262      591.31086      297.2739      -0.054215427    0.0013252038 
   4180000   133.67678      467.64907      601.32586      293.24593      0.04476163     0.0013252038 
   4190000   126.24882      459.22684      585.47565      287.96465     -0.015445608    0.0013252038 
   4200000   123.76843      468.47353      592.24195      293.76292      0.11644878     0.0013252038 
   4210000   116.19523      464.02455      580.21979      290.97312      0.029453721    0.0013252038 
   4220000   109.57942      470.21718      579.79661      294.8563      -0.032511033    0.0013252038 
   4230000   130.20427      484.27549      614.47976      303.67176      0.029013105    0.0013252038 
   4240000   116.99395      494.75898      611.75293      310.24558      0.012148692    0.0013252038 
   4250000   105.18111      492.06062      597.24173      308.55353      0.02373973     0.0013252038 
   4260000   119.3184       482.94659      602.26499      302.83846      0.014581869    0.0013252038 
   4270000   125.15453      450.15621      575.31073      282.27678     -0.033817121    0.0013252038 
   4280000   102.41521      495.13932      597.55453      310.48408     -0.038645237    0.0013252038 
   4290000   111.72235      502.34173      614.06409      315.00045     -0.055852189    0.0013252038 
   4300000   121.26272      467.96153      589.22425      293.44186      0.0054044191   0.0013252038 
   4310000   104.08371      487.58716      591.67086      305.74839      0.044418783    0.0013252038 
   4320000   148.86311      508.05124      656.91435      318.58068     -0.011432272    0.0013252038 
   4330000   82.542614      498.34315      580.88577      312.49308      0.06786968     0.0013252038 
   4340000   96.788083      479.58581      576.37389      300.73103      0.015573979    0.0013252038 
   4350000   97.385802      452.64815      550.03395      283.83939     -0.086899123    0.0013252038 
   4360000   106.29307      453.68125      559.97432      284.48721      0.033009168    0.0013252038 
   4370000   87.186953      483.96549      571.15245      303.47737     -0.029665396    0.0013252038 
   4380000   78.861188      481.51452      560.3757       301.94045      0.030137251    0.0013252038 
   4390000   108.67412      502.96114      611.63526      315.38886     -0.012959745    0.0013252038 
   4400000   69.954607      464.04612      534.00073      290.98665      0.016815567    0.0013252038 
   4410000   102.8637       489.59688      592.46058      307.00861      0.052566638    0.0013252038 
   4420000   119.4727       460.42984      579.90254      288.71901      0.12213125     0.0013252038 
   4430000   95.020595      487.68562      582.70622      305.81013     -0.026709905    0.0013252038 
   4440000   129.56549      454.79931      584.3648       285.18831      0.01484762     0.0013252038 
   4450000   136.6478       508.51275      645.16054      318.87007      0.05428401     0.0013252038 
   4460000   96.569883      483.67642      580.24631      303.29611      0.056419893    0.0013252038 
   4470000   121.88763      501.28667      623.1743       314.33886     -0.033954017    0.0013252038 
   4480000   121.04822      479.44117      600.48938      300.64033      0.070148364    0.0013252038 
   4490000   117.00721      496.69501      613.70222      311.45959     -0.04933476     0.0013252038 
   4500000   99.480198      480.99246      580.47266      301.61309      0.046088814    0.0013252038 
   4510000   108.986        451.05664      560.04264      282.84141      0.092995891    0.0013252038 
   4520000   102.47465      482.91357      585.38823      302.81775      0.069390722    0.0013252038 
   4530000   92.310468      491.5053       583.81577      308.20532      0.055636978    0.0013252038 
   4540000   85.76184       499.81142      585.57326      313.41378     -0.022451662    0.0013252038 
   4550000   108.11059      486.38011      594.49069      304.99149     -0.0083619707   0.0013252038 
   4560000   72.721461      495.78301      568.50447      310.88771     -0.0071578076   0.0013252038 
   4570000   89.996156      498.48644      588.48259      312.58293      0.065329087    0.0013252038 
   4580000   116.63188      462.77623      579.40811      290.19035      0.02227119     0.0013252038 
   4590000   99.067638      460.52751      559.59515      288.78025     -0.061927666    0.0013252038 
   4600000   126.45605      462.60937      589.06541      290.08571      0.030219893    0.0013252038 
   4610000   142.75813      474.30676      617.06489      297.42073     -0.060722992    0.0013252038 
   4620000   115.61207      481.64277      597.25485      302.02088     -0.036082196    0.0013252038 
   4630000   100.2236       462.84682      563.07042      290.23461     -0.0032500541   0.0013252038 
   4640000   93.119421      473.06852      566.18795      296.64427      0.022349266    0.0013252038 
   4650000   127.65768      475.0694       602.72708      297.89895     -0.027551751    0.0013252038 
   4660000   121.49248      444.8234       566.31589      278.93277      0.016810556    0.0013252038 
   4670000   135.73143      463.32329      599.05472      290.53338      0.019933229    0.0013252038 
   4680000   118.01937      473.20945      591.22881      296.73264      0.070172115    0.0013252038 
   4690000   97.676854      478.26225      575.9391       299.90107     -0.046868633    0.0013252038 
   4700000   120.77162      451.87045      572.64208      283.35173      0.027676435    0.0013252038 
   4710000   114.72704      508.24124      622.96828      318.69982     -0.022053978    0.0013252038 
   4720000   110.52057      478.35841      588.87898      299.96137     -0.032362557    0.0013252038 
   4730000   105.27768      478.92796      584.20564      300.31852      0.015255065    0.0013252038 
   4740000   106.18831      484.12801      590.31632      303.57928      0.040653461    0.0013252038 
   4750000   114.20981      485.07772      599.28753      304.17481      0.055185049    0.0013252038 
   4760000   132.16014      470.71317      602.8733       295.16731     -0.082110821    0.0013252038 
   4770000   108.66856      461.89205      570.5606       289.63591      0.050020302    0.0013252038 
   4780000   125.53409      481.22707      606.76116      301.7602       0.043466878    0.0013252038 
   4790000   113.71472      510.90064      624.61536      320.36743      0.048867611    0.0013252038 
   4800000   113.70851      463.68081      577.38932      290.75758     -0.0056990516   0.0013252038 
   4810000   107.40215      462.90096      570.30311      290.26856     -0.036614261    0.0013252038 
   4820000   136.70777      472.9683       609.67606      296.58143     -0.013849301    0.0013252038 
   4830000   115.73091      488.90826      604.63916      306.5768       0.036504407    0.0013252038 
   4840000   155.28631      490.01343      645.29974      307.26982      0.040252145    0.0013252038 
   4850000   142.47139      503.94451      646.41591      316.0055       1.7200814e-05  0.0013252038 
   4860000   131.98501      475.29164      607.27665      298.03831     -0.059597072    0.0013252038 
   4870000   126.77569      473.09983      599.87552      296.6639       0.0070091286   0.0013252038 
   4880000   100.50316      479.31985      579.82302      300.56426      0.028333805    0.0013252038 
   4890000   114.07883      493.19828      607.27711      309.26692     -0.044022591    0.0013252038 
   4900000   113.57521      508.83472      622.40993      319.07197      0.11106736     0.0013252038 
   4910000   91.074888      504.6675       595.74239      316.45886      0.029207181    0.0013252038 
   4920000   82.526275      471.83288      554.35915      295.86944     -0.033639995    0.0013252038 
   4930000   137.60646      505.12876      642.73522      316.7481       0.013069754    0.0013252038 
   4940000   106.76846      491.28966      598.05812      308.07009     -0.019386611    0.0013252038 
   4950000   103.94942      448.563        552.51242      281.27774      0.027898331    0.0013252038 
   4960000   99.13342       472.94679      572.08021      296.56794     -0.08624726     0.0013252038 
   4970000   61.438156      482.21291      543.65106      302.37839     -0.053274145    0.0013252038 
   4980000   89.971117      445.98144      535.95255      279.65893      0.017539275    0.0013252038 
   4990000   90.323905      493.89629      584.22019      309.70462     -0.033891181    0.0013252038 
   5000000   85.006989      479.17777      564.18476      300.47516     -0.0083986655   0.0013252038 
Loop time of 216.777 on 8 procs for 5000000 steps with 536 atoms

Performance: 19928.350 ns/day, 0.001 hours/ns, 23065.220 timesteps/s, 12.363 Matom-step/s
99.2% CPU use with 8 MPI tasks x 1 OpenMP threads

MPI task timing breakdown:
Section |  min time  |  avg time  |  max time  |%varavg| %total
---------------------------------------------------------------
Pair    | 31.855     | 56.221     | 124.76     | 409.7 | 25.94
Bond    | 4.324      | 11.558     | 22.781     | 155.6 |  5.33
Neigh   | 0.49829    | 0.52706    | 0.55052    |   2.8 |  0.24
Comm    | 53.246     | 139.11     | 171.31     | 323.5 | 64.17
Output  | 0.040776   | 0.085989   | 0.20033    |  17.0 |  0.04
Modify  | 3.037      | 7.3196     | 13.889     | 115.5 |  3.38
Other   |            | 1.954      |            |       |  0.90

Nlocal:             67 ave         117 max          26 min
Histogram: 2 0 1 1 1 0 0 2 0 1
Nghost:         63.125 ave          90 max          39 min
Histogram: 1 1 1 0 1 1 1 1 0 1
Neighs:         212.25 ave         648 max          40 min
Histogram: 3 1 1 1 0 1 0 0 0 1

Total # of neighbors = 1698
Ave neighs/atom = 3.1679104
Ave special neighs/atom = 4.858209
Neighbor list builds = 9957
Dangerous builds = 0
Generated 0 of 6 mixed pair_coeff terms from geometric mixing rule
Setting up Verlet run ...
  Unit style    : real
  Current step  : 5000000
  Time step     : 10
Per MPI rank memory allocation (min/avg/max) = 8.608 | 8.71 | 8.879 Mbytes
   Step         PotEng         KinEng         TotEng          Temp          Press         Density    
   5000000   85.006989      479.17777      564.18476      300.47516     -0.0083986655   0.0013252038 
   5010000   101.60765      534.52994      636.1376       335.18452      0.014859255    0.0013252038 
   5020000   136.20671      493.08125      629.28797      309.19354      0.060641236    0.0013252038 
   5030000   92.39209       494.52909      586.92118      310.10142     -0.019325021    0.0013252038 
   5040000   91.562132      514.34419      605.90632      322.52676      0.085582133    0.0013252038 
   5050000   93.245369      466.75294      559.9983       292.68399      0.0090805965   0.0013252038 
   5060000   123.81065      490.31816      614.12882      307.4609       0.015513477    0.0013252038 
   5070000   131.55885      481.82053      613.37937      302.13234      0.074034763    0.0013252038 
   5080000   89.545835      471.33759      560.88343      295.55887      0.057108683    0.0013252038 
   5090000   99.160105      482.61314      581.77324      302.62936      0.063190294    0.0013252038 
   5100000   70.105094      449.79736      519.90246      282.05176      0.03362276     0.0013252038 
   5110000   102.66306      481.98088      584.64393      302.23289      0.067068807    0.0013252038 
   5120000   79.475279      482.12874      561.60402      302.32561      0.036894329    0.0013252038 
   5130000   87.387446      487.36709      574.75453      305.61039      0.017912931    0.0013252038 
   5140000   111.20826      520.99204      632.20029      326.69539     -0.086851866    0.0013252038 
   5150000   91.748871      475.18722      566.93609      297.97283      0.011041791    0.0013252038 
   5160000   106.64636      482.2839       588.93026      302.42291      0.058191579    0.0013252038 
   5170000   110.02332      469.00618      579.0295       294.09692      0.028942865    0.0013252038 
   5180000   114.46381      478.104        592.5678       299.80184     -0.03634839     0.0013252038 
   5190000   108.97223      464.17475      573.14699      291.06731     -0.0086089954   0.0013252038 
   5200000   94.453137      434.35454      528.80768      272.36813     -0.00091893211  0.0013252038 
   5210000   149.17149      467.32669      616.49818      293.04378     -0.011814643    0.0013252038 
   5220000   166.39578      466.02402      632.41979      292.22692     -0.098413692    0.0013252038 
   5230000   127.94651      476.13038      604.07689      298.56425      0.0087694993   0.0013252038 
   5240000   124.05354      476.7152       600.76874      298.93097     -0.00036734625  0.0013252038 
   5250000   141.50888      470.11361      611.62249      294.79136      0.019823092    0.0013252038 
   5260000   137.00331      474.9917       611.99501      297.85023      0.0280765      0.0013252038 
   5270000   168.41526      510.90029      679.31556      320.36722     -0.1325283      0.0013252038 
   5280000   142.73093      474.34221      617.07314      297.44295      0.059830304    0.0013252038 
   5290000   105.94804      484.52411      590.47214      303.82766     -0.016417253    0.0013252038 
   5300000   118.07137      502.00789      620.07926      314.79111      0.072033044    0.0013252038 
   5310000   115.60572      477.80569      593.41141      299.61478     -0.028336561    0.0013252038 
   5320000   133.53319      490.14587      623.67907      307.35287     -0.061486747    0.0013252038 
   5330000   120.03152      476.34751      596.37903      298.70041      0.020446624    0.0013252038 
   5340000   99.385077      434.85031      534.23539      272.67901      0.0045433164   0.0013252038 
   5350000   92.803894      482.50419      575.30808      302.56104      0.10222954     0.0013252038 
   5360000   127.1164       493.30207      620.41846      309.332       -0.0011574524   0.0013252038 
   5370000   135.41094      469.65661      605.06755      294.50479     -0.013492063    0.0013252038 
   5380000   126.45103      467.39751      593.84853      293.08818      0.067522132    0.0013252038 
   5390000   131.31931      475.79805      607.11735      298.35586     -0.079809032    0.0013252038 
   5400000   102.75481      487.1678       589.92261      305.48543     -0.10482088     0.0013252038 
   5410000   112.16662      483.51954      595.68616      303.19773      0.07062665     0.0013252038 
   5420000   97.109385      448.61407      545.72346      281.30976     -0.028638721    0.0013252038 
   5430000   103.34963      483.50262      586.85225      303.18712      0.0088685104   0.0013252038 
   5440000   120.41294      490.36176      610.7747       307.48824      0.0071008193   0.0013252038 
   5450000   95.85528       476.93803      572.79331      299.0707       0.02520695     0.0013252038 
   5460000   130.27515      478.66567      608.94082      300.15404     -0.034884125    0.0013252038 
   5470000   156.57441      484.73135      641.30576      303.95761      0.033781411    0.0013252038 
   5480000   149.80283      488.77313      638.57596      306.49207     -0.010003709    0.0013252038 
   5490000   147.96006      469.83115      617.7912       294.61423      0.061872527    0.0013252038 
   5500000   145.94434      469.06895      615.01329      294.13628     -0.051245487    0.0013252038 
   5510000   116.89329      483.45169      600.34498      303.15518      0.010724585    0.0013252038 
   5520000   153.54251      476.86895      630.41146      299.02738      0.01697068     0.0013252038 
   5530000   135.21808      480.03619      615.25427      301.01345     -0.016985821    0.0013252038 
   5540000   135.69425      480.88127      616.57552      301.54337     -0.034284058    0.0013252038 
   5550000   164.68631      475.01407      639.70037      297.86425      0.021012807    0.0013252038 
   5560000   150.6241       489.66929      640.29339      307.05402      0.013678936    0.0013252038 
   5570000   167.61694      452.20751      619.82445      283.56308      0.09018261     0.0013252038 
   5580000   168.78187      480.78297      649.56484      301.48172     -0.050477761    0.0013252038 
   5590000   143.73922      453.08863      596.82785      284.1156       0.090790423    0.0013252038 
   5600000   127.40035      487.67601      615.07636      305.8041      -0.0011361613   0.0013252038 
   5610000   137.84188      467.1745       605.01637      292.94834      0.0889602      0.0013252038 
   5620000   204.76677      467.192        671.95878      292.95932      0.05851577     0.0013252038 
   5630000   134.9441       497.13518      632.07928      311.73561      0.12743888     0.0013252038 
   5640000   142.43271      469.30964      611.74235      294.28721      0.075839603    0.0013252038 
   5650000   147.65886      488.78074      636.4396       306.49684      0.020024436    0.0013252038 
   5660000   144.15713      477.72564      621.88277      299.56458      0.037205786    0.0013252038 
   5670000   142.98266      482.28709      625.26975      302.42491      0.028316773    0.0013252038 
   5680000   152.42777      499.63774      652.06551      313.30488      0.017979277    0.0013252038 
   5690000   130.48299      473.44858      603.93156      296.88259      0.0055320519   0.0013252038 
   5700000   148.54554      470.84069      619.38623      295.24728      0.084046645    0.0013252038 
   5710000   164.62538      489.34235      653.96773      306.849        0.061552402    0.0013252038 
   5720000   157.26261      453.04774      610.31035      284.08996      0.032558196    0.0013252038 
   5730000   131.55116      477.23321      608.78437      299.2558      -0.003825411    0.0013252038 
   5740000   130.66143      487.11356      617.77499      305.45141      0.02544859     0.0013252038 
   5750000   143.62225      481.51858      625.14083      301.943        0.025603858    0.0013252038 
   5760000   155.85411      495.60292      651.45703      310.77478      0.030460131    0.0013252038 
   5770000   155.50351      472.3848       627.88831      296.21553     -0.060447977    0.0013252038 
   5780000   179.29115      478.28349      657.57464      299.91439      0.088413984    0.0013252038 
   5790000   152.71972      496.55729      649.27701      311.37324     -0.0012389735   0.0013252038 
   5800000   174.48461      494.09636      668.58097      309.83007      0.088590241    0.0013252038 
   5810000   134.30124      463.34734      597.64858      290.54847     -0.0039478398   0.0013252038 
   5820000   152.54142      478.29455      630.83597      299.92133     -0.050987899    0.0013252038 
   5830000   155.16219      459.1494       614.31159      287.91609     -0.018433411    0.0013252038 
   5840000   145.49878      475.54199      621.04077      298.19529     -0.112812       0.0013252038 
   5850000   170.82865      491.9337       662.76235      308.47395      0.044983362    0.0013252038 
   5860000   162.43693      458.52773      620.96466      287.52626     -0.072892257    0.0013252038 
   5870000   116.1444       512.23973      628.38413      321.20713     -0.0021755694   0.0013252038 
   5880000   173.52988      503.15261      676.68248      315.50892     -0.041098496    0.0013252038 
   5890000   146.64825      480.77519      627.42344      301.47685     -0.014709219    0.0013252038 
   5900000   172.2422       476.45335      648.69554      298.76678     -0.058735961    0.0013252038 
   5910000   143.78709      502.89725      646.68434      315.3488       0.090081961    0.0013252038 
   5920000   139.20271      477.5242       616.72692      299.43827      0.010421982    0.0013252038 
   5930000   145.39398      457.2976       602.69158      286.75489     -0.027626401    0.0013252038 
   5940000   158.65069      514.89045      673.54114      322.8693      -0.067683465    0.0013252038 
   5950000   182.69416      490.78806      673.48223      307.75556     -0.11853411     0.0013252038 
   5960000   120.95999      491.43544      612.39542      308.1615       0.02259422     0.0013252038 
   5970000   126.673        497.69286      624.36586      312.08531      0.087769631    0.0013252038 
   5980000   137.17958      483.79017      620.96975      303.36743     -0.01426494     0.0013252038 
   5990000   147.40325      491.4557       638.85895      308.17421      0.023747247    0.0013252038 
   6000000   119.65036      454.79779      574.44815      285.18735      0.040392439    0.0013252038 
   6010000   141.38357      497.59719      638.98077      312.02532      0.0024951057   0.0013252038 
   6020000   129.24332      483.70449      612.94781      303.31371     -0.0055695034   0.0013252038 
   6030000   148.817        495.18998      644.00698      310.51584     -0.080845064    0.0013252038 
   6040000   158.17649      491.56189      649.73838      308.2408      -0.023914482    0.0013252038 
   6050000   143.73594      490.00129      633.73723      307.2622       0.01175844     0.0013252038 
   6060000   144.90616      465.68132      610.58748      292.01202     -0.054847204    0.0013252038 
   6070000   164.41228      484.82325      649.23553      304.01524      0.025460927    0.0013252038 
   6080000   129.58098      464.48001      594.06099      291.25873     -0.041709033    0.0013252038 
   6090000   125.93571      476.09359      602.0293       298.54118      0.0013165458   0.0013252038 
   6100000   146.36114      500.58775      646.9489       313.90059      0.050443544    0.0013252038 
   6110000   167.82973      477.58373      645.41346      299.4756      -0.061256768    0.0013252038 
   6120000   176.85323      464.50975      641.36298      291.27737      0.0094889074   0.0013252038 
   6130000   162.93919      497.37138      660.31058      311.88372      0.051556361    0.0013252038 
   6140000   185.26359      474.79208      660.05567      297.72505     -0.03497646     0.0013252038 
   6150000   153.98461      462.27437      616.25898      289.87565     -0.055807705    0.0013252038 
   6160000   172.26263      453.64263      625.90526      284.46299      0.007177331    0.0013252038 
   6170000   196.50661      487.50136      684.00798      305.69459     -0.03765823     0.0013252038 
   6180000   185.13733      486.01096      671.14829      304.76001      0.03076223     0.0013252038 
   6190000   184.28112      484.1511       668.43222      303.59376     -0.044814433    0.0013252038 
   6200000   133.86178      479.09404      612.95582      300.42266      0.0049633361   0.0013252038 
   6210000   163.21551      499.62301      662.83852      313.29564      0.022132789    0.0013252038 
   6220000   180.61092      454.06268      634.6736       284.72639      0.080600409    0.0013252038 
   6230000   157.28241      499.63013      656.91254      313.3001      -0.012559341    0.0013252038 
   6240000   139.90487      457.5314       597.43627      286.9015      -0.030665228    0.0013252038 
   6250000   178.03285      480.87601      658.90886      301.54007      0.073342503    0.0013252038 
   6260000   179.05711      448.31102      627.36814      281.11973     -0.017181006    0.0013252038 
   6270000   189.09898      488.12609      677.22507      306.08633     -0.053433846    0.0013252038 
   6280000   189.90332      465.00875      654.91207      291.59028      0.0013159794   0.0013252038 
   6290000   180.80601      473.39587      654.20188      296.84954      0.041118957    0.0013252038 
   6300000   166.29308      443.01821      609.31128      277.8008       0.0084536101   0.0013252038 
   6310000   181.98775      475.54535      657.5331       298.1974       0.09132129     0.0013252038 
   6320000   190.4758       438.48058      628.95638      274.95542     -0.014378035    0.0013252038 
   6330000   155.43462      467.35521      622.78983      293.06166     -0.041999395    0.0013252038 
   6340000   169.12057      496.16153      665.28211      311.12507      0.0066893057   0.0013252038 
   6350000   147.86727      493.62883      641.4961       309.5369       0.0058561698   0.0013252038 
   6360000   124.98743      460.57596      585.56339      288.81063      0.07012373     0.0013252038 
   6370000   159.42325      444.35373      603.77698      278.63826      0.061095954    0.0013252038 
   6380000   161.84025      475.36941      637.20966      298.08707      0.041057953    0.0013252038 
   6390000   191.18982      458.04132      649.23114      287.22125     -0.053016168    0.0013252038 
   6400000   188.37104      462.2865       650.65754      289.88325     -0.023536018    0.0013252038 
   6410000   145.54334      500.38706      645.9304       313.77474      0.11272558     0.0013252038 
   6420000   157.67242      465.62932      623.30174      291.97941     -0.0064575749   0.0013252038 
   6430000   139.90641      476.52768      616.43409      298.81339      0.12849796     0.0013252038 
   6440000   175.94861      472.97547      648.92407      296.58592     -0.0082268746   0.0013252038 
   6450000   193.8504       458.37946      652.22987      287.43329     -0.017281038    0.0013252038 
   6460000   181.23672      494.49904      675.73576      310.08258     -0.029140275    0.0013252038 
   6470000   153.01142      471.50448      624.5159       295.66352      0.016841049    0.0013252038 
   6480000   163.50235      467.48936      630.99171      293.14578     -0.034533909    0.0013252038 
   6490000   139.50419      466.5557       606.05989      292.56032      0.0022552097   0.0013252038 
   6500000   136.05168      469.51967      605.57135      294.41892      0.016603143    0.0013252038 
   6510000   152.27544      497.41893      649.69438      311.91354      0.013132373    0.0013252038 
   6520000   150.38994      458.02648      608.41641      287.21195      0.063868707    0.0013252038 
   6530000   171.78496      520.79404      692.579        326.57123      0.021390288    0.0013252038 
   6540000   141.35654      491.02887      632.3854       307.90656      0.010205035    0.0013252038 
   6550000   167.2411       474.68563      641.92674      297.6583       0.028941053    0.0013252038 
   6560000   147.88151      477.97418      625.85568      299.72043     -0.061353769    0.0013252038 
   6570000   165.02352      484.38969      649.41321      303.74337     -0.039088827    0.0013252038 
   6580000   155.02202      459.53424      614.55626      288.15741     -0.09437104     0.0013252038 
   6590000   158.77324      502.61411      661.38735      315.17125      0.01616279     0.0013252038 
   6600000   183.86337      498.22227      682.08564      312.41728      0.029508449    0.0013252038 
   6610000   179.36302      494.54426      673.90728      310.11094      0.15186038     0.0013252038 
   6620000   146.70528      488.56749      635.27277      306.36312      0.046767095    0.0013252038 
   6630000   152.08662      477.154        629.24062      299.20613      0.072259094    0.0013252038 
   6640000   156.53883      453.52812      610.06695      284.39119     -0.039223668    0.0013252038 
   6650000   181.12876      466.37028      647.49904      292.44405     -0.044082727    0.0013252038 
   6660000   130.18968      488.31767      618.50735      306.20647     -0.02383332     0.0013252038 
   6670000   132.95403      489.73558      622.68962      307.09559      0.045475888    0.0013252038 
   6680000   151.22047      479.84582      631.06629      300.89407      0.084039868    0.0013252038 
   6690000   169.96165      484.79091      654.75256      303.99496     -0.00066037631  0.0013252038 
   6700000   169.17977      434.43724      603.61701      272.41998      0.024112275    0.0013252038 
   6710000   169.03144      486.78001      655.81145      305.24225      0.0018121078   0.0013252038 
   6720000   162.81553      503.06938      665.8849       315.45673      0.00013836164  0.0013252038 
   6730000   144.88855      478.11809      623.00664      299.81067     -0.015762324    0.0013252038 
   6740000   193.91067      448.24565      642.15632      281.07874     -0.025278031    0.0013252038 
   6750000   182.97374      467.854        650.82774      293.37443      0.1005872      0.0013252038 
   6760000   159.30409      501.40444      660.70853      314.41271      0.038621179    0.0013252038 
   6770000   160.92271      499.63423      660.55694      313.30267     -0.012587666    0.0013252038 
   6780000   167.05261      491.79521      658.84782      308.38711     -0.0087676875   0.0013252038 
   6790000   191.3038       492.35286      683.65666      308.73679     -0.011508622    0.0013252038 
   6800000   186.39788      477.3385       663.73638      299.32182     -0.05796412     0.0013252038 
   6810000   171.93544      478.37445      650.30989      299.97143      0.019941912    0.0013252038 
   6820000   147.26046      482.326        629.58646      302.4493       0.032060643    0.0013252038 
   6830000   152.40452      483.72023      636.12474      303.32357      0.056874082    0.0013252038 
   6840000   155.0372       461.84073      616.87793      289.60373     -0.051268444    0.0013252038 
   6850000   178.83893      483.97091      662.80984      303.48077      0.0023652323   0.0013252038 
   6860000   159.46358      484.06749      643.53106      303.54133      0.071906212    0.0013252038 
   6870000   188.95192      453.39231      642.34423      284.30603     -0.052267248    0.0013252038 
   6880000   146.74901      470.72307      617.47209      295.17353      0.032434766    0.0013252038 
   6890000   152.87329      471.44113      624.31442      295.62379     -0.0038808878   0.0013252038 
   6900000   186.54003      490.43987      676.9799       307.53722     -0.025456289    0.0013252038 
   6910000   171.96965      484.09208      656.06172      303.55675     -0.067333093    0.0013252038 
   6920000   171.66589      462.98695      634.65284      290.32248     -0.030447929    0.0013252038 
   6930000   187.70456      480.16149      667.86606      301.09202     -0.035435061    0.0013252038 
   6940000   178.86533      465.92269      644.78802      292.16338     -0.0042997353   0.0013252038 
   6950000   155.2451       463.31569      618.56079      290.52862      0.044635139    0.0013252038 
   6960000   160.01621      484.48039      644.4966       303.80024     -0.021329475    0.0013252038 
   6970000   177.32434      450.47428      627.79862      282.47623     -0.041635795    0.0013252038 
   6980000   166.65466      499.00048      665.65514      312.90527      0.043102235    0.0013252038 
   6990000   139.24606      456.49154      595.7376       286.24944     -0.021977862    0.0013252038 
   7000000   145.86361      474.63083      620.49444      297.62394      0.037000574    0.0013252038 
   7010000   163.39265      491.70951      655.10216      308.33337      0.014320662    0.0013252038 
   7020000   127.4322       482.79572      610.22792      302.74385     -0.0095592378   0.0013252038 
   7030000   174.1478       479.49436      653.64217      300.67369     -0.031322439    0.0013252038 
   7040000   174.68816      471.19999      645.88815      295.47258      0.010904772    0.0013252038 
   7050000   168.4429       480.06855      648.51146      301.03374     -0.01520781     0.0013252038 
   7060000   146.99866      470.22823      617.22689      294.86323      0.070775063    0.0013252038 
   7070000   130.32842      507.06397      637.3924       317.9616       0.0042808728   0.0013252038 
   7080000   159.90081      457.62454      617.52535      286.95991      0.031727317    0.0013252038 
   7090000   148.14197      481.02695      629.16892      301.63472     -0.07113846     0.0013252038 
   7100000   148.21737      499.41721      647.63458      313.16659     -0.039097835    0.0013252038 
   7110000   163.64715      444.78814      608.43529      278.91066     -0.048388382    0.0013252038 
   7120000   176.61379      487.72811      664.3419       305.83677     -0.086380907    0.0013252038 
   7130000   170.5663       470.7161       641.2824       295.16915     -0.018089738    0.0013252038 
   7140000   136.90115      479.76444      616.66559      300.84304     -0.0077591284   0.0013252038 
   7150000   158.51596      463.70662      622.22258      290.77376      0.031495343    0.0013252038 
   7160000   159.37587      459.55906      618.93492      288.17297     -0.075209952    0.0013252038 
   7170000   179.0253       472.40525      651.43054      296.22836      0.1172528      0.0013252038 
   7180000   166.23406      474.36238      640.59644      297.45561      0.041483723    0.0013252038 
   7190000   151.02915      482.67705      633.70619      302.66943      0.050195873    0.0013252038 
   7200000   159.99043      472.34716      632.3376       296.19193      0.048712925    0.0013252038 
   7210000   155.76476      482.57879      638.34356      302.60782      0.015938271    0.0013252038 
   7220000   172.74668      462.81653      635.56321      290.21562     -0.048280214    0.0013252038 
   7230000   155.11796      463.44         618.55795      290.60657     -0.0079117271   0.0013252038 
   7240000   155.6763       472.55811      628.23441      296.32421     -0.0092072046   0.0013252038 
   7250000   119.35204      482.04254      601.39458      302.27155      0.027245362    0.0013252038 
   7260000   155.93407      511.99721      667.93127      321.05505      0.039195414    0.0013252038 
   7270000   160.87104      479.51102      640.38206      300.68413     -0.0061794212   0.0013252038 
[...]
 103190000  -26.715783      479.351        452.63522      300.58379      0.017677792    0.0013252038 
 103200000  -15.191143      485.21521      470.02407      304.26103     -0.035611389    0.0013252038 
 103210000  -56.99596       506.28268      449.28672      317.47168      0.04576403     0.0013252038 
 103220000  -51.588601      470.18337      418.59477      294.8351      -0.0093231473   0.0013252038 
 103230000  -37.713844      468.64976      430.93591      293.87342      0.13020289     0.0013252038 
 103240000  -58.464976      482.87887      424.41389      302.79599     -0.041236673    0.0013252038 
 103250000  -45.007197      490.83769      445.8305       307.78668     -0.055951531    0.0013252038 
 103260000   2.9301648      497.5632       500.49337      312.00401      0.060147739    0.0013252038 
 103270000  -10.028361      473.74734      463.71898      297.06994      0.028909794    0.0013252038 
 103280000  -52.83825       481.95627      429.11802      302.21746      0.029147398    0.0013252038 
 103290000  -5.2263384      465.92565      460.69931      292.16523      0.0088149709   0.0013252038 
 103300000  -66.881074      491.66095      424.77988      308.30292     -0.0065964825   0.0013252038 
 103310000  -47.243303      453.90937      406.66607      284.63026      0.0040693517   0.0013252038 
 103320000  -39.938942      459.73125      419.79231      288.28095      0.0055755714   0.0013252038 
 103330000  -68.03744       456.99786      388.96042      286.56694     -0.045693367    0.0013252038 
 103340000  -56.796029      484.02909      427.23306      303.51725     -0.053629515    0.0013252038 
 103350000  -48.005852      505.78617      457.78032      317.16033     -0.055977062    0.0013252038 
 103360000  -55.224704      478.81399      423.58928      300.24705      0.03006875     0.0013252038 
 103370000  -41.731612      488.87743      447.14582      306.55747      0.090617708    0.0013252038 
 103380000  -53.794427      452.59442      398.79999      283.8057      -0.014453316    0.0013252038 
 103390000  -71.894477      458.40636      386.51188      287.45016     -0.073954056    0.0013252038 
 103400000  -49.460084      452.82557      403.36548      283.95064      0.092556585    0.0013252038 
 103410000  -28.676093      461.08961      432.41351      289.13272      0.07394754     0.0013252038 
 103420000  -35.064668      499.05003      463.98536      312.93634     -0.007283708    0.0013252038 
 103430000  -46.952324      485.41241      438.46009      304.38468      0.016225951    0.0013252038 
 103440000  -24.748733      481.92135      457.17261      302.19556      0.053134935    0.0013252038 
 103450000  -37.601506      469.59522      431.99372      294.46629      0.011994064    0.0013252038 
 103460000  -7.278853       476.59296      469.31411      298.85432      0.035468334    0.0013252038 
 103470000  -66.727875      454.0092       387.28133      284.69286      0.018997795    0.0013252038 
 103480000  -23.889903      454.586        430.69609      285.05454      0.016633853    0.0013252038 
 103490000  -36.306432      482.61528      446.30885      302.6307       0.014110608    0.0013252038 
 103500000  -5.9579124      481.5583       475.60038      301.9679       0.032529682    0.0013252038 
 103510000  -19.738776      433.67579      413.93701      271.9425      -0.046136587    0.0013252038 
 103520000   10.383931      461.21209      471.59602      289.20953     -0.028724304    0.0013252038 
 103530000   2.4178138      481.94065      484.35846      302.20766     -0.023973461    0.0013252038 
 103540000  -46.522227      501.01643      454.49421      314.1694       0.014522086    0.0013252038 
 103550000  -43.615569      435.64383      392.02826      273.17659     -0.1261827      0.0013252038 
 103560000  -27.099202      480.98868      453.88948      301.61072     -0.018690594    0.0013252038 
 103570000  -14.542244      517.322        502.77976      324.39404     -0.053982408    0.0013252038 
 103580000  -4.8947308      455.3851       450.49036      285.55563     -0.063361334    0.0013252038 
 103590000   3.3292602      495.75668      499.08594      310.8712      -0.066531514    0.0013252038 
 103600000  -38.174368      494.59891      456.42455      310.14521      0.034246291    0.0013252038 
 103610000  -10.725518      472.03843      461.31291      295.99834     -0.013865781    0.0013252038 
 103620000  -18.740333      458.67824      439.93791      287.62064      0.054451938    0.0013252038 
 103630000  -29.799026      456.10759      426.30856      286.00868      0.024530208    0.0013252038 
 103640000  -52.970608      450.89499      397.92438      282.74005      0.08860386     0.0013252038 
 103650000  -36.345101      479.04872      442.70362      300.39424      0.007228788    0.0013252038 
 103660000  -51.796439      494.30452      442.50808      309.9606       0.078661804    0.0013252038 
 103670000  -2.101795       460.73634      458.63455      288.91121      0.074270763    0.0013252038 
 103680000  -28.836956      471.99721      443.16026      295.97249     -0.11558442     0.0013252038 
 103690000  -14.649604      466.40465      451.75505      292.4656       0.066342874    0.0013252038 
 103700000  -62.157992      480.32954      418.17154      301.19739     -0.040136936    0.0013252038 
 103710000  -56.801001      476.4789       419.67789      298.78279     -0.026454769    0.0013252038 
 103720000  -32.039682      455.11078      423.0711       285.38362      0.035250494    0.0013252038 
 103730000  -27.475282      471.64428      444.169        295.75118      0.049252595    0.0013252038 
 103740000   2.9725934      445.57222      448.54482      279.40233     -0.013802728    0.0013252038 
 103750000   2.7368826      477.63802      480.37491      299.50964      0.0597591      0.0013252038 
 103760000   18.259189      485.44799      503.70718      304.40699      0.063838723    0.0013252038 
 103770000   10.039483      462.11583      472.15532      289.77623     -0.011177896    0.0013252038 
 103780000  -1.3711197      471.20347      469.83235      295.47477      0.082217915    0.0013252038 
 103790000  -19.992528      449.23183      429.2393       281.69714     -0.033453363    0.0013252038 
 103800000  -29.332903      455.49806      426.16515      285.62646     -0.017120802    0.0013252038 
 103810000   38.992629      497.70708      536.69971      312.09423     -0.10269779     0.0013252038 
 103820000  -19.858865      488.56316      468.7043       306.3604      -0.014332711    0.0013252038 
 103830000  -13.246119      498.3937       485.14758      312.52478     -0.024330623    0.0013252038 
 103840000   12.19774       476.6844       488.88214      298.91166     -0.033086771    0.0013252038 
 103850000  -12.929845      464.81024      451.88039      291.4658      -0.018848096    0.0013252038 
 103860000   35.655107      470.69424      506.34935      295.15545     -0.040296085    0.0013252038 
 103870000  -17.949779      477.02589      459.07611      299.1258       0.0050420778   0.0013252038 
 103880000  -13.739517      502.3665       488.62699      315.01598      0.11332327     0.0013252038 
 103890000   21.325807      473.18681      494.51262      296.71845     -0.0060853898   0.0013252038 
 103900000   35.113278      494.15625      529.26952      309.86763     -0.066246782    0.0013252038 
 103910000  -22.052915      483.38417      461.33125      303.11284     -0.06356394     0.0013252038 
 103920000  -7.0574151      491.29072      484.2333       308.07076      0.055016477    0.0013252038 
 103930000  -40.041796      457.33633      417.29454      286.77918      0.023380023    0.0013252038 
 103940000   8.9668173      501.95194      510.91875      314.75602      0.010421754    0.0013252038 
 103950000  -28.812306      441.29908      412.48678      276.7228       0.04647654     0.0013252038 
 103960000  -34.192343      454.20405      420.0117       284.81504      0.046744507    0.0013252038 
 103970000  -5.880467       469.84941      463.96894      294.62568      0.010330388    0.0013252038 
 103980000  -7.0737968      479.09719      472.0234       300.42463     -0.087239846    0.0013252038 
 103990000  -41.517519      472.79806      431.28054      296.47468     -0.06802081     0.0013252038 
 104000000  -14.699491      465.18311      450.48362      291.69961     -0.042123484    0.0013252038 
 104010000   12.065172      497.91811      509.98328      312.22656      0.072360213    0.0013252038 
 104020000  -5.7422183      466.19044      460.44822      292.33128     -0.032509301    0.0013252038 
 104030000   30.452501      449.92812      480.38062      282.13376      0.052621226    0.0013252038 
 104040000  -7.3170733      494.99271      487.67564      310.39214     -0.081504099    0.0013252038 
 104050000  -14.330328      444.50136      430.17104      278.73083      0.0045827042   0.0013252038 
 104060000  -28.80185       454.01236      425.21051      284.69483      0.055390234    0.0013252038 
 104070000  -22.437779      505.57651      483.13873      317.02887      0.013040438    0.0013252038 
 104080000  -32.16639       468.12332      435.95694      293.54332     -0.08257746     0.0013252038 
 104090000  -5.8387401      454.95373      449.11499      285.28514     -0.064894831    0.0013252038 
 104100000   12.792446      462.37521      475.16766      289.93888      0.07055729     0.0013252038 
 104110000   8.2116645      455.22825      463.43992      285.45728      0.061323319    0.0013252038 
 104120000  -3.6033127      472.22199      468.61868      296.11344     -0.025333827    0.0013252038 
 104130000  -15.766494      496.8977       481.13121      311.58669     -0.075679166    0.0013252038 
 104140000  -21.22261       488.53763      467.31502      306.34439     -0.13355886     0.0013252038 
 104150000  -36.269436      471.29826      435.02882      295.5342       0.058154005    0.0013252038 
 104160000  -12.910785      494.91074      481.99995      310.34074     -0.013643935    0.0013252038 
 104170000  -24.405551      461.1414       436.73585      289.1652       0.0044779317   0.0013252038 
 104180000  -17.005751      499.36757      482.36182      313.13546     -0.029476501    0.0013252038 
 104190000  -26.791242      472.954        446.16276      296.57246     -0.069788001    0.0013252038 
 104200000  -1.9307888      501.81532      499.88453      314.67035      0.040857129    0.0013252038 
 104210000  -8.7184971      466.61287      457.89437      292.59617      0.0090271208   0.0013252038 
 104220000   6.996741       467.59324      474.58998      293.21092      0.045873843    0.0013252038 
 104230000  -26.363121      462.45727      436.09415      289.99034     -0.069197676    0.0013252038 
 104240000  -74.163612      463.67764      389.51403      290.75559      0.10578148     0.0013252038 
 104250000  -11.930185      489.36611      477.43592      306.8639      -0.010319432    0.0013252038 
 104260000  -36.798273      472.24702      435.44875      296.12914     -0.0071020817   0.0013252038 
 104270000  -14.186898      467.60542      453.41853      293.21856      0.042588961    0.0013252038 
 104280000  -12.116318      483.82969      471.71337      303.39221      0.10001541     0.0013252038 
 104290000  -21.351925      464.16789      442.81596      291.063        0.061849758    0.0013252038 
 104300000  -17.930666      478.21013      460.27946      299.86839     -0.00097214668  0.0013252038 
 104310000  -44.036038      463.7532       419.71716      290.80297      0.049895438    0.0013252038 
 104320000   10.894764      453.27632      464.17109      284.2333       0.059456801    0.0013252038 
 104330000   2.9884789      485.52253      488.51101      304.45373     -0.031794685    0.0013252038 
 104340000  -15.852786      488.98886      473.13607      306.62734      0.020402808    0.0013252038 
 104350000  -7.2384683      499.33661      492.09814      313.11605      0.056232587    0.0013252038 
 104360000  -17.848548      476.44951      458.60097      298.76437     -0.039968835    0.0013252038 
 104370000  -3.245421       481.74899      478.50356      302.08748     -0.032273916    0.0013252038 
 104380000  -18.587002      493.41063      474.82363      309.40008      0.085737565    0.0013252038 
 104390000  -53.510853      485.77238      432.26153      304.61041      0.11316701     0.0013252038 
 104400000  -31.906722      457.93874      426.03202      287.15693      0.040552413    0.0013252038 
 104410000  -3.8591915      476.28935      472.43016      298.66394     -0.058880568    0.0013252038 
 104420000  -34.872411      484.18745      449.31504      303.61655      0.062019591    0.0013252038 
 104430000  -10.216364      466.70695      456.49059      292.65516      0.033620458    0.0013252038 
 104440000   3.4920991      463.17481      466.66691      290.44028     -0.0068333939   0.0013252038 
 104450000  -18.875962      454.8254       435.94944      285.20467      0.026887209    0.0013252038 
 104460000  -27.888074      489.30568      461.41761      306.82601      0.050940106    0.0013252038 
 104470000  -3.9135138      481.64727      477.73375      302.02369     -0.01132723     0.0013252038 
 104480000   4.4405757      497.87669      502.31727      312.20059      0.013935964    0.0013252038 
 104490000   4.5623211      474.97958      479.5419       297.84263      0.021627207    0.0013252038 
 104500000   22.324756      451.72708      474.05184      283.26182      0.097937774    0.0013252038 
 104510000   15.260934      499.40104      514.66197      313.15645      0.036918116    0.0013252038 
 104520000   7.2296707      485.10067      492.33034      304.1892       0.022467545    0.0013252038 
 104530000  -23.746405      464.52678      440.78038      291.28805     -0.082650601    0.0013252038 
 104540000   15.174868      492.28588      507.46075      308.69479      0.073470377    0.0013252038 
 104550000   9.1350854      468.13434      477.26942      293.55022      0.037011242    0.0013252038 
 104560000  -8.2023112      500.24764      492.04533      313.68732     -0.03401752     0.0013252038 
 104570000   13.671154      467.68009      481.35125      293.26538      0.02434117     0.0013252038 
 104580000   13.523803      483.92093      497.44473      303.44943      0.089768952    0.0013252038 
 104590000   6.798174       494.94833      501.7465       310.36431      0.055686392    0.0013252038 
 104600000   38.789769      482.90171      521.69148      302.81031      0.0027119415   0.0013252038 
 104610000   16.27157       437.24953      453.5211       274.18347     -0.057515072    0.0013252038 
 104620000   23.247273      502.12849      525.37576      314.86673      0.042075259    0.0013252038 
 104630000   36.385486      459.94917      496.33466      288.4176       0.00020213566  0.0013252038 
 104640000   5.9392922      494.48244      500.42173      310.07217      0.04021039     0.0013252038 
 104650000   25.622667      463.53281      489.15548      290.66477      0.019640645    0.0013252038 
 104660000   50.743845      485.94266      536.68651      304.71718     -0.048277995    0.0013252038 
 104670000   30.592368      469.23707      499.82944      294.24171     -0.061887254    0.0013252038 
 104680000   35.72866       502.86068      538.58934      315.32586     -0.036840816    0.0013252038 
 104690000   22.635337      461.95429      484.58962      289.67493     -0.043283816    0.0013252038 
 104700000   8.6216994      479.73513      488.35683      300.82466     -0.039103662    0.0013252038 
 104710000   28.634088      505.28997      533.92406      316.84918     -0.018727404    0.0013252038 
 104720000  -10.677408      474.79341      464.116        297.72589     -0.017212923    0.0013252038 
 104730000   0.31877134     502.00289      502.32166      314.78798      0.090462175    0.0013252038 
 104740000   6.3306197      481.43484      487.76546      301.89049     -0.0074333942   0.0013252038 
 104750000  -16.949613      469.10659      452.15698      294.15989     -0.0048281406   0.0013252038 
 104760000  -9.5978008      496.4555       486.8577       311.3094      -0.0057500427   0.0013252038 
 104770000   23.837619      466.67118      490.5088       292.63273      0.031437906    0.0013252038 
 104780000   17.303286      497.91803      515.22132      312.22651      0.055725945    0.0013252038 
 104790000   21.743816      477.61698      499.36079      299.49644     -0.058376178    0.0013252038 
 104800000   41.76306       469.64518      511.40824      294.49762     -0.011014059    0.0013252038 
 104810000   15.999234      478.32514      494.32437      299.94051      0.083599049    0.0013252038 
 104820000  -8.0503574      467.4296       459.37924      293.1083      -0.088900743    0.0013252038 
 104830000  -23.660301      466.12661      442.46631      292.29125      0.018767157    0.0013252038 
 104840000  -4.309923       476.42566      472.11574      298.74942     -0.067606951    0.0013252038 
 104850000  -6.1005047      484.09937      477.99887      303.56132      0.027154972    0.0013252038 
 104860000   2.1746437      461.73656      463.9112       289.53841      0.12413017     0.0013252038 
 104870000  -0.82514225     500.17005      499.34491      313.63867     -0.030853473    0.0013252038 
 104880000  -11.731106      445.72793      433.99682      279.49997     -0.044245266    0.0013252038 
 104890000   7.0632891      489.48679      496.55008      306.93958      0.073918182    0.0013252038 
 104900000  -13.375097      519.39341      506.01831      325.69294      0.1027278      0.0013252038 
 104910000  -32.481782      466.1485       433.66672      292.30497     -0.094657184    0.0013252038 
 104920000  -10.973676      479.73975      468.76608      300.82756     -0.090776841    0.0013252038 
 104930000   41.747643      480.98517      522.73281      301.60852      0.13923151     0.0013252038 
 104940000  -15.294313      471.91721      456.6229       295.92233     -0.0053235922   0.0013252038 
 104950000   13.48697       484.92337      498.41034      304.07802      0.044807945    0.0013252038 
 104960000   12.061449      514.28555      526.347        322.48999     -0.0064095069   0.0013252038 
 104970000   22.520931      498.78535      521.30628      312.77037      0.050487411    0.0013252038 
 104980000   20.073238      465.39273      485.46597      291.83106     -0.013043129    0.0013252038 
 104990000   2.2925317      482.82561      485.11814      302.76259     -0.016032435    0.0013252038 
 105000000  -18.124719      493.2238       475.09908      309.28292      0.02912534     0.0013252038 
Loop time of 5677.41 on 8 procs for 100000000 steps with 536 atoms

Performance: 15218.202 ns/day, 0.002 hours/ns, 17613.659 timesteps/s, 9.441 Matom-step/s
99.3% CPU use with 8 MPI tasks x 1 OpenMP threads

MPI task timing breakdown:
Section |  min time  |  avg time  |  max time  |%varavg| %total
---------------------------------------------------------------
Pair    | 1092.8     | 1712.9     | 3053.5     |1667.3 | 30.17
Bond    | 159.62     | 231.15     | 365        | 459.1 |  4.07
Neigh   | 11.253     | 11.653     | 11.924     |   8.0 |  0.21
Comm    | 1983.7     | 3530.8     | 4265       |1343.4 | 62.19
Output  | 0.9809     | 1.8514     | 4.0025     |  69.7 |  0.03
Modify  | 97.961     | 146.57     | 223.79     | 337.2 |  2.58
Other   |            | 42.55      |            |       |  0.75

Nlocal:             67 ave         141 max          33 min
Histogram: 3 1 0 2 0 0 1 0 0 1
Nghost:          42.25 ave          65 max          23 min
Histogram: 2 1 1 0 0 1 0 1 1 1
Neighs:            263 ave         708 max          63 min
Histogram: 1 3 2 0 0 1 0 0 0 1

Total # of neighbors = 2104
Ave neighs/atom = 3.9253731
Ave special neighs/atom = 4.858209
Neighbor list builds = 194226
Dangerous builds = 0
System init for write_data ...
Generated 0 of 6 mixed pair_coeff terms from geometric mixing rule
Total wall time: 1:38:14
