LAMMPS (29 Aug 2024)
  using 1 OpenMP thread(s) per MPI task
  using 1 OpenMP thread(s) per MPI task
Reading data file ...
  orthogonal box = (-500.6 -500.6 -500.6) to (500.6 500.6 500.6)
  1 by 1 by 1 MPI processor grid
  reading atoms ...
  50 atoms
  scanning bonds ...
  1 = max bonds/atom
  scanning angles ...
  1 = max angles/atom
  orthogonal box = (-500.6 -500.6 -500.6) to (500.6 500.6 500.6)
  1 by 1 by 1 MPI processor grid
  reading bonds ...
  49 bonds
  reading angles ...
  48 angles
Finding 1-2 1-3 1-4 neighbors ...
  special bond factors lj:    0        0        0       
  special bond factors coul:  0        0        0       
     2 = max # of 1-2 neighbors
     2 = max # of 1-3 neighbors
     4 = max # of 1-4 neighbors
     6 = max # of special neighbors
  special bonds CPU = 0.000 seconds
  read_data CPU = 0.028 seconds
Finding 1-2 1-3 1-4 neighbors ...
  special bond factors lj:    0        0        1       
  special bond factors coul:  0        0        0       
     2 = max # of 1-2 neighbors
     2 = max # of 1-3 neighbors
     4 = max # of 1-4 neighbors
     6 = max # of special neighbors
  special bonds CPU = 0.000 seconds

CITE-CITE-CITE-CITE-CITE-CITE-CITE-CITE-CITE-CITE-CITE-CITE-CITE

Your simulation uses code contributions which should be cited:
- Type Label Framework: https://doi.org/10.1021/acs.jpcb.3c08419
The log file lists these citations in BibTeX format.

CITE-CITE-CITE-CITE-CITE-CITE-CITE-CITE-CITE-CITE-CITE-CITE-CITE

Generated 0 of 6 mixed pair_coeff terms from geometric mixing rule
Neighbor list info ...
  update: every = 10 steps, delay = 0 steps, check = yes
  max neighbors/atom: 2000, page size: 100000
  master list distance cutoff = 33
  ghost atom cutoff = 33
  binsize = 16.5, bins = 61 61 61
  2 neighbor lists, perpetual/occasional/extra = 2 0 0
  (1) pair lj/cut, perpetual, trim from (2)
      attributes: half, newton on, cut 25
      pair build: trim
      stencil: none
      bin: none
  (2) pair base/rna, perpetual
      attributes: half, newton on
      pair build: half/bin/newton
      stencil: half/bin/3d
      bin: standard
Setting up Verlet run ...
  Unit style    : real
  Current step  : 0
  Time step     : 10
Per MPI rank memory allocation (min/avg/max) = 8.368 | 8.368 | 8.368 Mbytes
   Step         PotEng         KinEng          Temp     
         0   65.797361      0              0            
     10000   24.50095       53.634288      367.208      
     20000   28.0186        48.381317      331.24345    
     30000   21.990893      35.540568      243.32906    
     40000   28.226539      56.515537      386.93452    
     50000   29.221491      53.192782      364.18522    
     60000   31.626815      47.425707      324.70086    
     70000   30.601502      52.997054      362.84517    
     80000   28.695189      49.905401      341.67812    
     90000   24.271254      48.383213      331.25643    
    100000   22.584723      41.739964      285.77332    
    110000   31.353406      43.059322      294.80633    
    120000   26.54564       40.556016      277.66741    
    130000   18.3851        48.272165      330.49614    
    140000   13.882201      59.428138      406.87569    
    150000   9.7169714      39.210204      268.45328    
    160000   9.8659891      46.51997       318.49971    
    170000   0.61542997     34.899741      238.94163    
    180000  -4.8468182      40.909594      280.08818    
    190000  -4.4829344      45.3975        310.8147     
    200000   9.9656733      37.506646      256.78984    
    210000   9.2599131      43.096652      295.06191    
    220000  -2.7408217      44.903113      307.42988    
    230000  -3.3100037      39.57849       270.97476    
    240000   3.8568954      43.414714      297.23953    
    250000   9.818071       44.123388      302.09147    
    260000   2.9519101      44.154171      302.30223    
    270000   3.3691478      46.870601      320.90031    
    280000   1.6332706      44.436538      304.23546    
    290000  -1.5107955      46.895714      321.07225    
    300000   16.200702      41.442079      283.73385    
    310000   18.693398      38.87894       266.18528    
    320000   5.7600108      47.166741      322.92784    
    330000   5.308715       45.228722      309.65916    
    340000   2.8175257      49.09125       336.10402    
    350000   12.67382       45.877103      314.09831    
    360000   10.404266      49.665499      340.03563    
    370000   8.7098368      40.524483      277.45151    
    380000   1.30223        40.947071      280.34477    
    390000   2.718362       49.894716      341.60496    
    400000   5.8467403      40.431277      276.81338    
    410000   4.5641177      41.765725      285.9497     
    420000  -1.6854104      43.235796      296.01456    
    430000   4.632608       37.017738      253.44253    
    440000   11.528723      45.577298      312.04569    
    450000  -7.2555157      46.305631      317.03224    
    460000   4.7881397      39.569358      270.91224    
    470000   5.7213105      48.022539      328.78708    
    480000   7.5436025      51.776051      354.48555    
    490000   8.8804703      40.952123      280.37936    
    500000  -4.2481537      42.386919      290.20271    
    510000   3.7644775      46.676277      319.56987    
    520000   11.376245      42.53891       291.24332    
    530000   12.405303      43.072732      294.89814    
    540000  -1.5529246      46.925091      321.27338    
    550000  -6.7133232      40.278783      275.76933    
    560000  -13.896123      42.310951      289.6826     
    570000   0.36142396     36.630783      250.79324    
    580000   6.9829299      36.303656      248.55356    
    590000  -0.95560936     43.675954      299.02811    
    600000  -8.8407064      50.876397      348.32606    
    610000   7.5903994      43.598635      298.49874    
    620000   9.0404565      43.064382      294.84097    
    630000   3.7677613      43.488651      297.74574    
    640000   6.5416629      41.222044      282.22738    
    650000   6.6378948      43.234929      296.00862    
    660000   5.0729357      44.53884       304.93588    
    670000   7.0081287      47.343483      324.1379     
    680000   10.741627      50.55693       346.13882    
    690000   13.570082      36.941387      252.91979    
    700000   8.5747643      42.683502      292.23327    
    710000   4.8276548      55.551593      380.33486    
    720000   11.987535      43.218548      295.89648    
    730000  -1.1494946      43.064324      294.84058    
    740000  -0.13077979     46.64021       319.32294    
    750000  -1.3892979      40.376077      276.43545    
    760000   6.9922397      38.879175      266.18689    
    770000   12.821288      46.540599      318.64095    
    780000   7.5535106      50.676593      346.9581     
    790000   2.2149485      46.562403      318.79023    
    800000  -2.2072229      39.576665      270.96226    
    810000  -8.6598973      54.461221      372.86961    
    820000   6.6189535      44.71559       306.146      
    830000   4.9967964      41.467221      283.90599    
    840000   14.120992      37.195274      254.65803    
    850000   7.2186567      45.498164      311.5039     
    860000   8.7479397      56.411556      386.22261    
    870000   5.3189225      57.546769      393.99486    
    880000   14.885518      42.373683      290.11209    
    890000   11.708474      40.648464      278.30035    
    900000   7.5920348      50.115595      343.11722    
    910000   5.1981592      46.983565      321.67372    
    920000   11.840138      43.889206      300.48814    
    930000   18.151009      47.519003      325.33961    
    940000   10.528559      44.784968      306.62099    
    950000   1.5970375      55.280869      378.48134    
    960000   8.862804       40.468956      277.07135    
    970000   1.3870388      35.861923      245.52922    
    980000  -0.15506139     52.826498      361.67745    
    990000   9.9685767      46.678908      319.58788    
   1000000  -4.2565772      48.793845      334.06783    
   1010000  -0.74471631     44.58895       305.27895    
   1020000  -0.70172679     46.805646      320.4556     
   1030000   10.823698      44.599178      305.34898    
   1040000  -2.5971894      47.879846      327.81013    
   1050000  -0.80606203     46.149737      315.96491    
   1060000   6.926056       44.78257       306.60458    
   1070000   8.7495268      45.414082      310.92823    
   1080000   12.04218       40.856805      279.72676    
   1090000  -4.1161591      39.858661      272.89295    
   1100000  -1.2826797      46.827369      320.60432    
   1110000   5.6782959      38.642632      264.56739    
   1120000  -2.5814352      36.269767      248.32154    
   1130000  -2.0985836      43.155206      295.4628     
   1140000  -3.5717197      41.487848      284.04721    
   1150000  -5.4754479      37.368494      255.84399    
   1160000  -1.6452818      45.300813      310.15273    
   1170000   13.718337      43.991758      301.19027    
   1180000   11.846304      46.05507       315.31677    
   1190000   10.651387      50.132987      343.23629    
   1200000   12.654643      38.544003      263.89213    
   1210000   7.1159751      44.198865      302.60823    
   1220000  -3.2352322      34.268699      234.62119    
   1230000  -2.0730908      39.16362       268.13434    
   1240000   1.3097666      41.745563      285.81166    
   1250000   4.879877       46.064604      315.38204    
   1260000   12.210417      44.182164      302.49389    
   1270000   15.602675      51.551654      352.94921    
   1280000   21.586067      42.883011      293.59922    
   1290000   11.013147      46.713226      319.82284    
   1300000   4.8528086      45.160707      309.1935     
   1310000   3.1632351      41.699158      285.49395    
   1320000   15.060875      36.441198      249.49524    
   1330000   10.76121       49.994195      342.28605    
   1340000   3.1035959      58.820186      402.71334    
   1350000   0.38721912     48.802812      334.12922    
   1360000   5.1125272      38.395751      262.87712    
   1370000   8.6394997      47.250845      323.50366    
   1380000   4.0815597      47.149736      322.81141    
   1390000   4.4475695      49.503586      338.92709    
   1400000   7.8811451      43.384433      297.03221    
   1410000   12.6846        39.978012      273.71009    
   1420000   1.6192051      41.505659      284.16915    
   1430000   9.0932204      44.871946      307.21649    
   1440000  -1.0152247      55.45619       379.68168    
   1450000  -5.0701924      34.913168      239.03356    
   1460000  -10.157694      43.944741      300.86836    
   1470000  -16.656695      43.088915      295.00894    
   1480000  -5.346599       44.172626      302.42858    
   1490000   4.0138079      47.02282       321.94248    
   1500000   3.9742187      41.55654       284.51751    
   1510000  -11.586495      57.875791      396.24752    
   1520000  -2.4532473      48.697353      333.4072     
   1530000  -6.6879882      40.422908      276.75608    
   1540000   4.8375809      46.950758      321.44911    
   1550000  -1.6622163      59.853769      409.78978    
   1560000   13.783784      48.118093      329.44129    
   1570000   12.824442      38.622072      264.42663    
   1580000  -4.7205878      50.040598      342.60375    
   1590000  -5.8875084      39.077921      267.5476     
   1600000  -11.60107       40.439184      276.86752    
   1610000  -10.78352       34.125145      233.63835    
   1620000  -8.7831271      39.547906      270.76536    
   1630000  -7.6832437      46.238955      316.57574    
   1640000  -2.6979457      43.705426      299.22989    
   1650000  -5.7526224      46.360661      317.409      
   1660000   0.56309462     40.576544      277.80796    
   1670000   3.7992835      39.018319      267.13954    
   1680000   1.2524081      43.467688      297.60221    
   1690000   5.7274699      53.470875      366.0892     
   1700000   9.1217309      54.454989      372.82694    
   1710000  -1.0243006      42.089417      288.16586    
   1720000  -6.2874307      43.255812      296.1516     
   1730000   4.6069097      44.185001      302.51331    
   1740000  -8.408797       50.202554      343.71258    
   1750000  -0.28269775     39.249641      268.72329    
   1760000  -8.3627374      38.056361      260.55348    
   1770000  -12.208638      43.306025      296.49539    
   1780000  -10.34791       43.904426      300.59235    
   1790000  -2.7687878      42.506151      291.01904    
   1800000   4.3779736      48.26753       330.46441    
   1810000  -3.3222157      39.378846      269.60789    
   1820000   5.7226383      42.501588      290.9878     
   1830000   9.3970583      43.218017      295.89284    
   1840000   11.216285      48.879524      334.65443    
   1850000   12.148959      40.981157      280.57814    
   1860000   11.741351      50.832774      348.02739    
   1870000   11.645796      37.295732      255.34582    
   1880000   8.9443495      45.408131      310.88749    
   1890000   12.128968      52.0255        356.19341    
   1900000   28.095938      40.269751      275.70749    
   1910000   16.086758      41.924525      287.03692    
   1920000   2.4525001      48.294404      330.6484     
   1930000   2.3782988      42.413828      290.38695    
   1940000   5.2804334      43.501405      297.83306    
   1950000   8.3999976      39.580172      270.98628    
   1960000   16.559689      40.106331      274.58863    
   1970000   9.3807801      44.500832      304.67565    
   1980000   11.774805      42.007729      287.60658    
   1990000  -2.4932127      46.173912      316.13042    
   2000000  -4.0238726      41.984928      287.45047    
   2010000  -0.88213292     36.217872      247.96623    
   2020000  -3.0777499      32.131547      219.98915    
   2030000  -10.068319      39.853465      272.85738    
   2040000  -6.1369089      41.329097      282.96032    
   2050000   1.5520788      39.330748      269.27859    
   2060000   6.2997284      34.983862      239.51756    
   2070000  -4.3669273      59.240867      405.59354    
   2080000   5.2919883      34.269041      234.62353    
   2090000   6.9153578      43.870402      300.3594     
   2100000  -0.26008693     38.742301      265.24978    
   2110000  -5.5011306      42.013492      287.64604    
   2120000   3.179178       47.143324      322.76751    
   2130000   0.13012965     40.157202      274.93692    
   2140000   2.3309238      40.71044       278.72467    
   2150000   5.2139914      43.63406       298.74129    
   2160000   5.1813675      47.978532      328.48578    
   2170000   8.4211824      52.115181      356.80741    
   2180000   20.628348      40.691255      278.59332    
   2190000   16.736378      47.971176      328.43542    
   2200000   11.908017      41.891831      286.81309    
   2210000   10.241616      49.673493      340.09036    
   2220000   4.2169624      46.043282      315.23606    
   2230000   0.12477708     52.921948      362.33096    
   2240000  -4.7293539      40.89909       280.01627    
   2250000   4.143293       42.305012      289.64193    
   2260000   8.8088477      42.155244      288.61655    
   2270000   0.12889759     45.405769      310.87132    
   2280000  -5.6145006      44.676833      305.88065    
   2290000  -6.4752755      43.692295      299.13999    
   2300000   2.2550807      46.448985      318.01371    
   2310000  -1.3279343      42.867898      293.49575    
   2320000  -4.3243903      45.076825      308.61919    
   2330000   1.6815672      42.122624      288.39321    
   2340000   16.786676      46.319509      317.12725    
   2350000   9.1872894      47.516989      325.32582    
   2360000  -2.6067019      43.640704      298.78677    
   2370000  -3.1625063      48.898076      334.78145    
   2380000  -4.0644146      45.020666      308.2347     
   2390000  -4.1164125      43.31852       296.58093    
   2400000  -12.354605      41.088661      281.31417    
   2410000  -6.4281817      39.80945       272.55603    
   2420000  -10.219311      36.695563      251.23676    
   2430000  -6.3440514      42.531964      291.19577    
   2440000   5.938201       38.287269      262.13439    
   2450000   1.4672982      46.206484      316.35342    
   2460000   3.6187989      50.599933      346.43324    
   2470000   3.1894843      47.004071      321.81412    
   2480000   10.507015      48.495903      332.02797    
   2490000   11.123308      43.75139       299.54459    
   2500000   9.6948534      50.273111      344.19565    
   2510000   19.901118      40.701345      278.66241    
   2520000   8.6975554      50.565467      346.19727    
   2530000   3.8000023      57.50334       393.69753    
   2540000   5.6115456      50.819941      347.93953    
   2550000   7.6735985      41.671029      285.30136    
   2560000   7.966353       40.379755      276.46063    
   2570000   8.1976373      45.719078      313.0164     
   2580000   9.9457726      49.506787      338.949      
   2590000   0.82452295     46.167249      316.0848     
   2600000   9.5980817      41.122517      281.54596    
   2610000  -0.70233955     35.552227      243.40889    
   2620000  -6.2476571      51.791551      354.59168    
   2630000  -2.7261745      46.201629      316.32019    
   2640000   6.8259229      41.505842      284.17041    
   2650000  -8.7453944      42.564558      291.41892    
   2660000  -4.9254321      41.100657      281.3963     
   2670000  -5.071916       48.08073       329.18548    
   2680000   1.9335409      45.815894      313.67924    
   2690000  -1.6512407      51.470852      352.396      
   2700000   1.0403788      44.077952      301.78039    
   2710000   4.5439048      49.448222      338.54803    
   2720000   10.560176      41.210097      282.14558    
   2730000   12.585405      50.748522      347.45056    
   2740000   11.400934      49.1638        336.60074    
   2750000   10.187675      41.970037      287.34852    
   2760000   6.0201297      43.655275      298.88653    
   2770000   4.4575481      37.48441       256.63761    
   2780000   3.5516256      46.748268      320.06276    
   2790000   16.389549      45.16406       309.21646    
   2800000   7.9012611      55.31989       378.7485     
   2810000   13.131093      46.334123      317.22731    
   2820000   7.1899416      47.151048      322.8204     
   2830000   11.13059       54.894744      375.83774    
   2840000   6.3944679      50.881909      348.36379    
   2850000  -3.5969592      44.775186      306.55402    
   2860000   0.6001262      37.244524      254.99523    
   2870000   3.6554243      37.840651      259.07662    
   2880000   5.3740498      54.305398      371.80277    
   2890000   4.8019306      52.394462      358.71951    
   2900000   10.736314      46.249101      316.64521    
   2910000   13.045865      43.73347       299.4219     
   2920000   12.812164      55.458299      379.69612    
   2930000   15.677592      42.726616      292.52845    
   2940000   14.78003       52.926475      362.36195    
   2950000   14.127898      40.386057      276.50378    
   2960000   12.741367      43.989505      301.17485    
   2970000   14.881486      44.979849      307.95525    
   2980000   7.7167564      49.610853      339.66149    
   2990000   12.826661      45.947654      314.58134    
   3000000   4.7523775      49.484064      338.79343    
   3010000   4.7136833      44.236594      302.86654    
   3020000   14.536469      47.470657      325.0086     
   3030000   6.5416023      60.690491      415.51841    
   3040000   8.9336495      47.211795      323.2363     
   3050000  -5.2040769      46.421773      317.8274     
   3060000  -14.059602      49.009756      335.54607    
   3070000  -7.7127862      46.261692      316.73141    
   3080000   10.367318      41.56964       284.6072     
   3090000   14.314445      37.568981      257.21663    
   3100000   15.931809      43.61214       298.59121    
   3110000   6.8414749      49.78168       340.83106    
   3120000   3.6900683      45.51662       311.63026    
   3130000   12.296716      47.380241      324.38957    
   3140000   3.2895552      48.076241      329.15475    
   3150000   5.3540601      38.814175      265.74187    
   3160000   5.5316077      47.977011      328.47537    
   3170000   4.4718815      38.314725      262.32237    
   3180000  -0.12822162     43.00853       294.45859    
   3190000  -6.3416884      38.504799      263.62372    
   3200000  -4.2287669      40.304834      275.94769    
   3210000   1.1933866      46.500242      318.36464    
   3220000   7.9732782      42.87576       293.54957    
   3230000   7.4407681      49.597454      339.56976    
   3240000   2.4764209      44.121842      302.08089    
   3250000   2.7287022      46.434311      317.91324    
   3260000   12.325656      50.433453      345.29343    
   3270000   0.11155496     51.952506      355.69366    
   3280000  -14.166089      52.50723       359.49158    
   3290000   2.8555663      42.553744      291.34488    
   3300000   0.76741289     46.262313      316.73566    
   3310000   10.313865      42.796665      293.00804    
   3320000   8.01263        51.560174      353.00755    
   3330000  -0.21560623     51.357716      351.62142    
   3340000   15.410282      43.32348       296.61489    
   3350000   17.844749      45.031542      308.30917    
   3360000   13.209538      45.618673      312.32897    
   3370000   2.2799068      48.162511      329.7454     
   3380000   1.5351022      42.977014      294.24281    
   3390000  -5.6270198      42.643856      291.96183    
   3400000  -3.0376994      46.018004      315.06299    
   3410000  -6.1431207      44.478715      304.52422    
   3420000  -4.0682405      45.253106      309.82611    
   3430000  -7.4052757      48.325856      330.86374    
   3440000  -3.8493523      50.069863      342.80411    
   3450000   2.5887545      47.734774      326.81689    
   3460000  -2.8490798      44.091812      301.87529    
   3470000  -15.116985      38.151026      261.20161    
   3480000  -6.1350433      35.953101      246.15348    
   3490000  -6.7850856      43.829834      300.08165    
   3500000  -4.4111118      46.843669      320.71592    
   3510000   12.180396      42.846751      293.35096    
   3520000   4.5400766      50.25049       344.04078    
   3530000   4.782315       47.3254        324.0141     
   3540000   13.961615      49.493943      338.86106    
   3550000   10.662773      41.281749      282.63615    
   3560000   8.743648       49.770455      340.75421    
   3570000   4.4566864      46.733284      319.96017    
   3580000   6.9496694      40.304177      275.94318    
   3590000   2.1484241      34.433051      235.74643    
   3600000   8.1378041      41.37259       283.25809    
   3610000   5.1033364      47.671855      326.38611    
   3620000   7.630115       36.888883      252.56032    
   3630000   10.987543      39.638756      271.38737    
   3640000   8.087438       38.6139        264.37068    
   3650000   1.770794       40.985306      280.60655    
   3660000   7.9190359      36.83162       252.16827    
   3670000   6.8764085      40.566968      277.74239    
   3680000   1.5324602      46.273721      316.81376    
   3690000  -2.995415       37.00146       253.33108    
   3700000   2.4233892      38.709968      265.02841    
   3710000   1.7661431      38.637425      264.53174    
   3720000  -4.2184871      47.772993      327.07855    
   3730000   0.86781232     42.386427      290.19934    
   3740000   2.7431124      41.667535      285.27744    
   3750000   2.7400809      49.254778      337.22362    
   3760000   9.091017       43.225613      295.94485    
   3770000   5.6855027      44.285748      303.20308    
   3780000   0.66956125     43.538376      298.08618    
   3790000   8.6631293      46.819326      320.54926    
   3800000   4.2846206      41.608891      284.87593    
   3810000   14.166664      43.255286      296.148      
   3820000   3.8415389      44.344722      303.60684    
   3830000   5.0937653      39.011782      267.09479    
   3840000  -1.6677086      42.672933      292.16091    
   3850000  -7.4441445      36.609822      250.64973    
   3860000  -4.5910319      45.960197      314.66722    
   3870000  -0.62948124     46.664636      319.49017    
   3880000  -0.51407544     48.675104      333.25487    
   3890000  -2.0514216      42.859764      293.44006    
   3900000   8.2126102      36.404464      249.24374    
   3910000   3.0403159      40.594464      277.93064    
   3920000   10.029895      41.690571      285.43516    
   3930000  -7.959444       37.316085      255.48517    
   3940000  -1.0493945      43.444686      297.44473    
   3950000  -13.438734      50.076023      342.84629    
   3960000  -6.9765575      37.078403      253.85787    
   3970000   2.2425819      43.862675      300.3065     
   3980000   7.3688903      39.115186      267.80274    
   3990000   12.227221      46.257021      316.69942    
   4000000   8.6672106      43.841817      300.1637     
Loop time of 88.6971 on 1 procs for 4000000 steps with 50 atoms

Performance: 38964.058 ns/day, 0.001 hours/ns, 45097.289 timesteps/s, 2.255 Matom-step/s
99.2% CPU use with 1 MPI tasks x 1 OpenMP threads

MPI task timing breakdown:
Section |  min time  |  avg time  |  max time  |%varavg| %total
---------------------------------------------------------------
Pair    | 71.199     | 71.199     | 71.199     |   0.0 | 80.27
Bond    | 9.4964     | 9.4964     | 9.4964     |   0.0 | 10.71
Neigh   | 1.1808     | 1.1808     | 1.1808     |   0.0 |  1.33
Comm    | 1.6591     | 1.6591     | 1.6591     |   0.0 |  1.87
Output  | 0.066953   | 0.066953   | 0.066953   |   0.0 |  0.08
Modify  | 4.5129     | 4.5129     | 4.5129     |   0.0 |  5.09
Other   |            | 0.5823     |            |       |  0.66

Nlocal:             50 ave          50 max          50 min
Histogram: 1 0 0 0 0 0 0 0 0 0
Nghost:              0 ave           0 max           0 min
Histogram: 1 0 0 0 0 0 0 0 0 0
Neighs:            313 ave         313 max         313 min
Histogram: 1 0 0 0 0 0 0 0 0 0

Total # of neighbors = 313
Ave neighs/atom = 6.26
Ave special neighs/atom = 5.76
Neighbor list builds = 8546
Dangerous builds = 0
Generated 0 of 6 mixed pair_coeff terms from geometric mixing rule
Setting up Verlet run ...
  Unit style    : real
  Current step  : 4000000
  Time step     : 10
Per MPI rank memory allocation (min/avg/max) = 9.625 | 9.625 | 9.625 Mbytes
   Step         PotEng         KinEng          Temp     
   4000000   8.6672106      43.841817      300.1637     
   4010000   16.124016      44.619197      305.48604    
   4020000   13.966585      45.030628      308.30291    
   4030000   4.4732852      48.573598      332.55991    
   4040000   1.2290771      44.323755      303.46329    
   4050000  -0.21435897     37.310636      255.44786    
   4060000   0.70973047     39.254177      268.75434    
   4070000  -8.8356147      54.248722      371.41474    
   4080000   6.9810146      38.756548      265.34732    
   4090000   2.9659785      51.01026       349.24255    
   4100000  -4.5858129      45.082821      308.66025    
   4110000  -3.3673883      36.613345      250.67385    
   4120000   3.3872931      41.383489      283.33271    
   4130000   5.7861803      33.518183      229.48277    
   4140000  -3.4737348      43.400719      297.14371    
   4150000   4.8470798      45.933852      314.48685    
   4160000   5.1513179      42.904038      293.74318    
   4170000   18.366874      48.267         330.46078    
   4180000   11.415998      48.852958      334.47255    
   4190000   7.8339125      47.190813      323.09265    
   4200000  -2.2945204      45.029876      308.29776    
   4210000  -2.1195571      48.558475      332.45637    
   4220000   9.245738       41.283397      282.64743    
   4230000   3.202494       45.94685       314.57583    
   4240000   3.8042039      53.407974      365.65854    
   4250000   6.2084103      46.081149      315.49532    
   4260000   5.6739552      35.604976      243.77004    
   4270000   8.0646857      44.782832      306.60637    
   4280000   13.374633      49.270799      337.3333     
   4290000   7.7229427      46.364781      317.43721    
   4300000   6.1491048      50.298081      344.36661    
   4310000   9.7857992      43.092926      295.0364     
   4320000  -1.4565549      40.960328      280.43554    
   4330000  -1.1239713      42.032         287.77275    
   4340000   0.45135746     41.693849      285.4576     
   4350000  -2.3303029      49.511623      338.98211    
   4360000   7.3324355      48.586792      332.65024    
   4370000   9.2128727      43.84314       300.17275    
   4380000   5.0260542      48.941134      335.07625    
   4390000   0.61743467     40.701592      278.6641     
   4400000   0.62774767     43.256719      296.15781    
   4410000   2.19504        42.839125      293.29875    
   4420000  -5.7010245      48.600524      332.74426    
   4430000  -6.1406013      51.519528      352.72927    
   4440000   4.4663669      43.759621      299.60094    
   4450000   6.6503346      44.443025      304.27988    
   4460000   14.226186      38.306097      262.2633     
   4470000   22.786885      42.755888      292.72887    
   4480000   8.4149217      39.498379      270.42628    
   4490000   7.8085616      39.52971       270.64079    
   4500000   10.911147      50.496512      345.72517    
   4510000   8.2555638      51.681688      353.8395     
   4520000  -1.9640327      45.515568      311.62306    
   4530000   6.3705388      42.458747      290.69448    
   4540000   12.632367      42.034724      287.79141    
   4550000   3.7206139      54.281308      371.63784    
   4560000   9.8224326      38.624417      264.44268    
   4570000   1.0629684      59.217603      405.43426    
   4580000   13.806782      39.277004      268.91063    
   4590000   17.098344      40.785422      279.23803    
   4600000   6.5694224      48.525597      332.23127    
   4610000   10.623303      42.718829      292.47514    
   4620000   9.1355047      41.012062      280.78973    
   4630000   0.36449146     44.720344      306.17855    
   4640000   17.181964      46.894609      321.06468    
   4650000   18.105157      43.273137      296.27022    
   4660000   15.186209      45.072381      308.58877    
   4670000   5.6234168      54.780932      375.05852    
   4680000   17.925911      50.468413      345.53279    
   4690000   17.052694      50.56          346.15984    
   4700000   14.702507      46.241216      316.59122    
   4710000   8.9722425      50.317927      344.50248    
   4720000   14.038638      51.559291      353.0015     
   4730000   16.703289      48.725535      333.60015    
   4740000   10.529892      52.335357      358.31485    
   4750000   15.276696      53.931536      369.24311    
   4760000   12.871001      53.881282      368.89905    
   4770000   15.103256      59.647372      408.37668    
   4780000   9.9726435      57.156194      391.32079    
   4790000  -0.75510634     45.779319      313.42883    
   4800000   4.9561993      49.356917      337.92292    
   4810000   6.0450944      44.619024      305.48486    
   4820000   13.320343      46.748449      320.06399    
   4830000   6.1614331      54.927623      376.06284    
   4840000   10.035531      42.37514       290.12206    
   4850000   4.9828429      37.111638      254.08542    
   4860000  -0.67082264     44.172014      302.4244     
   4870000   16.082021      46.254453      316.68185    
   4880000   21.761614      39.024161      267.17953    
   4890000   5.3855779      50.647438      346.75849    
   4900000   5.4958876      44.82189       306.87378    
   4910000   10.456231      54.16887       370.86803    
   4920000   23.593545      59.66231       408.47895    
   4930000   16.09771       41.764357      285.94033    
   4940000   2.6772242      48.064426      329.07385    
   4950000   13.460191      44.247907      302.94399    
   4960000   8.2627248      41.466968      283.90426    
   4970000   5.4630945      52.554755      359.81696    
   4980000   6.3015598      44.358372      303.7003     
   4990000   13.556314      45.300429      310.1501     
   5000000   19.401174      41.86533       286.63165    
   5010000   23.652618      44.307722      303.35352    
   5020000   17.604409      35.862234      245.53135    
   5030000  -4.7481847      38.17683       261.37827    
   5040000   8.3346725      42.833494      293.2602     
   5050000   2.4298756      45.858376      313.9701     
   5060000   12.000971      45.201875      309.47535    
   5070000   2.9614701      43.452323      297.49702    
   5080000   4.3924109      46.834434      320.6527     
   5090000   1.8650767      49.862743      341.38606    
   5100000   2.1348537      45.190592      309.3981     
   5110000   7.9358468      45.380766      310.70013    
   5120000   11.067255      46.024339      315.10637    
   5130000  -6.4645261      52.142591      356.99508    
   5140000  -5.6161621      50.743595      347.41683    
   5150000   5.8519461      52.956606      362.56824    
   5160000   19.008997      50.793914      347.76134    
   5170000   15.335869      47.673162      326.39506    
   5180000   18.009855      40.863653      279.77365    
   5190000   12.96122       54.141306      370.67931    
   5200000   6.2563474      45.582149      312.07891    
   5210000   2.3802139      49.661401      340.00757    
   5220000   23.259541      55.487325      379.89485    
   5230000   7.9434143      53.908828      369.08765    
   5240000   6.0285169      54.113114      370.48629    
   5250000   8.4848038      54.831799      375.40678    
   5260000   9.8355535      50.186706      343.60408    
   5270000   15.939592      55.78321       381.92063    
   5280000   27.08052       47.38425       324.41702    
   5290000   7.3251406      42.110837      288.31251    
   5300000   8.9816293      46.937206      321.35632    
   5310000   16.941616      47.630879      326.10557    
   5320000   1.5205274      48.274831      330.5144     
   5330000   13.461048      40.173656      275.04957    
   5340000   6.0903576      56.903162      389.5884     
   5350000   7.1896198      51.040394      349.44887    
   5360000   10.34448       52.625777      360.30322    
   5370000   13.00703       45.523123      311.67478    
   5380000   13.607068      45.550895      311.86493    
   5390000   5.9519046      46.235213      316.55012    
   5400000   1.4609732      50.464969      345.50921    
   5410000   10.309481      53.339012      365.18639    
   5420000   7.0028095      46.574876      318.87563    
   5430000   8.5915747      50.384503      344.9583     
   5440000   0.89909882     42.65107       292.01123    
   5450000   7.0965394      43.519876      297.95952    
   5460000   4.9157759      37.193694      254.64722    
   5470000  -2.1865108      39.039661      267.28566    
   5480000   6.9488596      47.791054      327.20221    
   5490000   16.380826      55.651841      381.02121    
   5500000   18.43114       56.651533      387.86562    
   5510000   18.678105      57.569774      394.15237    
   5520000   14.618298      55.087812      377.15958    
   5530000   16.197918      62.523415      428.06755    
   5540000   13.756753      59.623448      408.21288    
   5550000   19.146454      48.18143       329.87493    
   5560000   6.1752627      66.015123      451.97359    
   5570000   22.003839      44.78087       306.59293    
   5580000   34.572239      40.823325      279.49754    
   5590000   26.261084      44.361277      303.72019    
   5600000   29.605602      52.928466      362.37558    
   5610000   30.076322      56.778485      388.7348     
   5620000   37.25379       41.802431      286.20101    
   5630000   32.40846       64.817511      443.77412    
   5640000   34.976846      53.043617      363.16397    
   5650000   28.761015      48.583137      332.62522    
   5660000   36.858198      53.439122      365.8718     
   5670000   31.729647      51.36243       351.65369    
   5680000   17.673685      55.103246      377.26525    
   5690000   11.665053      43.312971      296.54295    
   5700000   15.608946      44.750023      306.38174    
   5710000   16.911669      44.545484      304.98136    
   5720000   5.1904636      52.06055       356.43338    
   5730000   10.806357      50.870389      348.28493    
   5740000   10.167958      65.543913      448.74744    
   5750000   18.352984      52.716527      360.92454    
   5760000   14.788146      58.879386      403.11865    
   5770000   15.498918      45.233349      309.69084    
   5780000   28.37117       60.584254      414.79106    
   5790000   18.239889      53.216292      364.34619    
   5800000   18.971087      47.699521      326.57553    
   5810000   16.983705      53.577141      366.81675    
   5820000   3.2153347      56.863216      389.31491    
   5830000   7.615853       53.539742      366.56069    
   5840000  -0.034039573    53.068017      363.33102    
   5850000   14.479985      41.331652      282.97781    
   5860000   3.7341334      43.663249      298.94113    
   5870000   14.353663      44.915228      307.51282    
   5880000   11.347224      52.81665       361.61003    
   5890000   15.701375      51.210461      350.61324    
   5900000   11.520175      50.688017      347.03631    
   5910000   20.30535       51.508627      352.65463    
   5920000   6.2015132      46.820168      320.55502    
   5930000   3.5526737      51.098683      349.84794    
   5940000   17.673736      44.381445      303.85827    
   5950000  -4.2794204      50.48624       345.65484    
   5960000   18.00657       52.307712      358.12558    
   5970000   13.71387       54.619034      373.95009    
   5980000   13.857392      59.997936      410.77682    
   5990000   22.322281      53.875396      368.85875    
   6000000   9.3312379      48.791544      334.05208    
   6010000   5.4666494      50.980633      349.03971    
   6020000   18.119476      39.189803      268.31361    
   6030000   20.896759      47.020302      321.92524    
   6040000   35.031958      46.080977      315.49414    
   6050000   37.742617      49.135551      336.40733    
   6060000   37.380149      57.67656       394.88348    
   6070000   34.988588      47.8796        327.80844    
   6080000   27.091235      50.324014      344.54416    
   6090000   25.872902      57.546672      393.99421    
   6100000   36.856989      52.03714       356.27311    
   6110000   32.4356        59.044611      404.24987    
   6120000   28.595315      51.198049      350.52825    
   6130000   30.663632      59.564144      407.80685    
   6140000   29.710437      60.311134      412.92113    
   6150000   29.588902      55.014263      376.65602    
   6160000   34.154329      45.773097      313.38623    
   6170000   26.740145      51.0974        349.83916    
   6180000   32.263122      48.879295      334.65287    
   6190000   26.63489       46.730826      319.94334    
   6200000   24.540698      52.440742      359.03637    
   6210000   34.882046      42.867362      293.49208    
   6220000   21.675141      54.036574      369.96226    
   6230000   27.563841      50.210317      343.76573    
   6240000   27.107395      54.613465      373.91195    
   6250000   31.209872      48.396048      331.34431    
   6260000   16.679786      48.87013       334.59012    
   6270000   29.10816       56.562014      387.25273    
   6280000   23.18324       61.157415      418.71521    
   6290000   18.867403      51.458795      352.31346    
   6300000  -4.2859795      54.397901      372.43609    
   6310000   14.76133       55.518757      380.11005    
   6320000   25.757314      55.428196      379.49002    
   6330000   22.854016      54.013521      369.80443    
   6340000   24.352779      54.192376      371.02896    
   6350000   9.2591606      52.484061      359.33295    
   6360000   9.8088232      47.010239      321.85635    
   6370000   9.7970271      56.444426      386.44766    
   6380000   19.194355      45.276128      309.98373    
   6390000   30.43154       55.606878      380.71337    
   6400000   27.251525      67.623162      462.98305    
   6410000   15.396888      41.971201      287.35649    
   6420000   4.3455158      60.694347      415.54481    
   6430000   13.801015      46.711103      319.80831    
   6440000   18.180977      45.669628      312.67783    
   6450000   9.4391006      49.979641      342.1864     
   6460000   21.734553      50.688268      347.03803    
   6470000   17.379423      56.178109      384.62431    
   6480000   15.946031      55.381395      379.1696     
   6490000   14.988137      58.646092      401.5214     
   6500000   19.361975      49.722072      340.42295    
   6510000   13.810765      69.962006      478.99598    
   6520000   24.569675      62.802642      429.97928    
   6530000   24.319579      50.517604      345.86958    
   6540000   20.193276      51.371129      351.71325    
   6550000   37.73109       53.688224      367.57728    
   6560000   38.067163      66.629121      456.17733    
   6570000   38.56161       58.565939      400.97263    
   6580000   33.450348      42.98449       294.29399    
   6590000   43.496066      48.750028      333.76784    
   6600000   27.986808      48.153057      329.68067    
   6610000   33.880471      49.532861      339.12752    
   6620000   27.905903      49.315987      337.64269    
   6630000   24.76986       58.598114      401.19292    
   6640000   29.138509      54.984817      376.45442    
   6650000   29.548977      45.730115      313.09196    
   6660000   30.889749      56.528883      387.02589    
   6670000   35.312992      55.81698       382.15184    
   6680000   36.004046      48.119235      329.4491     
   6690000   40.518419      61.904943      423.83318    
   6700000   42.323445      63.305553      433.42247    
   6710000   28.25635       53.27565       364.75258    
   6720000   29.905865      53.82492       368.51317    
   6730000   37.247913      59.161133      405.04764    
   6740000   34.901763      51.169027      350.32956    
   6750000   25.829436      57.344079      392.60714    
   6760000   28.597462      51.269282      351.01595    
   6770000   34.163554      56.301448      385.46876    
   6780000   36.909282      56.967682      390.03013    
   6790000   23.390991      64.753294      443.33445    
   6800000   36.209265      57.252333      391.979      
   6810000   20.760375      61.733906      422.66216    
   6820000   26.788594      43.805231      299.91321    
   6830000   16.050529      44.338837      303.56655    
   6840000   13.401138      50.39669       345.04174    
   6850000   2.9992736      50.637906      346.69322    
   6860000   10.704917      55.140234      377.51849    
   6870000   24.8928        59.484396      407.26086    
   6880000   14.459288      60.805314      416.30454    
   6890000   16.828245      62.255666      426.23441    
   6900000   34.305368      56.330174      385.66543    
   6910000   25.134028      62.521318      428.0532     
   6920000   38.313112      53.924308      369.19363    
   6930000   27.269908      59.264208      405.75334    
   6940000   19.953901      64.191172      439.48588    
   6950000   26.435049      50.586157      346.33892    
   6960000   24.82392       57.912387      396.49808    
   6970000   18.197886      54.479636      372.99569    
   6980000   27.453237      63.568564      435.22318    
   6990000   16.222656      66.638445      456.24117    
   7000000   20.442207      57.55691       394.0643     
   7010000   16.235935      54.492795      373.08579    
   7020000   17.064325      47.867178      327.72339    
   7030000   18.360819      51.30472       351.25858    
   7040000   35.432347      49.302346      337.54929    
   7050000   21.422797      54.910865      375.94811    
   7060000   10.336766      58.374905      399.66472    
   7070000   28.301892      52.025912      356.19623    
   7080000   32.391007      48.105891      329.35775    
   7090000   35.188786      62.639876      428.8649     
   7100000   32.255886      59.993967      410.74965    
   7110000   34.675341      57.150985      391.28513    
   7120000   31.434366      52.28121       357.94413    
   7130000   25.831579      71.446703      489.16098    
   7140000   33.407915      55.438453      379.56025    
   7150000   40.473026      57.344851      392.61243    
   7160000   27.41373       63.941887      437.77914    
   7170000   35.201415      58.400284      399.83847    
   7180000   33.821031      48.612543      332.82655    
   7190000   33.869521      60.866511      416.72353    
   7200000   35.185233      52.291243      358.01282    
   7210000   36.140148      56.972842      390.06547    
   7220000   38.835121      58.086529      397.69034    
   7230000   35.038977      58.066865      397.55571    
   7240000   35.556512      53.930607      369.23676    
   7250000   33.986255      47.680933      326.44826    
   7260000   27.144138      60.021253      410.93646    
   7270000   41.838881      57.786603      395.63689    
   7280000   27.705732      73.645856      504.21752    
   7290000   32.744754      63.219795      432.83533    
   7300000   39.206806      64.499356      441.59587    
   7310000   46.883527      62.199765      425.85168    
   7320000   34.328227      63.744355      436.42674    
   7330000   35.396859      61.504713      421.09299    
   7340000   33.185242      59.097609      404.61272    
   7350000   37.894027      57.090141      390.86856    
   7360000   34.38764       58.385731      399.73883    
   7370000   30.41597       67.047321      459.04054    
   7380000   35.273338      54.62467       373.98867    
   7390000   40.480411      56.784565      388.77643    
   7400000   30.069583      59.970043      410.58585    
   7410000   36.676575      54.568069      373.60115    
   7420000   34.408112      62.984729      431.22594    
   7430000   41.280014      65.116525      445.82132    
   7440000   42.227389      59.566978      407.82626    
   7450000   35.704327      65.452023      448.11831    
   7460000   17.904912      51.698557      353.95499    
   7470000   12.929804      51.657998      353.6773     
   7480000   26.206332      51.231898      350.76       
   7490000   15.594005      60.184027      412.0509     
   7500000   23.506618      58.866728      403.03198    
   7510000   8.0601497      46.657404      319.44066    
   7520000   20.802929      49.894815      341.60564    
   7530000   26.118351      49.994552      342.28849    
   7540000   17.992008      58.716718      402.00494    
   7550000   23.144817      54.424003      372.6148     
   7560000   26.102075      52.684114      360.70262    
   7570000   29.640304      48.469737      331.84882    
   7580000   24.56647       59.029294      404.145      
   7590000   36.127905      62.364131      426.97701    
   7600000   35.46784       59.742367      409.02707    
   7610000   29.038885      58.538642      400.78574    
   7620000   24.56548       63.724646      436.2918     
   7630000   36.843498      53.319746      365.05449    
   7640000   34.082926      60.216053      412.27016    
   7650000   38.808632      63.113187      432.10543    
   7660000   36.309325      62.430134      427.4289     
   7670000   34.674728      65.132531      445.93091    
   7680000   32.571986      70.149921      480.28255    
   7690000   38.259867      58.727075      402.07585    
   7700000   39.901194      59.702958      408.75725    
   7710000   42.898437      63.964579      437.93451    
   7720000   33.685101      51.399222      351.90559    
   7730000   42.789199      62.209275      425.91679    
   7740000   33.961393      68.868934      471.51225    
   7750000   34.174745      64.081268      438.73342    
   7760000   41.535931      62.786484      429.86866    
   7770000   25.342519      69.684637      477.09697    
   7780000   42.163524      68.469604      468.77823    
   7790000   49.332168      65.403063      447.78311    
   7800000   41.105122      68.13989       466.52084    
   7810000   31.327368      67.02729       458.9034     
   7820000   35.449307      54.086488      370.30399    
   7830000   38.42231       54.113398      370.48824    
   7840000   30.543131      53.518072      366.41233    
   7850000   32.048098      49.550072      339.24535    
   7860000   35.694655      60.617579      415.01921    
   7870000   30.413839      67.657996      463.22154    
   7880000   33.074432      56.966428      390.02155    
   7890000   36.376529      50.266773      344.15226    
   7900000   39.200853      60.063928      411.22864    
   7910000   35.096758      48.706392      333.46908    
   7920000   33.530219      56.238511      385.03786    
   7930000   38.389382      56.264375      385.21494    
   7940000   28.119149      54.137673      370.65444    
   7950000   21.768654      54.834212      375.4233     
   7960000   17.870011      64.042556      438.46838    
   7970000   39.65552       80.480618      551.01183    
   7980000   46.146854      55.238001      378.18785    
   7990000   29.152454      63.987632      438.09234    
   8000000   41.335069      51.037391      349.42831    
   8010000   41.651243      65.266035      446.84494    
   8020000   43.026707      57.281015      392.17538    
   8030000   36.457039      57.085496      390.83676    
   8040000   46.287655      64.195705      439.51691    
   8050000   34.606042      70.613083      483.45359    
   8060000   32.409337      54.023747      369.87444    
   8070000   29.959856      67.477217      461.98384    
   8080000   31.246233      57.941579      396.69794    
   8090000   28.739556      65.212904      446.48118    
   8100000   38.784648      58.951498      403.61237    
   8110000   37.314743      61.694285      422.3909     
   8120000   38.317263      47.572403      325.70521    
   8130000   44.495671      56.426744      386.3266     
   8140000   36.871157      61.705436      422.46725    
   8150000   33.779618      59.926977      410.291      
   8160000   27.93803       62.599059      428.58545    
   8170000   40.85266       57.021136      390.39611    
   8180000   37.124086      64.84351       443.95212    
   8190000   38.852906      75.710024      518.34988    
   8200000   24.214405      64.996094      444.99679    
   8210000   30.325695      59.046008      404.25943    
   8220000   21.624175      56.956362      389.95264    
   8230000   28.045745      61.535997      421.30718    
   8240000   33.098217      57.616481      394.47215    
   8250000   27.989546      59.293198      405.95182    
   8260000   38.666326      61.420965      420.51961    
   8270000   42.31473       54.685296      374.40375    
   8280000   40.300286      78.675309      538.65175    
   8290000   41.945728      58.497388      400.5033     
   8300000   31.881038      69.430971      475.36024    
   8310000   32.101954      62.42098       427.36623    
   8320000   27.098375      61.509214      421.12381    
   8330000   24.872343      58.119895      397.91878    
   8340000   33.583265      63.861953      437.23187    
   8350000   30.85044       58.444613      400.14197    
   8360000   33.822694      58.319429      399.28489    
   8370000   30.538778      54.447027      372.77243    
   8380000   43.696818      60.275521      412.67731    
   8390000   23.940313      57.978242      396.94896    
   8400000   29.500233      44.52942       304.87138    
   8410000   30.113547      49.270915      337.3341     
   8420000   39.879692      60.203579      412.18476    
   8430000   36.243301      58.329871      399.35639    
   8440000   34.704263      54.888009      375.79162    
   8450000   46.967852      56.905849      389.60679    
   8460000   40.48573       56.849811      389.22313    
   8470000   51.661331      58.763488      402.32515    
   8480000   42.883098      60.732186      415.80387    
   8490000   34.549634      63.034265      431.5651     
   8500000   36.299791      69.043439      472.707      
   8510000   44.716506      57.318472      392.43183    
   8520000   36.190112      80.000618      547.7255     
   8530000   49.869432      70.696685      484.02598    
   8540000   39.807633      56.951922      389.92224    
   8550000   28.087367      58.675885      401.72538    
   8560000   24.808278      60.342391      413.13514    
   8570000   31.369732      70.996668      486.07981    
   8580000   30.548136      63.00611       431.37233    
   8590000   36.784056      72.108323      493.69078    
   8600000   40.022358      68.188631      466.85454    
   8610000   37.727881      46.163061      316.05613    
   8620000   41.802829      66.393515      454.56425    
   8630000   37.359098      71.588402      490.13113    
   8640000   37.14612       54.410296      372.52095    
   8650000   36.131384      54.231376      371.29597    
   8660000   34.683828      47.167783      322.93497    
   8670000   32.825533      58.117403      397.90172    
   8680000   37.535027      67.110686      459.47438    
   8690000   35.487138      61.247581      419.33253    
   8700000   39.368519      70.372942      481.80946    
   8710000   40.904726      67.583579      462.71205    
   8720000   46.558952      70.369812      481.78804    
   8730000   39.917584      61.453391      420.74162    
   8740000   31.720018      61.418963      420.5059     
   8750000   32.934831      55.866058      382.48785    
   8760000   46.958181      61.208103      419.06225    
   8770000   32.035465      54.552762      373.49635    
   8780000   34.531666      65.199924      446.39232    
   8790000   34.743413      64.380141      440.77966    
   8800000   32.270409      68.284639      467.51186    
   8810000   44.214659      52.078421      356.55573    
   8820000   32.219519      67.961935      465.30246    
   8830000   41.738446      60.410391      413.6007     
   8840000   47.039064      63.700971      436.12971    
   8850000   43.237266      69.146455      473.4123     
   8860000   44.33231       64.157797      439.25737    
   8870000   50.732774      59.246695      405.63344    
   8880000   43.006069      69.072907      472.90875    
   8890000   57.254062      55.871872      382.52766    
   8900000   42.723741      63.479622      434.61424    
   8910000   45.580902      73.491298      503.15934    
   8920000   42.389303      64.196466      439.52212    
   8930000   41.141706      82.864987      567.33645    
   8940000   35.781809      80.88375       553.77188    
   8950000   48.11532       67.78075       464.06198    
   8960000   35.619777      62.66156       429.01336    
   8970000   31.817891      66.796872      457.32584    
   8980000   26.013956      72.284707      494.89839    
   8990000   35.311392      53.865601      368.79169    
   9000000   35.609152      63.964645      437.93496    
   9010000   38.29499       72.104573      493.6651     
   9020000   48.248789      76.411304      523.1512     
   9030000   37.730014      63.89608       437.46552    
   9040000   42.851052      66.3239        454.08763    
   9050000   26.697158      66.422925      454.76561    
   9060000   31.894066      54.096289      370.3711     
   9070000   37.580583      66.647289      456.30172    
   9080000   42.477203      62.16819       425.6355     
   9090000   39.715629      46.209773      316.37594    
   9100000   34.236715      63.135338      432.25709    
   9110000   43.274184      64.418687      441.04356    
   9120000   42.170115      63.070452      431.81285    
   9130000   43.86748       65.984924      451.76683    
   9140000   45.649513      57.204171      391.64927    
   9150000   46.282187      65.094647      445.67153    
   9160000   63.428195      46.210188      316.37879    
   9170000   37.624149      73.057256      500.18766    
   9180000   36.387571      67.674306      463.33321    
   9190000   41.307596      62.204228      425.88223    
   9200000   49.661791      67.765591      463.95819    
   9210000   36.784801      60.941528      417.23714    
   9220000   34.854053      72.044669      493.25497    
   9230000   35.138821      66.4011        454.61618    
   9240000   42.103737      61.345112      420.00028    
   9250000   46.077454      67.933791      465.10978    
   9260000   46.334072      66.582576      455.85866    
   9270000   40.238674      61.875454      423.63128    
   9280000   43.094607      66.387987      454.5264     
   9290000   42.451139      73.18335       501.05097    
   9300000   47.047672      69.997726      479.24054    
   9310000   31.954626      64.175394      439.37785    
   9320000   46.301503      61.544078      421.36251    
   9330000   48.175388      62.503275      427.92967    
   9340000   38.480875      73.396668      502.51145    
   9350000   34.043737      67.744919      463.81666    
   9360000   49.492109      56.868601      389.35178    
   9370000   39.780445      58.389094      399.76186    
   9380000   31.646396      66.973736      458.53674    
   9390000   30.241744      64.154411      439.23419    
   9400000   40.070399      53.499587      366.28577    
   9410000   43.081393      65.754261      450.18759    
   9420000   50.749524      74.784194      512.01117    
   9430000   46.241499      78.452261      537.12465    
   9440000   36.735411      65.599372      449.12714    
   9450000   36.98168       65.105663      445.74696    
   9460000   37.861338      64.258276      439.94531    
   9470000   40.660941      70.77714       484.57681    
   9480000   32.097257      65.589523      449.05971    
   9490000   25.495168      58.945427      403.5708     
   9500000   35.677579      64.469982      441.39476    
   9510000   34.372155      63.409957      434.13728    
   9520000   33.118807      45.513485      311.60879    
   9530000   30.587526      65.124868      445.87844    
   9540000   39.868409      68.840838      471.31989    
   9550000   47.136713      49.719127      340.40279    
   9560000   41.699573      64.174492      439.37168    
   9570000   33.848126      68.749925      470.69745    
   9580000   37.428767      62.256508      426.24017    
   9590000   46.674087      68.412476      468.3871     
   9600000   40.740684      79.021253      541.02026    
   9610000   43.572756      76.507408      523.80918    
   9620000   42.278087      75.518721      517.04012    
   9630000   35.84625       51.953531      355.70067    
   9640000   31.251125      64.488832      441.52381    
   9650000   35.2783        67.626708      463.00733    
   9660000   45.560157      51.505653      352.63427    
   9670000   31.868778      77.463156      530.35273    
   9680000   45.048254      69.424989      475.31929    
   9690000   38.264778      68.358246      468.01581    
   9700000   45.98618       62.425337      427.39606    
   9710000   38.980499      63.322783      433.54044    
   9720000   45.503269      55.299884      378.61153    
   9730000   42.178635      67.16273       459.83069    
   9740000   37.191432      70.780163      484.5975     
   9750000   48.375903      63.446805      434.38956    
   9760000   35.857076      74.004758      506.67475    
   9770000   36.664068      71.434077      489.07454    
   9780000   37.929356      64.737719      443.22782    
   9790000   51.848666      82.132261      562.31983    
   9800000   44.263588      59.487996      407.28551    
   9810000   40.916954      66.617039      456.09461    
   9820000   42.330237      65.626585      449.31346    
   9830000   51.367618      71.677492      490.74109    
   9840000   36.30549       61.913804      423.89384    
   9850000   43.183339      61.42524       420.54888    
   9860000   36.954189      70.249028      480.96109    
   9870000   48.431863      71.67588       490.73005    
   9880000   39.683111      68.426253      468.48143    
   9890000   37.517195      69.831143      478.10003    
   9900000   51.576452      69.058817      472.81228    
   9910000   39.701091      70.867543      485.19575    
   9920000   45.564257      73.811311      505.35031    
   9930000   32.901659      61.037489      417.89413    
   9940000   35.286389      51.250953      350.89046    
   9950000   37.953954      72.008143      493.0049     
   9960000   47.91041       62.773889      429.78242    
   9970000   34.103226      78.670455      538.61852    
   9980000   34.532461      60.100941      411.48205    
   9990000   44.92674       73.518781      503.3475     
  10000000   40.470832      48.911821      334.87556    
  10010000   36.870582      61.296555      419.66783    
  10020000   42.142946      62.979294      431.18874    
  10030000   47.422515      59.319879      406.13449    
  10040000   39.026393      67.745672      463.82182    
  10050000   36.435081      87.878793      601.66355    
  10060000   41.552422      69.40862       475.20722    
  10070000   42.275832      70.455184      482.37253    
  10080000   51.371422      77.149646      528.20627    
  10090000   46.947072      58.567528      400.98351    
  10100000   46.535577      64.739703      443.2414     
  10110000   34.490853      63.176435      432.53846    
  10120000   33.020913      68.721943      470.50587    
  10130000   36.221822      75.421315      516.37323    
  10140000   37.389494      63.891113      437.43152    
  10150000   51.019295      70.432781      482.21915    
  10160000   46.453365      84.118922      575.92153    
  10170000   46.506757      68.253479      467.29853    
  10180000   50.530925      68.912872      471.81307    
  10190000   36.367221      69.708803      477.26243    
  10200000   45.801608      65.158064      446.10572    
  10210000   51.318988      71.067765      486.56658    
  10220000   41.774964      62.657574      428.98607    
  10230000   43.57376       56.07079       383.88955    
  10240000   34.611296      54.640228      374.09519    
  10250000   33.979005      59.65644       408.43876    
  10260000   44.525869      68.338794      467.88264    
  10270000   36.30676       79.797477      546.33469    
  10280000   34.908336      70.790845      484.67064    
  10290000   41.146518      72.575913      496.89214    
  10300000   56.863788      78.820097      539.64304    
  10310000   47.815367      67.87506       464.70767    
  10320000   48.998867      70.285201      481.20874    
  10330000   46.874092      75.459956      516.63778    
  10340000   49.605409      73.479858      503.08101    
  10350000   49.016031      76.467551      523.5363     
  10360000   38.00214       94.092874      644.20835    
  10370000   41.199977      69.178652      473.63274    
  10380000   38.316522      63.061069      431.74861    
  10390000   37.170959      59.606156      408.09449    
  10400000   40.919245      66.407978      454.66327    
  10410000   41.244839      68.928251      471.91836    
  10420000   52.545825      59.747298      409.06082    
  10430000   45.193354      68.963972      472.16293    
  10440000   39.131609      78.32561       536.25753    
  10450000   38.162589      68.502863      469.00594    
  10460000   52.656357      74.001451      506.65211    
  10470000   39.667016      72.259155      494.72345    
  10480000   35.982157      55.564762      380.42502    
  10490000   37.448601      61.702075      422.44423    
  10500000   37.851239      55.782162      381.91346    
  10510000   27.476138      61.21015       419.07626    
  10520000   48.274478      66.108993      452.61627    
  10530000   41.970234      92.390655      632.55408    
  10540000   44.282503      96.204493      658.66558    
  10550000   37.303986      64.794432      443.6161     
  10560000   40.507315      79.96951       547.51251    
  10570000   50.007489      72.825526      498.60112    
  10580000   45.950286      82.303722      563.49374    
  10590000   47.547587      75.847251      519.28941    
  10600000   49.929678      79.891495      546.97839    
  10610000   48.061061      73.249418      501.5033     
  10620000   51.477093      88.599738      606.59951    
  10630000   43.820242      86.270334      590.65121    
  10640000   57.177319      70.420952      482.13816    
  10650000   37.454615      75.273734      515.36282    
  10660000   43.284836      58.459806      400.24599    
  10670000   38.575029      63.104215      432.04401    
  10680000   37.094241      69.486121      475.73783    
  10690000   43.904751      60.251809      412.51496    
  10700000   49.526965      53.286668      364.82802    
  10710000   46.105416      70.992203      486.04924    
  10720000   46.413031      68.22162       467.08041    
  10730000   40.46968       76.28208       522.26647    
  10740000   47.187785      75.896625      519.62744    
  10750000   42.043928      68.143219      466.54363    
  10760000   41.292373      62.816432      430.0737     
  10770000   48.733107      68.625162      469.84326    
  10780000   46.617092      72.222021      494.46921    
  10790000   31.074229      87.35865       598.10238    
  10800000   48.681668      65.852955      450.8633     
  10810000   39.508542      64.614067      442.38124    
  10820000   40.882157      72.327079      495.18849    
  10830000   54.588635      65.451433      448.11427    
  10840000   42.440741      75.697005      518.26074    
  10850000   51.052882      66.635505      456.22104    
  10860000   49.586953      71.599447      490.20675    
  10870000   42.017956      73.267916      501.62995    
  10880000   41.679349      69.792094      477.83268    
  10890000   46.231014      76.910549      526.56929    
  10900000   45.747035      74.533194      510.29269    
  10910000   62.660033      65.85401       450.87053    
  10920000   57.616785      77.109263      527.92979    
  10930000   38.625624      70.951283      485.76909    
  10940000   43.233448      65.981646      451.74439    
  10950000   35.559287      82.087705      562.01478    
  10960000   36.856841      95.034571      650.65569    
  10970000   50.275236      67.333429      460.99939    
  10980000   47.777596      65.128626      445.90417    
  10990000   50.487475      77.794977      532.62454    
  11000000   52.747876      70.76623       484.50212    
  11010000   49.734593      55.125976      377.42087    
  11020000   41.387767      70.440578      482.27254    
  11030000   56.757262      75.466708      516.68401    
  11040000   44.413608      69.327697      474.65318    
  11050000   42.656798      65.817148      450.61815    
  11060000   43.366629      67.792843      464.14477    
  11070000   39.728711      65.150825      446.05616    
  11080000   46.819532      75.521759      517.06092    
  11090000   46.432872      48.865787      334.56038    
  11100000   37.315862      67.654837      463.19992    
  11110000   26.909817      71.976494      492.78821    
  11120000   35.244197      75.7626        518.70984    
  11130000   47.075786      60.396964      413.50877    
  11140000   43.100972      67.281423      460.64333    
  11150000   50.456587      68.566394      469.44091    
  11160000   56.355289      87.147191      596.65462    
  11170000   67.15917       71.485492      489.42655    
  11180000   43.104684      69.716544      477.31542    
  11190000   44.014246      70.300121      481.31089    
  11200000   48.397355      69.32621       474.64299    
  11210000   33.371232      71.811235      491.65676    
  11220000   44.205998      57.723702      395.20624    
  11230000   40.029151      67.402029      461.46906    
  11240000   47.817015      72.45287       496.04973    
  11250000   52.306698      69.905842      478.61146    
  11260000   43.612017      78.50834       537.5086     
  11270000   53.542895      73.683699      504.47662    
  11280000   45.600918      75.189306      514.78477    
  11290000   53.202503      74.222343      508.16445    
  11300000   41.944287      66.936535      458.28205    
  11310000   39.0595        76.587471      524.35733    
  11320000   31.801241      87.022279      595.79941    
  11330000   50.290522      76.759525      525.53531    
  11340000   56.068436      74.401154      509.38868    
  11350000   36.831367      64.607737      442.3379     
  11360000   48.590304      71.392608      488.79062    
  11370000   57.332253      66.093719      452.5117     
  11380000   43.228831      60.579466      414.75827    
  11390000   45.361038      63.967075      437.95159    
  11400000   42.354422      80.380936      550.32936    
  11410000   48.34174       65.998624      451.86062    
  11420000   42.402473      70.989187      486.02859    
  11430000   37.369188      68.350592      467.96341    
  11440000   47.68693       78.189183      535.32348    
  11450000   48.489073      71.87          492.0591     
  11460000   55.959186      78.939353      540.45953    
  11470000   65.033034      82.667821      565.98655    
  11480000   40.37353       81.378899      557.16192    
  11490000   41.528576      92.730396      634.88012    
  11500000   40.569101      75.286651      515.45125    
  11510000   38.738009      65.801455      450.51071    
  11520000   31.738048      79.676992      545.50979    
  11530000   44.231999      78.268791      535.86852    
  11540000   39.955827      72.497392      496.35455    
  11550000   34.782318      59.605495      408.08997    
  11560000   47.165366      70.692769      483.99916    
  11570000   39.633368      71.539534      489.79656    
  11580000   46.877982      72.018708      493.07722    
  11590000   48.292052      77.642292      531.57918    
  11600000   46.213017      68.008485      465.62117    
  11610000   35.730918      84.430771      578.05661    
  11620000   35.615637      75.299718      515.54071    
  11630000   50.213844      63.756887      436.51254    
  11640000   41.532315      84.507851      578.58434    
  11650000   45.657148      81.587375      558.58926    
  11660000   48.972459      71.002509      486.1198     
  11670000   62.29086       71.284551      488.05081    
  11680000   35.051568      74.554962      510.44173    
  11690000   41.059243      59.320305      406.13741    
  11700000   35.619716      59.113076      404.71861    
  11710000   33.40324       75.068205      513.95565    
  11720000   44.896448      76.103157      521.04147    
  11730000   42.833185      76.028554      520.5307     
  11740000   43.127094      82.827585      567.08038    
  11750000   56.943473      65.1829        446.27576    
  11760000   41.921278      69.831177      478.10026    
  11770000   39.131853      71.876657      492.10467    
  11780000   57.658458      89.151468      610.37694    
  11790000   60.719158      83.351917      570.67022    
  11800000   43.287284      83.831322      573.95248    
  11810000   57.495414      68.186348      466.83891    
  11820000   38.09148       65.684791      449.71196    
  11830000   52.070828      78.37179       536.5737     
  11840000   44.304036      76.326074      522.56768    
  11850000   38.992186      74.722869      511.59131    
  11860000   46.049058      66.355878      454.30657    
  11870000   42.394537      63.148657      432.34828    
  11880000   49.382959      64.816777      443.76909    
  11890000   51.386067      64.197733      439.53079    
  11900000   44.436151      68.168454      466.7164     
  11910000   38.844456      73.047839      500.12319    
  11920000   52.085147      68.746502      470.67401    
  11930000   48.045874      62.1036        425.19328    
  11940000   44.620934      68.189906      466.86327    
  11950000   44.177514      92.36368       632.3694     
  11960000   45.663775      68.436918      468.55445    
  11970000   56.031838      84.996321      581.92866    
  11980000   46.590886      80.511399      551.22257    
  11990000   52.140689      74.927125      512.98975    
  12000000   53.246018      82.084771      561.99469    
Loop time of 118.673 on 1 procs for 8000000 steps with 50 atoms

Performance: 58244.234 ns/day, 0.000 hours/ns, 67412.308 timesteps/s, 3.371 Matom-step/s
99.2% CPU use with 1 MPI tasks x 1 OpenMP threads

MPI task timing breakdown:
Section |  min time  |  avg time  |  max time  |%varavg| %total
---------------------------------------------------------------
Pair    | 83.747     | 83.747     | 83.747     |   0.0 | 70.57
Bond    | 18.909     | 18.909     | 18.909     |   0.0 | 15.93
Neigh   | 2.7971     | 2.7971     | 2.7971     |   0.0 |  2.36
Comm    | 3.0488     | 3.0488     | 3.0488     |   0.0 |  2.57
Output  | 0.12842    | 0.12842    | 0.12842    |   0.0 |  0.11
Modify  | 8.9284     | 8.9284     | 8.9284     |   0.0 |  7.52
Other   |            | 1.114      |            |       |  0.94

Nlocal:             50 ave          50 max          50 min
Histogram: 1 0 0 0 0 0 0 0 0 0
Nghost:              0 ave           0 max           0 min
Histogram: 1 0 0 0 0 0 0 0 0 0
Neighs:            178 ave         178 max         178 min
Histogram: 1 0 0 0 0 0 0 0 0 0

Total # of neighbors = 178
Ave neighs/atom = 3.56
Ave special neighs/atom = 5.76
Neighbor list builds = 21614
Dangerous builds = 0
Generated 0 of 6 mixed pair_coeff terms from geometric mixing rule
Setting up Verlet run ...
  Unit style    : real
  Current step  : 12000000
  Time step     : 10
Per MPI rank memory allocation (min/avg/max) = 9.625 | 9.625 | 9.625 Mbytes
   Step         PotEng         KinEng          Temp     
  12000000   53.246018      82.084771      561.99469    
  12010000   48.502267      68.942537      472.01617    
  12020000   40.438532      81.551785      558.34559    
  12030000   53.118256      70.585651      483.26578    
  12040000   49.801537      81.21766       556.05799    
  12050000   49.401445      74.560549      510.47998    
  12060000   42.119916      83.245741      569.94329    
  12070000   38.699052      82.957614      567.97062    
  12080000   35.432088      87.472072      598.87893    
  12090000   42.536504      65.286746      446.98674    
  12100000   48.174357      79.027351      541.06201    
  12110000   50.775423      70.19458       480.58831    
  12120000   54.467509      81.203806      555.96315    
  12130000   44.456916      70.889257      485.34442    
  12140000   46.720959      77.594613      531.25275    
  12150000   53.625346      66.187063      453.15077    
  12160000   46.584103      80.05459       548.09502    
  12170000   43.047032      66.606421      456.02192    
  12180000   47.784441      72.45636       496.07362    
  12190000   49.32281       70.112498      480.02633    
  12200000   55.577124      75.662812      518.02664    
  12210000   37.936381      82.958159      567.97435    
  12220000   42.342803      94.990373      650.3531     
  12230000   46.244968      80.707577      552.5657     
  12240000   55.965851      79.022259      541.02715    
  12250000   48.522235      73.331843      502.06763    
  12260000   50.126332      79.541037      544.57897    
  12270000   46.767251      67.298575      460.76076    
  12280000   51.003223      84.221118      576.62122    
  12290000   55.41761       90.69022       620.91203    
  12300000   48.373468      74.268839      508.48278    
  12310000   38.383091      75.032108      513.70851    
  12320000   40.957929      66.550395      455.63834    
  12330000   53.502481      71.560755      489.94185    
  12340000   38.115738      81.992374      561.36209    
  12350000   58.30804       55.281178      378.48346    
  12360000   32.201181      82.843478      567.18919    
  12370000   51.928742      76.449762      523.41451    
  12380000   40.661617      82.034144      561.64806    
  12390000   52.211231      76.377938      522.92276    
  12400000   48.484291      78.4559        537.14956    
  12410000   50.761891      69.758067      477.59971    
  12420000   47.029358      90.96187       622.77189    
  12430000   53.881132      88.129199      603.37796    
  12440000   43.43575       70.962035      485.8427     
  12450000   60.159818      84.798558      580.57467    
  12460000   52.630471      88.749352      607.62385    
  12470000   57.809448      84.629906      579.41999    
  12480000   60.713512      76.089832      520.95024    
  12490000   47.830734      73.602774      503.92256    
  12500000   45.440664      75.573113      517.41251    
  12510000   62.808482      86.915336      595.06723    
  12520000   49.609116      90.297896      618.22598    
  12530000   46.332119      73.399447      502.53048    
  12540000   54.759547      69.301204      474.47179    
  12550000   40.323997      79.603674      545.00781    
  12560000   51.918611      86.632631      593.13168    
  12570000   53.452813      80.67136       552.31775    
  12580000   33.616905      89.306776      611.44026    
  12590000   47.852949      70.797981      484.7195     
  12600000   41.474768      71.904516      492.29541    
  12610000   39.078238      81.862731      560.47448    
  12620000   47.229727      86.423421      591.69932    
  12630000   60.142161      86.355967      591.2375     
  12640000   47.738377      77.438576      530.18444    
  12650000   57.80752       72.831637      498.64296    
  12660000   44.317675      66.64877       456.31186    
  12670000   54.211457      59.275341      405.82956    
  12680000   43.744135      71.780841      491.44866    
  12690000   38.882384      63.543582      435.05214    
  12700000   60.180361      59.563014      407.79912    
  12710000   69.382711      72.692646      497.69135    
  12720000   57.032194      90.075243      616.70158    
  12730000   52.544233      60.165177      411.92184    
  12740000   40.59611       65.421307      447.90801    
  12750000   58.053356      60.156066      411.85946    
  12760000   46.819467      92.785759      635.25917    
  12770000   58.180836      63.072859      431.82933    
  12780000   43.324961      88.561717      606.3392     
  12790000   55.085435      84.021407      575.2539     
  12800000   41.346167      67.045914      459.03092    
  12810000   42.482984      69.499621      475.83026    
  12820000   53.022207      58.847058      402.89731    
  12830000   42.921366      67.638558      463.08846    
  12840000   33.642852      69.868695      478.35712    
  12850000   66.037539      78.248277      535.72807    
  12860000   45.52448       77.040152      527.45662    
  12870000   41.288651      95.227748      651.97829    
  12880000   53.49699       68.172648      466.74512    
  12890000   46.465085      68.934252      471.95945    
  12900000   41.189323      88.522107      606.06801    
  12910000   40.205844      71.21862       487.59941    
  12920000   46.380459      75.880287      519.51559    
  12930000   57.543898      70.312178      481.39344    
  12940000   56.04871       77.327632      529.42486    
  12950000   46.255084      83.06284       568.69105    
  12960000   46.837991      75.419089      516.35799    
  12970000   42.623839      74.721015      511.57862    
  12980000   45.927292      75.476998      516.75446    
  12990000   47.145326      91.663725      627.57714    
  13000000   51.624172      76.268453      522.17318    
  13010000   52.762026      67.438607      461.71949    
  13020000   51.656261      70.662499      483.79192    
  13030000   42.309307      81.626927      558.86005    
  13040000   38.32527       73.202204      501.18005    
  13050000   49.247867      82.957612      567.97061    
  13060000   64.561224      75.506418      516.95589    
[...]
 404740000   7.7568227      42.175294      288.75382    
 404750000   4.8594824      42.681586      292.22015    
 404760000   19.393007      40.993053      280.65959    
 404770000   14.039406      47.4369        324.77749    
 404780000   18.231293      40.323746      276.07717    
 404790000   8.1857605      54.565378      373.58272    
 404800000   7.9923962      56.716805      388.31251    
 404810000   17.28846       43.866117      300.33006    
 404820000   7.4643407      45.517041      311.63314    
 404830000   12.118154      48.972406      335.29036    
 404840000   7.1670926      43.56012       298.23505    
 404850000   1.3643296      37.898352      259.47167    
 404860000  -1.2766804      35.910706      245.86322    
 404870000  -10.14922       41.369478      283.23679    
 404880000  -7.806637       39.122891      267.85549    
 404890000   2.6877807      42.251973      289.2788     
 404900000   5.6589691      42.661069      292.07969    
 404910000   4.381191       49.601062      339.59446    
 404920000   8.1550747      40.571196      277.77133    
 404930000   0.3486424      47.12058       322.6118     
 404940000  -3.4267004      45.128907      308.97578    
 404950000  -5.0510303      43.017739      294.52163    
 404960000  -7.9499867      47.319659      323.9748     
 404970000   5.3605255      39.967515      273.63822    
 404980000  -10.195996      46.985729      321.68854    
 404990000  -1.4295936      46.126315      315.80455    
 405000000   3.0545163      50.670382      346.91557    
 405010000   0.97030242     46.561187      318.7819     
 405020000  -5.5148946      39.64607       271.43745    
 405030000  -7.2071436      40.698916      278.64577    
 405040000   2.5460829      42.217386      289.042      
 405050000  -1.364831       41.123208      281.55069    
 405060000   0.64124531     38.074779      260.67958    
 405070000  -3.9046643      41.828393      286.37875    
 405080000  -8.2603483      44.60013       305.3555     
 405090000  -1.1789166      46.953622      321.46872    
 405100000  -0.76594388     46.409066      317.74041    
 405110000   7.1244279      41.996314      287.52843    
 405120000   0.28256569     49.093791      336.12142    
 405130000   7.8430598      54.462967      372.88157    
 405140000   15.158023      41.195893      282.04833    
 405150000   15.833641      51.719862      354.10086    
 405160000   7.5560646      44.372754      303.79877    
 405170000   13.897205      45.139463      309.04805    
 405180000   1.2634179      42.953498      294.08181    
 405190000   8.0857781      41.066574      281.16295    
 405200000   1.1852851      33.635485      230.28588    
 405210000  -11.40681       42.833143      293.25779    
 405220000  -13.064464      47.87368       327.76791    
 405230000  -2.6501167      39.049226      267.35114    
 405240000  -14.178187      47.428479      324.71983    
 405250000  -8.5696949      38.984477      266.90784    
 405260000   4.2476969      36.956812      253.0254     
 405270000  -9.6963152      44.759165      306.44433    
 405280000   3.5100753      40.08598       274.4493     
 405290000  -10.650371      35.265954      241.44891    
 405300000   6.5384142      36.497082      249.87785    
 405310000  -5.6740069      43.342763      296.74691    
 405320000   0.11796586     50.200344      343.69745    
 405330000   9.4053409      45.955424      314.63454    
 405340000   3.9083696      44.48872       304.59273    
 405350000   3.4534212      40.395643      276.56941    
 405360000  -3.4543797      42.296034      289.58047    
 405370000  -7.4389615      41.721421      285.64637    
 405380000   6.3892647      43.337062      296.70788    
 405390000   10.085738      46.28261       316.87462    
 405400000   24.114121      50.858247      348.20179    
 405410000   11.334921      41.67631       285.33752    
 405420000   14.296899      40.942856      280.31592    
 405430000   3.8039956      49.14906       336.49982    
 405440000   9.6462918      47.011753      321.86671    
 405450000   9.3288689      40.083515      274.43242    
 405460000   6.5187216      43.935492      300.80504    
 405470000   1.7942528      42.980668      294.26782    
 405480000   6.5115411      51.309091      351.2885     
 405490000   15.410131      39.653372      271.48744    
 405500000   15.626993      45.541397      311.7999     
 405510000   3.3264473      49.373587      338.03705    
 405520000   15.234227      41.089404      281.31926    
 405530000   11.795806      39.967615      273.63891    
 405540000   7.5671085      38.634035      264.50853    
 405550000   6.7172679      44.178296      302.4674     
 405560000  -4.3275378      46.623572      319.20903    
 405570000  -7.3803149      38.709466      265.02497    
 405580000  -12.915163      47.339243      324.10888    
 405590000   3.5149369      36.270297      248.32516    
 405600000  -2.7673509      46.89785       321.08687    
 405610000   5.282695       46.304182      317.02232    
 405620000   7.3951147      41.518049      284.25398    
 405630000   13.110371      43.238288      296.03162    
 405640000   4.1080862      54.523235      373.29419    
 405650000   7.9887917      48.082004      329.1942     
 405660000  -7.3154478      61.382269      420.25468    
 405670000   3.2993968      44.551128      305.02       
 405680000   0.67274376     42.629717      291.86503    
 405690000   4.0919611      46.683365      319.6184     
 405700000   3.8391122      39.813682      272.585      
 405710000  -4.7811666      38.056463      260.55417    
 405720000   1.3635901      47.593752      325.85138    
 405730000   17.834564      44.295486      303.26975    
 405740000   11.988886      47.093983      322.4297     
 405750000   8.1957865      48.360885      331.10357    
 405760000   0.22629579     37.560073      257.15563    
 405770000  -0.18497612     42.95067       294.06245    
 405780000   8.9573154      36.79015       251.88435    
 405790000   10.97166       32.541244      222.79414    
 405800000   3.51486        50.074712      342.83731    
 405810000   2.5756146      43.154388      295.4572     
 405820000  -6.0867068      45.782819      313.4528     
 405830000   1.8874941      51.597868      353.26562    
 405840000   13.084632      37.044957      253.62889    
 405850000   11.192586      39.128389      267.89313    
 405860000  -3.9886968      50.450113      345.4075     
 405870000   2.1349529      43.511922      297.90506    
 405880000  -4.6864663      50.664517      346.87542    
 405890000  -4.5579217      44.737379      306.29518    
 405900000   3.2348812      45.849277      313.9078     
 405910000   8.4472174      41.723158      285.65826    
 405920000   3.3394436      43.106625      295.13019    
 405930000   7.9784735      36.753641      251.63439    
 405940000   8.7952187      46.688686      319.65483    
 405950000   8.6019828      40.086498      274.45285    
 405960000   1.5039638      50.702454      347.13516    
 405970000   7.4349244      36.986427      253.22816    
 405980000   10.402485      44.579727      305.21581    
 405990000   4.1460696      43.549733      298.16394    
 406000000   8.4397801      43.801301      299.8863     
 406010000   2.5608072      45.24517       309.77178    
 406020000   3.8880085      36.779538      251.81169    
 406030000  -4.3056509      51.488355      352.51584    
 406040000  -0.64596856     42.16659       288.69423    
 406050000  -4.5039104      48.877468      334.64036    
 406060000   6.4690321      34.822975      238.41605    
 406070000  -1.3181262      50.868339      348.27089    
 406080000  -0.86446854     38.788197      265.564      
 406090000   3.2957072      45.391683      310.77487    
 406100000   6.6103481      45.223546      309.62372    
 406110000   1.7256218      49.583406      339.47358    
 406120000   3.8815698      45.033625      308.32343    
 406130000  -1.2175727      36.628962      250.78077    
 406140000  -10.98101       41.319685      282.89588    
 406150000  -0.35542179     44.943019      307.70309    
 406160000   3.3420339      40.885742      279.92488    
 406170000  -1.5242308      37.540105      257.01892    
 406180000  -4.2777155      42.308551      289.66616    
 406190000  -4.0500786      46.0287        315.13623    
 406200000  -5.5429234      38.725189      265.13262    
 406210000  -0.648119       46.156438      316.01078    
 406220000  -6.4902669      39.54077       270.71651    
 406230000  -0.91129558     41.241587      282.36118    
 406240000   9.9253742      43.984275      301.13903    
 406250000   6.8984991      43.913462      300.65421    
 406260000  -1.1537184      50.576062      346.26981    
 406270000   4.994568       39.657855      271.51813    
 406280000   2.3430971      41.612507      284.90069    
 406290000   6.7052335      39.714673      271.90714    
 406300000   5.9065638      41.677861      285.34814    
 406310000  -10.36505       54.872085      375.6826     
 406320000   9.4056141      41.797032      286.16404    
 406330000   7.0710008      47.354062      324.21033    
 406340000   14.026576      43.576322      298.34598    
 406350000   19.927093      48.994414      335.44103    
 406360000   16.182138      38.075262      260.68288    
 406370000   0.97414805     52.529566      359.64451    
 406380000  -1.1813665      46.413367      317.76986    
 406390000   1.8169578      51.58649       353.18772    
 406400000  -3.9752103      40.426054      276.77762    
 406410000   3.1890154      37.909275      259.54645    
 406420000  -9.1023684      46.995214      321.75347    
 406430000  -0.73594434     35.815075      245.20848    
 406440000  -14.247817      52.523281      359.60147    
 406450000  -4.5268072      42.906469      293.75982    
 406460000   12.133367      49.692475      340.22032    
 406470000   13.63947       36.944853      252.94352    
 406480000   12.792681      39.125079      267.87047    
 406490000  -1.1311728      44.732262      306.26014    
 406500000   13.969132      36.596548      250.55885    
 406510000   5.9157615      37.937188      259.73756    
 406520000  -7.1297378      46.41879       317.80698    
 406530000   2.7308814      43.468203      297.60574    
 406540000   1.4499598      45.087446      308.69191    
 406550000   2.2050821      41.895761      286.83999    
 406560000  -6.0286629      53.286633      364.82778    
 406570000   6.7438242      43.287779      296.37046    
 406580000   9.6108158      47.094458      322.43295    
 406590000   5.7023267      47.533235      325.43704    
 406600000   7.8158195      45.802625      313.5884     
 406610000   7.2822491      38.079257      260.71024    
 406620000   6.665033       41.4341        283.67923    
 406630000   1.6726137      48.569285      332.53038    
 406640000  -8.8810879      43.855957      300.26051    
 406650000  -2.005481       43.347503      296.77936    
 406660000  -0.71686379     46.870883      320.90224    
 406670000  -4.4660284      49.39283       338.16879    
 406680000   6.3052551      46.577624      318.89444    
 406690000   5.8316378      39.437596      270.01013    
 406700000  -1.0115501      44.998284      308.08147    
 406710000   4.9497033      37.823832      258.96147    
 406720000   0.92877119     44.904163      307.43706    
 406730000   10.549212      42.723022      292.50385    
 406740000   4.8125075      42.625271      291.8346     
 406750000  -2.331255       45.737634      313.14344    
 406760000   11.24336       45.28783       310.06385    
 406770000  -2.3979532      46.880634      320.969      
 406780000   4.1250672      44.194616      302.57914    
 406790000   16.089284      38.288868      262.14534    
 406800000  -4.9899427      62.967587      431.10858    
 406810000   12.907722      52.722498      360.96542    
 406820000   3.2779199      43.892561      300.51112    
 406830000   17.279695      34.118405      233.5922     
 406840000   3.7981833      42.715899      292.45508    
 406850000   1.5563677      37.435831      256.30501    
 406860000  -11.579404      48.408754      331.4313     
 406870000  -0.55961551     36.466238      249.66668    
 406880000   4.252747       38.762051      265.38499    
 406890000   3.9457942      33.51662       229.47207    
 406900000   4.8701152      44.307522      303.35215    
 406910000   4.5097937      38.261899      261.9607     
 406920000  -1.2804731      48.964402      335.23555    
 406930000   8.0915728      39.521792      270.58658    
 406940000   1.6896619      43.818035      300.00087    
 406950000  -0.86371624     42.569934      291.45573    
 406960000   1.1489809      40.265508      275.67844    
 406970000  -7.6524926      46.956129      321.48588    
 406980000  -16.468942      37.531779      256.96192    
 406990000  -3.3223321      40.838177      279.59923    
 407000000   3.7860267      44.206264      302.65889    
 407010000   7.3028532      36.594589      250.54544    
 407020000  -10.399998      45.651762      312.55551    
 407030000  -1.6123751      44.774908      306.55211    
 407040000   2.8664699      43.255654      296.15052    
 407050000  -1.7025219      44.933042      307.63479    
 407060000  -5.4793766      35.809382      245.1695     
 407070000  -7.5844479      36.206582      247.88894    
 407080000  -8.2279193      36.331322      248.74298    
 407090000  -4.6369678      34.059079      233.18603    
 407100000  -6.3238579      51.50936       352.65965    
 407110000  -4.324086       46.128918      315.82237    
 407120000  -5.0869747      35.889994      245.72141    
 407130000   2.7033825      45.347456      310.47208    
 407140000   1.1315728      39.969744      273.65348    
 407150000   2.2068105      39.310161      269.13764    
 407160000  -2.6705525      48.069525      329.10876    
 407170000   13.818397      46.322175      317.1455     
 407180000   8.4095363      39.9317        273.39301    
 407190000   1.0967618      40.132482      274.76767    
 407200000  -3.6734801      40.367841      276.37906    
 407210000  -6.5282506      49.281162      337.40426    
 407220000  -5.420268       42.883945      293.60561    
 407230000  -7.4852319      40.27406       275.73699    
 407240000   2.5780366      42.878932      293.57129    
 407250000  -1.4539171      43.547828      298.1509     
 407260000   2.8464011      49.919871      341.77719    
 407270000   4.6811444      39.229913      268.58822    
 407280000   0.90814766     49.348963      337.86846    
 407290000  -1.1831383      44.602         305.3683     
 407300000   4.8999354      42.94284       294.00883    
 407310000   7.9478551      41.473978      283.95225    
 407320000   9.8592808      42.30769       289.66027    
 407330000   9.834511       44.714221      306.13663    
 407340000   14.68534       42.426115      290.47107    
 407350000   12.566989      50.625895      346.611      
 407360000   12.124336      48.596304      332.71537    
 407370000  -1.4433251      45.831104      313.78338    
 407380000   1.2547837      43.967077      301.02129    
 407390000  -1.3767946      40.260483      275.64403    
 407400000   4.2077233      36.550254      250.24189    
 407410000  -1.2580752      44.410698      304.05855    
 407420000  -1.8709069      39.42243       269.90629    
 407430000   7.6538729      40.855115      279.71519    
 407440000   3.5146852      42.383113      290.17665    
 407450000   1.7778827      44.858852      307.12684    
 407460000   5.7276777      33.573916      229.86435    
 407470000  -3.4329706      41.068143      281.17369    
 407480000  -1.3594018      43.998875      301.239      
 407490000   3.9749734      48.990431      335.41376    
 407500000   3.483392       43.263123      296.20166    
 407510000   5.523815       39.211897      268.46487    
 407520000   6.9696131      42.860382      293.44429    
 407530000  -1.1683713      42.103807      288.26438    
 407540000  -6.6544501      42.36362       290.04319    
 407550000  -11.269855      34.987114      239.53983    
 407560000  -1.9618911      44.935632      307.65252    
 407570000  -0.017352615    39.884756      273.07161    
 407580000  -4.6957743      52.56469       359.88498    
 407590000   3.1211356      53.844613      368.648      
 407600000  -1.6039703      48.326516      330.86826    
 407610000  -0.63387797     54.949347      376.21158    
 407620000   5.3779657      41.825883      286.36157    
 407630000  -7.443139       47.783308      327.14918    
 407640000  -0.68219764     41.020387      280.84673    
 407650000   0.7851974      43.195093      295.73589    
 407660000   1.613644       39.692489      271.75525    
 407670000  -1.6758661      39.118392      267.82469    
 407680000  -6.1377838      43.915675      300.66936    
 407690000  -0.038659404    38.572497      264.08721    
 407700000  -5.1267437      55.66423       381.10603    
 407710000  -2.9878274      46.779282      320.27509    
 407720000  -2.929839       42.929102      293.91478    
 407730000  -0.78535405     46.562222      318.78899    
 407740000   8.3034655      43.919617      300.69635    
 407750000   0.86335047     50.002147      342.34049    
 407760000   0.14672046     43.4261        297.31748    
 407770000   9.0814532      43.2428        296.06252    
 407780000  -3.2825828      41.114305      281.48974    
 407790000   2.7689031      46.613765      319.14188    
 407800000   4.115195       46.884459      320.99519    
 407810000  -3.7266247      43.501212      297.83174    
 407820000  -2.0721222      36.958802      253.03902    
 407830000  -7.71419        46.442155      317.96695    
 407840000   1.0297327      42.427441      290.48015    
 407850000   7.2426191      39.264473      268.82484    
 407860000   3.1948836      40.141369      274.82852    
 407870000   0.76939691     47.630367      326.10206    
 407880000  -1.1964135      39.338786      269.33362    
 407890000  -3.5151577      44.5779        305.2033     
 407900000   2.275881       47.558873      325.61258    
 407910000  -2.9664074      40.022848      274.01707    
 407920000  -2.8617562      40.442761      276.89201    
 407930000   0.067223966    35.090769      240.24951    
 407940000  -4.1369195      42.178722      288.77729    
 407950000   13.873674      47.466422      324.97961    
 407960000   7.0751605      43.382977      297.02224    
 407970000   16.00498       48.444604      331.67675    
 407980000  -5.0960002      51.773383      354.46729    
 407990000   7.386419       42.220921      289.0662     
 408000000   1.6317011      40.951461      280.37483    
Loop time of 95.8989 on 1 procs for 4000000 steps with 50 atoms

Performance: 36037.936 ns/day, 0.001 hours/ns, 41710.574 timesteps/s, 2.086 Matom-step/s
99.1% CPU use with 1 MPI tasks x 1 OpenMP threads

MPI task timing breakdown:
Section |  min time  |  avg time  |  max time  |%varavg| %total
---------------------------------------------------------------
Pair    | 77.246     | 77.246     | 77.246     |   0.0 | 80.55
Bond    | 10.026     | 10.026     | 10.026     |   0.0 | 10.45
Neigh   | 1.2879     | 1.2879     | 1.2879     |   0.0 |  1.34
Comm    | 1.8069     | 1.8069     | 1.8069     |   0.0 |  1.88
Output  | 0.091793   | 0.091793   | 0.091793   |   0.0 |  0.10
Modify  | 4.7963     | 4.7963     | 4.7963     |   0.0 |  5.00
Other   |            | 0.6439     |            |       |  0.67

Nlocal:             50 ave          50 max          50 min
Histogram: 1 0 0 0 0 0 0 0 0 0
Nghost:              0 ave           0 max           0 min
Histogram: 1 0 0 0 0 0 0 0 0 0
Neighs:            298 ave         298 max         298 min
Histogram: 1 0 0 0 0 0 0 0 0 0

Total # of neighbors = 298
Ave neighs/atom = 5.96
Ave special neighs/atom = 5.76
Neighbor list builds = 8472
Dangerous builds = 0
System init for write_data ...
Generated 0 of 6 mixed pair_coeff terms from geometric mixing rule
Total wall time: 1:50:14
