LAMMPS (29 Aug 2024)
  using 1 OpenMP thread(s) per MPI task
  using 1 OpenMP thread(s) per MPI task
Reading data file ...
  orthogonal box = (-500.6 -500.6 -500.6) to (500.6 500.6 500.6)
  1 by 1 by 1 MPI processor grid
  reading atoms ...
  50 atoms
  scanning bonds ...
  1 = max bonds/atom
  scanning angles ...
  1 = max angles/atom
  orthogonal box = (-500.6 -500.6 -500.6) to (500.6 500.6 500.6)
  1 by 1 by 1 MPI processor grid
  reading bonds ...
  49 bonds
  reading angles ...
  48 angles
Finding 1-2 1-3 1-4 neighbors ...
  special bond factors lj:    0        0        0       
  special bond factors coul:  0        0        0       
     2 = max # of 1-2 neighbors
     2 = max # of 1-3 neighbors
     4 = max # of 1-4 neighbors
     6 = max # of special neighbors
  special bonds CPU = 0.000 seconds
  read_data CPU = 0.007 seconds
Finding 1-2 1-3 1-4 neighbors ...
  special bond factors lj:    0        0        1       
  special bond factors coul:  0        0        0       
     2 = max # of 1-2 neighbors
     2 = max # of 1-3 neighbors
     4 = max # of 1-4 neighbors
     6 = max # of special neighbors
  special bonds CPU = 0.000 seconds

CITE-CITE-CITE-CITE-CITE-CITE-CITE-CITE-CITE-CITE-CITE-CITE-CITE

Your simulation uses code contributions which should be cited:
- Type Label Framework: https://doi.org/10.1021/acs.jpcb.3c08419
The log file lists these citations in BibTeX format.

CITE-CITE-CITE-CITE-CITE-CITE-CITE-CITE-CITE-CITE-CITE-CITE-CITE

Generated 0 of 6 mixed pair_coeff terms from geometric mixing rule
Neighbor list info ...
  update: every = 10 steps, delay = 0 steps, check = yes
  max neighbors/atom: 2000, page size: 100000
  master list distance cutoff = 33
  ghost atom cutoff = 33
  binsize = 16.5, bins = 61 61 61
  2 neighbor lists, perpetual/occasional/extra = 2 0 0
  (1) pair lj/cut, perpetual, trim from (2)
      attributes: half, newton on, cut 25
      pair build: trim
      stencil: none
      bin: none
  (2) pair base/rna, perpetual
      attributes: half, newton on
      pair build: half/bin/newton
      stencil: half/bin/3d
      bin: standard
Setting up Verlet run ...
  Unit style    : real
  Current step  : 0
  Time step     : 10
Per MPI rank memory allocation (min/avg/max) = 8.368 | 8.368 | 8.368 Mbytes
   Step         PotEng         KinEng          Temp     
         0   65.797361      0              0            
     10000   32.17744       43.098203      295.07253    
     20000   35.68042       46.702122      319.74682    
     30000   34.415602      46.03018       315.14636    
     40000   28.766932      53.912968      369.11599    
     50000   23.692707      46.862025      320.8416     
     60000   22.124042      41.104117      281.41999    
     70000   23.164702      45.252006      309.81858    
     80000   29.527376      47.234392      323.39101    
     90000   35.430137      39.514254      270.53496    
    100000   24.114588      47.459085      324.92938    
    110000   28.042919      39.155755      268.0805     
    120000   28.695882      50.337929      344.63943    
    130000   28.579081      41.910454      286.94058    
    140000   26.955611      47.996648      328.60981    
    150000   32.264537      40.035522      274.10384    
    160000   32.174538      39.316026      269.17779    
    170000   23.868147      44.930698      307.61874    
    180000   29.588753      37.24424       254.99328    
    190000   26.599645      43.257929      296.1661     
    200000   25.858943      45.138998      309.04486    
    210000   33.199174      50.294469      344.34188    
    220000   25.02467       44.774133      306.54681    
    230000   20.266438      48.336123      330.93403    
    240000   30.995302      47.092893      322.42224    
    250000   30.517898      43.72933       299.39355    
    260000   17.99376       44.39701       303.96483    
    270000   16.113219      56.098378      384.07843    
    280000   21.903342      39.027675      267.2036     
    290000   21.378229      48.779007      333.96624    
    300000   25.274768      40.879514      279.88224    
    310000   25.720869      47.748484      326.91076    
    320000   36.905102      41.365718      283.21105    
    330000   22.9598        50.950336      348.83228    
    340000   25.467998      50.725915      347.29578    
    350000   19.007896      38.72486       265.13037    
    360000   24.127231      46.074117      315.44717    
    370000   10.380405      45.082151      308.65566    
    380000   17.600787      45.363388      310.58116    
    390000   4.1849388      53.36502       365.36445    
    400000   4.5152292      38.134117      261.08584    
    410000  -0.2560241      42.504739      291.00937    
    420000  -2.5386989      37.265707      255.14025    
    430000  -5.1547376      38.444683      263.21213    
    440000  -12.139146      35.930856      246.00118    
    450000  -15.124135      48.490338      331.98987    
    460000  -1.6276306      43.845429      300.18843    
    470000  -10.07172       54.61669       373.93404    
    480000   3.9215486      45.763697      313.32188    
    490000   15.816274      39.690164      271.73934    
    500000   13.969131      48.258461      330.40232    
    510000   10.775896      49.754982      340.64827    
    520000   2.2489484      53.279998      364.78235    
    530000  -6.210303       50.908138      348.54338    
    540000  -4.6954545      50.213969      343.79074    
    550000   0.56264023     38.549348      263.92872    
    560000   13.847878      41.429868      283.65025    
    570000   10.959403      49.929956      341.84624    
    580000   11.449763      50.679388      346.97723    
    590000   2.5506862      48.964534      335.23646    
    600000   1.0421733      38.613137      264.36545    
    610000  -11.593632      50.938948      348.75432    
    620000  -0.66061052     37.246697      255.0101     
    630000  -1.663898       44.015152      301.35044    
    640000  -5.6420185      50.570047      346.22863    
    650000   3.6070328      37.463521      256.49459    
    660000  -23.342263      57.386992      392.90095    
    670000  -15.127909      41.212604      282.16275    
    680000  -15.724902      50.497895      345.73464    
    690000  -14.035506      41.719636      285.63415    
    700000  -8.6345894      40.297624      275.89832    
    710000  -21.519203      37.594536      257.39159    
    720000  -37.077502      43.056344      294.78594    
    730000  -31.815104      44.618657      305.48234    
    740000  -30.810379      46.608367      319.10492    
    750000  -22.956172      49.732373      340.49348    
    760000  -25.44991       46.637369      319.30348    
    770000  -26.419803      39.582693      271.00353    
    780000  -24.166253      42.113467      288.33052    
    790000  -41.342143      47.835484      327.5064     
    800000  -33.918064      39.61674       271.23664    
    810000  -38.635638      47.230942      323.3674     
    820000  -24.039053      33.174928      227.13267    
    830000  -27.605501      41.724824      285.66967    
    840000  -28.557539      42.388888      290.21619    
    850000  -23.984843      36.676247      251.1045     
    860000  -15.2419        36.157649      247.55391    
    870000  -22.702057      47.901078      327.95549    
    880000  -19.87869       48.808027      334.16493    
    890000  -19.880751      43.425924      297.31628    
    900000  -28.879909      45.705443      312.92304    
    910000  -32.553328      42.439351      290.56169    
    920000  -17.650242      44.461298      304.40498    
    930000  -17.031734      49.330214      337.74009    
    940000  -24.458036      46.587189      318.95993    
    950000  -27.713273      42.655661      292.04266    
    960000  -36.571129      44.710536      306.1114     
    970000  -23.747303      43.891335      300.50272    
    980000  -21.296166      51.897826      355.31929    
    990000  -9.2052303      51.052082      349.52889    
   1000000  -14.126529      39.023314      267.17374    
   1010000  -18.000948      41.200399      282.07919    
   1020000  -28.445122      53.04639       363.18295    
   1030000  -10.309093      42.612634      291.74807    
   1040000  -4.9332435      53.65074       367.32064    
   1050000  -11.248708      49.541996      339.19006    
   1060000  -17.940916      50.795968      347.7754     
   1070000  -22.506189      45.120944      308.92126    
   1080000  -29.686645      45.134752      309.0158     
   1090000  -32.938179      42.967257      294.176      
   1100000  -21.324419      42.132445      288.46045    
   1110000  -41.058321      44.107426      301.98219    
   1120000  -33.175631      40.002105      273.87505    
   1130000  -21.325949      42.998273      294.38836    
   1140000  -18.123998      49.660146      339.99897    
   1150000  -19.912578      43.473606      297.64273    
   1160000  -22.398536      38.329732      262.42511    
   1170000  -35.933917      43.910228      300.63207    
   1180000  -26.841297      40.231614      275.44638    
   1190000  -18.637071      42.87485       293.54334    
   1200000  -25.356334      39.30588       269.10833    
   1210000  -17.037222      48.812377      334.19471    
   1220000  -23.655007      42.396196      290.26623    
   1230000  -20.895295      45.125714      308.95392    
   1240000  -21.373941      37.442549      256.351      
   1250000  -30.633644      34.85391       238.62785    
   1260000  -22.015694      45.120335      308.91709    
   1270000  -25.768017      48.591906      332.68526    
   1280000  -15.773319      46.230492      316.51779    
   1290000  -17.672703      41.740313      285.77571    
   1300000  -8.1831801      40.005074      273.89537    
   1310000  -8.8421221      39.624364      271.28884    
   1320000  -2.2119003      49.146413      336.4817     
   1330000  -4.7797935      46.606292      319.09072    
   1340000   0.83204711     53.55344       366.65448    
   1350000  -4.0771992      49.692457      340.22019    
   1360000   9.2699683      43.929476      300.76386    
   1370000  -4.2898672      39.33798       269.32811    
   1380000  -5.1284479      38.039542      260.43833    
   1390000  -15.63988       50.905501      348.52532    
   1400000  -17.899947      40.268482      275.6988     
   1410000  -4.8392231      36.069802      246.95247    
   1420000  -9.2891222      43.109936      295.15286    
   1430000  -1.21946        37.419384      256.1924     
   1440000   2.9748471      46.958241      321.50034    
   1450000  -0.0023855837   45.620603      312.34218    
   1460000  -2.5417159      42.145632      288.55074    
   1470000  -7.655125       44.394375      303.9468     
   1480000  -6.7866371      35.184674      240.89243    
   1490000  -7.6249887      47.856045      327.64717    
   1500000  -7.2106752      39.898499      273.1657     
   1510000  -6.7120873      38.268858      262.00834    
   1520000  -13.992309      38.878867      266.18478    
   1530000  -17.235187      43.536595      298.07399    
   1540000  -20.820343      52.899861      362.17973    
   1550000  -13.213085      41.004501      280.73797    
   1560000  -4.5406268      41.19078       282.01333    
   1570000  -19.728136      57.492437      393.62288    
   1580000  -8.0787742      41.879489      286.72858    
   1590000  -15.467353      45.266345      309.91675    
   1600000  -9.4147104      44.061387      301.66698    
   1610000  -15.929681      44.6183        305.4799     
   1620000  -5.1969978      43.557041      298.21397    
   1630000  -4.119863       46.6224        319.201      
   1640000  -0.87743374     45.42926       311.03215    
   1650000  -3.7754669      46.623781      319.21046    
   1660000  -13.520273      47.988236      328.55222    
   1670000  -12.561645      46.471562      318.16829    
   1680000  -5.3157952      44.315655      303.40783    
   1690000  -0.21273973     44.490655      304.60598    
   1700000   6.0763591      33.308099      228.04443    
   1710000  -5.4250482      46.133836      315.85604    
   1720000  -6.2977068      39.310801      269.14202    
   1730000   1.3088885      49.86908       341.42945    
   1740000  -5.737768       47.199134      323.14962    
   1750000  -3.9767574      48.737321      333.68084    
   1760000  -2.4342449      45.262729      309.89199    
   1770000   5.1272825      42.259095      289.32757    
   1780000   17.5543        41.483729      284.01901    
   1790000   2.4217731      44.875235      307.23901    
   1800000   8.0273847      42.479901      290.83932    
   1810000   1.2761129      48.286652      330.59533    
   1820000  -0.78664993     41.716401      285.612      
   1830000  -1.4655043      39.305629      269.10661    
   1840000   5.0856547      40.353473      276.28069    
   1850000   2.319213       48.66788       333.20541    
   1860000   3.2619281      51.629066      353.47922    
   1870000   4.3656372      42.094536      288.20091    
   1880000  -0.25749069     50.75555       347.49868    
   1890000  -5.9530873      55.652907      381.02851    
   1900000  -11.673965      51.624473      353.44777    
   1910000  -18.884394      42.775779      292.86505    
   1920000  -9.5917211      43.734664      299.43007    
   1930000  -8.4618129      46.095021      315.59029    
   1940000   5.4334599      50.34744       344.70454    
   1950000   1.4995099      48.374093      331.19399    
   1960000  -6.3687933      53.096073      363.5231     
   1970000  -12.085565      51.903629      355.35902    
   1980000  -16.307089      47.5728        325.70793    
   1990000   6.1765327      43.865596      300.3265     
   2000000  -10.548033      40.728541      278.8486     
   2010000  -11.511509      39.304588      269.09948    
   2020000  -7.2191258      36.435454      249.45591    
   2030000  -7.2666743      40.776514      279.17705    
   2040000   6.818676       38.266625      261.99305    
   2050000  -10.754669      48.544555      332.36107    
   2060000  -2.1364567      49.425998      338.39588    
   2070000  -1.2621308      56.882315      389.44567    
   2080000   13.069056      48.128558      329.51293    
   2090000  -1.1813312      47.331971      324.05909    
   2100000  -11.514162      45.675388      312.71727    
   2110000  -11.729607      52.31754       358.19287    
   2120000  -5.2605562      44.680409      305.90513    
   2130000  -7.0182665      48.539443      332.32607    
   2140000  -11.581185      42.358319      290.0069     
   2150000  -5.5998761      44.519718      304.80496    
   2160000  -10.101675      48.574258      332.56443    
   2170000  -11.065472      43.559758      298.23258    
   2180000   3.6939729      48.230548      330.21121    
   2190000   1.4250127      52.355538      358.45302    
   2200000  -1.9252308      44.741629      306.32427    
   2210000  -12.492969      46.718422      319.85841    
   2220000  -13.300899      50.535328      345.99093    
   2230000  -6.4800411      53.027184      363.05146    
   2240000  -2.9587034      52.731352      361.02604    
   2250000  -4.1301849      46.566599      318.81896    
   2260000  -9.0658482      46.369859      317.47198    
   2270000  -2.6016156      40.477983      277.13315    
   2280000  -2.8409776      52.675711      360.64509    
   2290000  -5.0936884      52.721629      360.95947    
   2300000  -9.9767708      43.033078      294.62665    
   2310000  -22.71306       54.609283      373.88332    
   2320000  -21.180537      49.607961      339.64169    
   2330000  -9.6135698      49.370515      338.01601    
   2340000  -22.060349      49.579784      339.44878    
   2350000  -18.561992      45.817734      313.69184    
   2360000  -17.07558       42.099879      288.23749    
   2370000  -18.827582      50.784369      347.69599    
   2380000  -22.218919      51.700857      353.97074    
   2390000  -19.621101      48.756821      333.81435    
   2400000  -23.648056      45.143287      309.07423    
   2410000  -14.675846      45.376022      310.66765    
   2420000  -18.18536       49.127381      336.35139    
   2430000  -10.854245      46.444742      317.98466    
   2440000  -19.193675      56.704205      388.22624    
   2450000  -8.1196135      53.329761      365.12305    
   2460000  -6.5137724      47.726672      326.76142    
   2470000  -20.06258       52.057536      356.41275    
   2480000  -4.4966023      46.073975      315.4462     
   2490000  -11.548804      55.064055      376.99692    
   2500000  -2.9937619      44.885983      307.31259    
   2510000  -12.681131      43.291757      296.3977     
   2520000  -11.696734      50.779754      347.66439    
   2530000  -8.0770217      48.465625      331.82067    
   2540000  -17.622382      55.932688      382.94404    
   2550000  -11.200511      58.199803      398.46587    
   2560000  -4.3968933      38.736372      265.20918    
   2570000  -16.40447       41.513442      284.22244    
   2580000  -13.137765      50.293125      344.33268    
   2590000  -6.5246953      45.015528      308.19952    
   2600000  -15.651552      46.484866      318.25937    
   2610000  -22.822206      44.215477      302.72197    
   2620000  -29.015758      44.272515      303.11247    
   2630000  -27.167875      37.088791      253.92899    
   2640000  -22.57802       39.972409      273.67173    
   2650000  -22.221881      48.203018      330.02273    
   2660000  -16.650315      38.739709      265.23203    
   2670000  -19.611023      39.323657      269.23004    
   2680000  -27.765063      41.840152      286.45927    
   2690000  -23.812604      42.051554      287.90663    
   2700000  -18.704211      50.695188      347.08541    
   2710000  -20.499483      44.519109      304.80078    
   2720000  -21.801807      38.177685      261.38412    
   2730000  -28.524393      48.429302      331.57198    
   2740000  -19.885976      52.524621      359.61065    
   2750000  -19.096855      42.903501      293.7395     
   2760000  -6.2093023      46.890439      321.03614    
   2770000  -0.94230157     44.59725       305.33578    
   2780000  -4.5183852      53.040937      363.14561    
   2790000  -11.697595      39.550961      270.78628    
   2800000  -14.760322      43.738941      299.45935    
   2810000  -24.157614      46.368343      317.46159    
   2820000  -25.030076      42.453256      290.65689    
   2830000  -30.631891      44.134755      302.1693     
   2840000  -16.453834      33.817858      231.5345     
   2850000  -14.090397      46.24986       316.6504     
   2860000  -24.804314      50.743049      347.41309    
   2870000  -14.165145      50.594664      346.39717    
   2880000  -16.642421      49.947192      341.96424    
   2890000  -26.882644      51.015357      349.27745    
   2900000  -18.094977      40.017045      273.97734    
   2910000  -27.394337      43.395096      297.10522    
   2920000  -27.993573      44.418133      304.10945    
   2930000  -23.728191      43.127953      295.27621    
   2940000  -9.5863841      45.390351      310.76576    
   2950000  -15.361663      45.928111      314.44754    
   2960000  -19.550734      46.67775       319.57996    
   2970000  -26.423903      53.625929      367.15077    
   2980000  -21.212204      51.096453      349.83267    
   2990000  -24.015338      50.478441      345.60145    
   3000000  -28.12948       44.686822      305.94904    
   3010000  -16.278752      29.867335      204.48718    
   3020000  -20.227267      44.473198      304.48645    
   3030000  -15.308754      50.901698      348.49928    
   3040000  -18.138482      33.771587      231.21771    
   3050000  -7.8575686      32.968145      225.71693    
   3060000  -21.132931      39.729297      272.00726    
   3070000  -23.44434       46.554775      318.73801    
   3080000  -12.80224       36.107181      247.20839    
   3090000  -16.06064       44.502527      304.68726    
   3100000  -26.006062      48.275179      330.51678    
   3110000  -27.641695      45.008822      308.15361    
   3120000  -15.402739      44.397817      303.97036    
   3130000   2.9380506      44.819882      306.86003    
   3140000  -8.2049207      43.56893       298.29537    
   3150000  -2.5433887      39.567813      270.90166    
   3160000  -8.9006836      46.218251      316.43399    
   3170000  -21.820842      46.575909      318.8827     
   3180000  -16.213307      38.115067      260.95541    
   3190000  -26.129602      45.649918      312.54289    
   3200000  -17.131462      35.091145      240.25208    
   3210000  -18.292006      52.179157      357.24542    
   3220000  -30.960099      46.218837      316.438      
   3230000  -31.372942      42.447051      290.61441    
   3240000  -25.553184      46.505563      318.40107    
   3250000  -20.65389       46.061176      315.35857    
   3260000  -31.844168      44.238521      302.87974    
   3270000  -23.298714      43.829346      300.07831    
   3280000  -15.091616      41.508961      284.19176    
   3290000  -19.567172      38.754302      265.33195    
   3300000  -22.24452       40.275796      275.74888    
   3310000  -27.965116      38.659188      264.68074    
   3320000  -9.9398759      38.647619      264.60154    
   3330000  -25.855653      43.70624       299.23546    
   3340000  -28.267174      38.551979      263.94674    
   3350000  -19.982362      42.220496      289.0633     
   3360000  -14.769665      32.580943      223.06594    
   3370000  -13.026549      49.506824      338.94925    
   3380000  -14.556431      43.045708      294.71312    
   3390000  -13.929237      45.580547      312.06794    
   3400000  -9.0406317      41.323439      282.92158    
   3410000  -15.498833      45.43289       311.057      
   3420000  -15.631585      46.396531      317.65458    
   3430000  -20.090478      43.841852      300.16394    
   3440000  -23.35744       50.63932       346.70291    
   3450000  -23.662416      46.856849      320.80616    
   3460000  -16.748443      51.966891      355.79214    
   3470000  -18.555709      44.551447      305.02219    
   3480000  -19.143347      39.302971      269.08841    
   3490000  -16.444642      42.497789      290.96178    
   3500000  -13.999549      40.330817      276.12558    
   3510000  -26.029853      48.701561      333.43601    
   3520000  -31.554162      45.94502       314.56331    
   3530000  -26.69714       41.272779      282.57473    
   3540000  -29.096494      48.380826      331.24009    
   3550000  -18.67909       41.875756      286.70302    
   3560000  -32.519123      48.327486      330.8749     
   3570000  -28.801794      39.658487      271.52246    
   3580000  -32.99923       46.622502      319.2017     
   3590000  -22.160599      35.871062      245.59179    
   3600000  -19.521606      43.019779      294.5356     
   3610000  -16.569175      34.1983        234.1392     
   3620000  -18.666111      44.977848      307.94155    
   3630000  -5.9315194      42.429042      290.49111    
   3640000  -12.338272      46.958866      321.50462    
   3650000  -25.254307      39.602949      271.14222    
   3660000  -22.591901      33.699429      230.72368    
   3670000  -24.738395      39.225389      268.55725    
   3680000  -24.907757      41.325996      282.93909    
   3690000  -14.911574      43.584652      298.40301    
   3700000  -19.78116       49.982107      342.20329    
   3710000  -10.539458      36.353821      248.89701    
   3720000  -15.460263      48.29227       330.63379    
   3730000  -6.5141131      37.092789      253.95637    
   3740000  -27.398662      41.141839      281.67825    
   3750000  -25.450556      36.289565      248.45708    
   3760000  -27.923755      38.509213      263.65394    
   3770000  -13.796459      43.492098      297.76934    
   3780000  -12.910826      46.289691      316.9231     
   3790000  -13.446693      42.413378      290.38386    
   3800000  -18.72601       40.689202      278.57926    
   3810000  -23.5357        48.774404      333.93473    
   3820000  -22.733507      42.748401      292.67761    
   3830000  -17.062449      57.098593      390.92642    
   3840000  -12.32663       48.608267      332.79727    
   3850000  -17.550536      43.640997      298.78877    
   3860000  -3.7841425      45.461287      311.25142    
   3870000  -9.3071244      38.597793      264.2604     
   3880000  -4.950087       53.367822      365.38364    
   3890000  -18.049934      52.452194      359.11478    
   3900000  -23.855402      41.538761      284.39579    
   3910000  -29.264219      37.49628       256.71888    
   3920000  -33.501041      44.874112      307.23132    
   3930000  -23.369481      36.542242      250.18704    
   3940000  -27.771487      39.177684      268.23064    
   3950000  -27.130945      45.789376      313.49769    
   3960000  -13.158488      40.760589      279.06802    
   3970000  -22.620801      46.051947      315.29538    
   3980000  -17.107343      47.943115      328.2433     
   3990000  -16.581016      37.378598      255.91316    
   4000000  -12.178111      42.377156      290.13587    
Loop time of 123.801 on 1 procs for 4000000 steps with 50 atoms

Performance: 27915.673 ns/day, 0.001 hours/ns, 32309.807 timesteps/s, 1.615 Matom-step/s
99.2% CPU use with 1 MPI tasks x 1 OpenMP threads

MPI task timing breakdown:
Section |  min time  |  avg time  |  max time  |%varavg| %total
---------------------------------------------------------------
Pair    | 106.88     | 106.88     | 106.88     |   0.0 | 86.33
Bond    | 9.1898     | 9.1898     | 9.1898     |   0.0 |  7.42
Neigh   | 1.0572     | 1.0572     | 1.0572     |   0.0 |  0.85
Comm    | 1.605      | 1.605      | 1.605      |   0.0 |  1.30
Output  | 0.088714   | 0.088714   | 0.088714   |   0.0 |  0.07
Modify  | 4.4268     | 4.4268     | 4.4268     |   0.0 |  3.58
Other   |            | 0.5579     |            |       |  0.45

Nlocal:             50 ave          50 max          50 min
Histogram: 1 0 0 0 0 0 0 0 0 0
Nghost:              0 ave           0 max           0 min
Histogram: 1 0 0 0 0 0 0 0 0 0
Neighs:            332 ave         332 max         332 min
Histogram: 1 0 0 0 0 0 0 0 0 0

Total # of neighbors = 332
Ave neighs/atom = 6.64
Ave special neighs/atom = 5.76
Neighbor list builds = 8066
Dangerous builds = 0
Generated 0 of 6 mixed pair_coeff terms from geometric mixing rule
Setting up Verlet run ...
  Unit style    : real
  Current step  : 4000000
  Time step     : 10
Per MPI rank memory allocation (min/avg/max) = 9.625 | 9.625 | 9.625 Mbytes
   Step         PotEng         KinEng          Temp     
   4000000  -12.178111      42.377156      290.13587    
   4010000  -15.685011      47.688186      326.49792    
   4020000  -21.465535      36.136063      247.40613    
   4030000  -30.608837      42.827265      293.21755    
   4040000  -26.215854      40.726507      278.83468    
   4050000  -23.183346      34.931629      239.15995    
   4060000  -25.660622      41.056101      281.09124    
   4070000  -16.315352      38.70058       264.96414    
   4080000  -14.467146      41.273181      282.57749    
   4090000  -19.693736      47.770818      327.06367    
   4100000  -18.479406      58.338842      399.41781    
   4110000  -2.719577       54.932956      376.09936    
   4120000   8.4151917      50.87961       348.34805    
   4130000   3.2404208      57.712523      395.12971    
   4140000  -7.7013722      44.963193      307.84121    
   4150000   3.5360259      53.258669      364.63632    
   4160000   3.7446093      49.020756      335.62138    
   4170000   1.2959588      56.047615      383.73088    
   4180000   0.67535545     40.397632      276.58303    
   4190000  -5.6211072      43.202729      295.78817    
   4200000  -2.7261952      39.480204      270.30184    
   4210000  -1.7231758      43.865017      300.32253    
   4220000  -2.6020501      49.053975      335.84882    
   4230000  -3.3137191      51.912618      355.42056    
   4240000   0.61368368     38.331036      262.43405    
   4250000   5.7436619      44.819019      306.85413    
   4260000  -3.8796065      59.868064      409.88765    
   4270000  -8.9869516      47.869218      327.73736    
   4280000  -14.857104      51.140489      350.13417    
   4290000  -20.681413      54.658977      374.22355    
   4300000  -20.97076       41.693675      285.45641    
   4310000  -22.642891      44.175854      302.45069    
   4320000  -17.765248      45.209133      309.52505    
   4330000  -23.024128      48.319661      330.82133    
   4340000  -21.295282      45.060499      308.50742    
   4350000  -12.473748      41.856986      286.57452    
   4360000  -10.22782       39.401181      269.76081    
   4370000  -23.350747      40.86194       279.76192    
   4380000  -21.267358      37.558382      257.14406    
   4390000  -34.368477      43.020931      294.54349    
   4400000  -27.071064      55.501135      379.9894     
   4410000  -10.83132       41.118511      281.51854    
   4420000  -31.206402      40.352815      276.27619    
   4430000  -33.906123      46.705523      319.7701     
   4440000  -24.393254      43.108246      295.14129    
   4450000  -14.399039      52.397958      358.74345    
   4460000  -12.034937      46.902766      321.12053    
   4470000  -12.039963      41.237834      282.33548    
   4480000  -3.1840668      42.24849       289.25495    
   4490000  -3.7790119      41.713412      285.59153    
   4500000  -10.944496      44.08438       301.82441    
   4510000  -20.47746       52.975501      362.69761    
   4520000  -10.568722      48.376938      331.21347    
   4530000  -21.951983      53.706806      367.7045     
   4540000  -28.100454      47.938603      328.21241    
   4550000  -14.826753      43.891278      300.50233    
   4560000  -12.725193      49.776693      340.79692    
   4570000  -5.334491       35.964603      246.23222    
   4580000  -17.670084      47.325136      324.0123     
   4590000  -11.83596       47.9898        328.56293    
   4600000  -12.735463      48.658412      333.14059    
   4610000  -16.715246      41.378262      283.29693    
   4620000  -16.033314      40.640719      278.24733    
   4630000  -11.064053      45.660508      312.6154     
   4640000  -6.3971618      42.721088      292.4906     
   4650000  -10.096929      48.527824      332.24652    
   4660000  -13.498769      44.721537      306.18671    
   4670000  -18.460309      46.545691      318.67581    
   4680000  -10.746261      44.014561      301.34639    
   4690000  -2.9294206      49.565865      339.35348    
   4700000  -13.77761       44.300306      303.30275    
   4710000  -18.418438      45.216143      309.57304    
   4720000  -10.550491      42.1781        288.77303    
   4730000  -5.3036264      42.500222      290.97845    
   4740000  -10.720945      47.49245       325.15781    
   4750000  -18.679329      46.948417      321.43308    
   4760000  -19.481222      44.867908      307.18884    
   4770000  -17.121382      52.4621        359.1826     
   4780000  -24.149503      52.519085      359.57274    
   4790000  -14.529679      49.79358       340.91254    
   4800000  -5.3724101      55.76556       381.79979    
   4810000  -6.6568588      41.486762      284.03977    
   4820000  -22.188575      45.784217      313.46236    
   4830000  -19.017335      53.138952      363.81668    
   4840000  -17.765431      50.848376      348.13421    
   4850000  -10.432379      43.245328      296.07983    
   4860000  -11.373562      39.436175      270.0004     
   4870000  -17.211031      40.284073      275.80554    
   4880000  -18.242637      45.086452      308.68511    
   4890000  -15.94425       48.901047      334.8018     
   4900000  -5.4950265      46.879874      320.9638     
   4910000  -5.8214574      45.385899      310.73528    
   4920000  -20.773777      46.14927       315.96171    
   4930000  -13.760227      37.317789      255.49683    
   4940000  -25.742952      46.814152      320.51383    
   4950000  -21.296282      46.514246      318.46052    
   4960000  -10.880497      45.352653      310.50766    
   4970000  -4.4228953      46.706402      319.77612    
   4980000  -13.73501       42.689463      292.27409    
   4990000  -17.798989      49.59328       339.54118    
   5000000   15.067932      50.532866      345.97407    
   5010000  -3.6572898      59.693424      408.69197    
   5020000  -0.76301637     49.885596      341.54252    
   5030000  -16.612585      57.957219      396.80502    
   5040000  -9.8194606      51.439592      352.18198    
   5050000  -19.66356       53.796214      368.31663    
   5060000  -24.817707      57.73317       395.27107    
   5070000  -10.729484      46.386327      317.58472    
   5080000  -22.229929      53.207679      364.28722    
   5090000  -4.2000919      44.669899      305.83317    
   5100000   3.316169       43.336954      296.70714    
   5110000  -23.644967      56.578807      387.3677     
   5120000  -27.665898      40.93934       280.29184    
   5130000  -24.060205      41.579441      284.6743     
   5140000  -16.236434      43.863124      300.30957    
   5150000  -21.580157      40.24364       275.52872    
   5160000  -14.419322      47.750469      326.92434    
   5170000  -14.587623      53.362333      365.34606    
   5180000  -16.713523      50.306593      344.42489    
   5190000  -7.7182998      35.86127       245.52475    
   5200000  -4.0114136      52.426238      358.93707    
   5210000  -17.447419      56.648481      387.84472    
   5220000  -13.357317      47.609084      325.95635    
   5230000  -7.4015673      50.140989      343.29108    
   5240000  -7.3355184      62.442437      427.51314    
   5250000  -10.15084       49.442772      338.51072    
   5260000  -10.894106      43.929666      300.76515    
   5270000  -14.331123      38.766344      265.41439    
   5280000  -14.033026      53.271321      364.72294    
   5290000  -15.881549      52.255313      357.76683    
   5300000  -7.9957728      44.602092      305.36893    
   5310000  -9.6617813      46.774442      320.24196    
   5320000  -25.124355      54.370299      372.24711    
   5330000  -17.411568      52.12111       356.84801    
   5340000  -6.8974323      65.828113      450.69322    
   5350000  -3.5667494      54.444479      372.75499    
   5360000   0.91983198     41.99955       287.55059    
   5370000  -6.3540102      43.850641      300.22411    
   5380000  -4.7900516      52.728004      361.00311    
   5390000  -13.00805       51.159454      350.26401    
   5400000  -12.081982      51.568951      353.06764    
   5410000  -5.7628696      53.141453      363.8338     
   5420000  -1.9418489      56.518162      386.9525     
   5430000  -7.2249353      55.641287      380.94896    
   5440000  -17.910139      51.232144      350.76168    
   5450000   1.8432943      57.274181      392.12859    
   5460000  -2.3586227      53.625671      367.14901    
   5470000  -1.3996946      53.285579      364.82056    
   5480000   2.0096561      49.354779      337.90828    
   5490000   2.5644534      57.075782      390.77025    
   5500000  -2.4770864      63.349118      433.72074    
   5510000  -0.032493306    44.067465      301.7086     
   5520000  -13.418151      60.157496      411.86925    
   5530000  -7.9296597      50.469159      345.5379     
   5540000  -10.63502       55.225683      378.10351    
   5550000  -15.671776      45.68248       312.76582    
   5560000  -10.19065       56.586187      387.41822    
   5570000  -7.010705       47.908619      328.00712    
   5580000  -1.6224458      46.384733      317.57381    
   5590000  -9.460519       52.271607      357.87839    
   5600000  -21.538746      54.866309      375.64305    
   5610000  -3.6902254      48.676092      333.26163    
   5620000   15.645419      57.282855      392.18797    
   5630000   17.265165      57.834991      395.96819    
   5640000   25.196055      46.631691      319.26461    
   5650000   27.933537      57.637126      394.6135     
   5660000   16.294062      54.290876      371.70334    
   5670000   14.450403      59.696405      408.71238    
   5680000   14.896424      55.44618       379.61315    
   5690000   15.088606      48.30444       330.71712    
   5700000   5.7130531      46.318138      317.11787    
   5710000  -0.067896102    53.661444      367.39393    
   5720000  -3.8165542      51.69382       353.92256    
   5730000  -3.8160691      43.272136      296.26336    
   5740000  -17.813796      57.465972      393.44169    
   5750000   3.7838909      56.803167      388.90378    
   5760000   0.56286181     51.694453      353.92689    
   5770000  -8.9106136      52.259757      357.79725    
   5780000   3.9749773      43.994855      301.21147    
   5790000  -7.9122296      55.068347      377.02631    
   5800000   1.4347389      54.88879       375.79697    
   5810000   4.700304       61.53685       421.31302    
   5820000   4.9515554      52.062335      356.4456     
   5830000   4.5817986      40.225116      275.4019     
   5840000   13.744703      43.668195      298.97499    
   5850000   16.607555      49.762131      340.69722    
   5860000   16.29205       46.287606      316.90883    
   5870000   13.075601      45.358629      310.54857    
   5880000   4.3582451      53.353564      365.28602    
   5890000   10.817531      46.763661      320.16814    
   5900000   4.5486204      53.453183      365.96806    
   5910000   13.449979      51.87943       355.19334    
   5920000   9.1996884      61.844194      423.41726    
   5930000  -3.4915729      54.171532      370.88626    
   5940000  -11.383941      47.356529      324.22723    
   5950000  -5.2775079      49.709135      340.33438    
   5960000  -20.854664      48.844142      334.41219    
   5970000  -7.9588439      41.954369      287.24125    
   5980000  -21.75535       52.853486      361.86223    
   5990000  -2.9494575      45.832448      313.79258    
   6000000  -6.097424       45.113042      308.86716    
   6010000   6.258651       46.126523      315.80597    
   6020000  -4.3334811      51.565714      353.04548    
   6030000  -2.7510411      55.980509      383.27144    
   6040000  -2.3958444      58.572344      401.01648    
   6050000  -0.71274819     65.918347      451.31101    
   6060000  -3.9265306      62.080027      425.03189    
   6070000  -8.1949317      51.641361      353.5634     
   6080000  -10.129498      60.27888       412.70031    
   6090000  -10.36607       62.933784      430.87715    
   6100000  -6.755769       57.415303      393.09478    
   6110000  -16.898631      57.442404      393.28033    
   6120000  -12.367822      65.342095      447.36569    
   6130000  -24.088262      47.218265      323.2806     
   6140000  -17.683698      53.846757      368.66267    
   6150000  -8.4575542      54.408456      372.50835    
   6160000  -7.6498955      43.366303      296.90808    
   6170000  -9.6566188      59.190948      405.25177    
   6180000   0.29445819     46.94727       321.42523    
   6190000  -3.0351076      57.335076      392.54551    
   6200000  -5.024451       54.687897      374.42155    
   6210000  -14.097948      55.382149      379.17476    
   6220000  -5.5745335      44.003135      301.26816    
   6230000  -6.1934089      66.162773      452.98447    
   6240000   3.9489177      58.563631      400.95683    
   6250000   0.71647954     54.88031       375.73891    
   6260000   0.96954264     51.780482      354.51589    
   6270000  -12.373168      63.009209      431.39355    
   6280000   0.64870295     49.216452      336.96122    
   6290000  -19.842631      55.683375      381.23711    
   6300000   3.8883413      49.057143      335.87051    
   6310000   6.4508628      61.977673      424.33112    
   6320000   22.590317      56.390949      386.08153    
   6330000   10.45036       58.927925      403.45097    
   6340000   18.333066      55.906641      382.76571    
   6350000   24.105601      48.000216      328.63424    
   6360000   32.295759      53.431009      365.81625    
   6370000   9.3291051      67.392553      461.40419    
   6380000   23.018508      51.476097      352.43191    
   6390000   17.099422      45.170346      309.25949    
   6400000   9.9302655      56.565611      387.27735    
   6410000  -1.3387032      58.836802      402.8271     
   6420000   15.934496      45.229069      309.66154    
   6430000   5.632504       52.140137      356.97828    
   6440000   11.605057      56.699664      388.19515    
   6450000   7.4228721      43.707422      299.24356    
   6460000  -1.0515399      55.052068      376.91485    
   6470000   5.3057823      53.876241      368.86454    
   6480000  -7.413319       44.389827      303.91566    
   6490000  -6.0725312      55.709581      381.41653    
   6500000  -5.1734817      48.42157       331.51904    
   6510000  -11.675775      55.096065      377.21608    
   6520000  -8.2331158      50.594654      346.3971     
   6530000  -3.7652873      62.797319      429.94284    
   6540000   5.9682255      52.448377      359.08865    
   6550000  -1.9358388      56.163887      384.52694    
   6560000  -12.322515      55.093941      377.20154    
   6570000  -9.4231298      55.358157      379.0105     
   6580000  -1.4540214      53.355693      365.3006     
   6590000  -1.4241927      63.210997      432.77509    
   6600000   6.9952019      43.52185       297.97303    
   6610000  -13.600535      49.463448      338.65228    
   6620000  -7.5468787      38.640893      264.55549    
   6630000  -0.27706175     46.463644      318.11407    
   6640000   3.1036958      56.594473      387.47496    
   6650000   11.445989      46.682278      319.61096    
   6660000   5.0022321      55.692851      381.30199    
   6670000  -5.8891314      47.295888      323.81205    
   6680000  -4.4813697      46.592149      318.99389    
   6690000  -11.965267      55.515632      380.08865    
   6700000   2.892913       47.410586      324.59733    
   6710000  -2.5588494      50.031412      342.54086    
   6720000   3.6735169      55.962071      383.14521    
   6730000  -15.858238      56.023547      383.5661     
   6740000  -6.073033       46.480715      318.23095    
   6750000  -5.8242792      51.055465      349.55205    
   6760000   3.235103       51.254175      350.91252    
   6770000  -0.1943285      59.011109      404.02049    
   6780000  -2.4331736      45.064899      308.53755    
   6790000  -11.789229      51.811664      354.72938    
   6800000   5.4615856      46.67435       319.55667    
   6810000  -12.186073      65.225478      446.56727    
   6820000  -2.8169461      57.901483      396.42342    
   6830000  -2.9757411      59.17019       405.10964    
   6840000   22.350918      46.611508      319.12643    
   6850000  -0.81806476     64.866121      444.10693    
   6860000   6.799056       59.019026      404.07469    
   6870000   14.684843      54.842326      375.47885    
   6880000   14.516718      52.525128      359.61412    
   6890000   7.4751202      54.237145      371.33547    
   6900000   15.320341      57.509849      393.74209    
   6910000   16.950509      56.437994      386.40362    
   6920000   18.446626      47.383166      324.4096     
   6930000   25.956371      57.220505      391.76109    
   6940000   14.529256      55.649557      381.00557    
   6950000   21.011542      52.532353      359.66359    
   6960000   13.670312      52.362914      358.50352    
   6970000   18.856368      58.276444      398.9906     
   6980000   28.534597      50.933898      348.71974    
   6990000   33.86949       54.03517       369.95265    
   7000000   40.513738      68.491158      468.9258     
   7010000   36.532537      58.826118      402.75395    
   7020000   38.233919      51.526975      352.78025    
   7030000   34.300421      58.57605       401.04186    
   7040000   26.751248      59.647866      408.38006    
   7050000   41.736424      55.262044      378.35246    
   7060000   33.114992      54.310845      371.84006    
   7070000   36.287534      45.367052      310.60624    
   7080000   30.954542      51.005194      349.20787    
   7090000   29.120928      63.859794      437.21709    
   7100000   27.724727      56.857226      389.2739     
   7110000   20.827293      63.39358       434.02515    
   7120000   20.705272      47.96442       328.38916    
   7130000  -3.056248       56.570231      387.30898    
   7140000  -5.5410022      53.928662      369.22344    
   7150000   4.6240529      56.878486      389.41945    
   7160000  -0.032951688    53.96351       369.46202    
   7170000   14.060959      51.669328      353.75488    
   7180000   0.17409434     56.642716      387.80525    
   7190000   16.205661      59.762596      409.16556    
   7200000  -1.6490442      47.528952      325.40772    
   7210000   11.628573      45.576412      312.03963    
   7220000   5.8904815      50.419264      345.19629    
   7230000   7.2775333      69.359822      474.87312    
   7240000   23.2968        64.287076      440.14248    
   7250000   27.309343      59.950945      410.45509    
   7260000   33.579387      64.894583      444.30179    
   7270000   40.279226      61.53678       421.31254    
   7280000   29.358994      69.765734      477.6522     
   7290000   30.732648      57.056741      390.63988    
   7300000   35.416993      53.657468      367.3667     
   7310000   35.633888      56.36894       385.93084    
   7320000   27.809397      51.836624      354.90027    
   7330000   28.757288      60.361427      413.26547    
   7340000   23.531132      67.185023      459.98333    
   7350000   31.464831      55.542747      380.2743     
   7360000   23.922207      60.6889        415.50751    
   7370000   33.600027      48.283989      330.57709    
   7380000   37.530454      55.855897      382.41829    
   7390000   44.73265       58.566242      400.97471    
   7400000   40.129779      66.212382      453.32412    
   7410000   36.847623      54.527234      373.32157    
   7420000   32.221349      69.959669      478.97998    
   7430000   33.010747      57.264292      392.06088    
   7440000   33.057567      56.782065      388.75931    
   7450000   30.166303      63.460358      434.48235    
   7460000   31.345177      52.60454       360.15782    
   7470000   21.516839      58.931933      403.47841    
   7480000   18.354039      55.849371      382.3736     
   7490000   21.004567      52.683239      360.69663    
   7500000   19.270953      58.311667      399.23175    
   7510000   16.347725      62.858248      430.35999    
   7520000   38.151888      45.060726      308.50897    
   7530000   25.390455      56.286033      385.36321    
   7540000   23.581666      57.109915      391.00394    
   7550000   20.734738      64.706726      443.01562    
   7560000   27.142288      53.982625      369.5929     
   7570000   23.99261       55.3906        379.23262    
   7580000   30.900999      54.198422      371.07036    
   7590000   31.662275      56.611236      387.58973    
   7600000   22.01268       51.08725       349.76967    
   7610000   30.775221      52.469254      359.23158    
   7620000   34.439465      53.160408      363.96358    
   7630000   30.896808      54.518307      373.26046    
   7640000   24.73332       62.373219      427.03923    
   7650000   32.950231      54.654236      374.19109    
   7660000   40.580785      56.031711      383.622      
   7670000   39.988432      64.466827      441.37316    
   7680000   39.947431      58.518952      400.65093    
   7690000   36.619894      62.384907      427.11926    
   7700000   35.051607      59.892729      410.05652    
   7710000   36.310241      56.824501      389.04984    
   7720000   22.955406      60.653187      415.263      
   7730000   31.270214      46.688544      319.65386    
   7740000   23.501431      58.112034      397.86496    
   7750000   27.472164      65.152823      446.06984    
   7760000   34.631163      56.476003      386.66385    
   7770000   26.10657       56.187953      384.69171    
   7780000   23.739194      63.518753      434.88215    
   7790000   33.144298      55.323975      378.77647    
   7800000   28.449477      65.151434      446.06033    
   7810000   32.12347       63.440439      434.34597    
   7820000   36.887262      67.244251      460.38883    
   7830000   42.230411      74.260825      508.42792    
   7840000   39.437936      59.630251      408.25946    
   7850000   40.042442      62.130901      425.3802     
   7860000   38.942007      48.076307      329.1552     
   7870000   45.585133      60.140816      411.75505    
   7880000   36.44758       69.653544      476.88409    
   7890000   34.031471      64.704964      443.00357    
   7900000   30.443606      66.630526      456.18695    
   7910000   39.216947      52.998378      362.85424    
   7920000   38.867235      62.559998      428.31802    
   7930000   46.990227      61.285589      419.59275    
   7940000   44.151983      49.721408      340.41841    
   7950000   44.377135      65.824204      450.66646    
   7960000   41.226893      47.741033      326.85974    
   7970000   37.684127      71.89452       492.22697    
   7980000   46.662186      55.511048      380.05727    
   7990000   38.602255      53.531229      366.50241    
   8000000   29.994358      62.119967      425.30534    
   8010000   36.239241      59.008921      404.00551    
   8020000   36.860647      63.471658      434.55971    
   8030000   24.930778      60.297135      412.82529    
   8040000   31.205849      67.052605      459.07673    
   8050000   45.107993      46.983234      321.67145    
   8060000   39.717891      51.049531      349.51143    
   8070000   39.290363      61.333881      419.92339    
   8080000   38.480062      72.99196       499.74061    
   8090000   45.06777       56.70897       388.25886    
   8100000   33.577363      58.870945      403.06086    
   8110000   42.075777      56.06718       383.86484    
   8120000   37.068031      61.217197      419.12451    
   8130000   30.962005      52.984229      362.75736    
   8140000   15.174457      50.165007      343.45551    
   8150000   32.927693      53.654107      367.34369    
   8160000   19.350253      59.33669       406.24959    
   8170000   21.202767      52.178673      357.24211    
   8180000   24.490659      65.593249      449.08522    
   8190000   37.434691      66.732424      456.8846     
   8200000   37.580428      74.2103        508.08199    
   8210000   36.204947      55.056745      376.94688    
   8220000   38.622369      66.887955      457.94944    
   8230000   35.339214      53.97986       369.57397    
   8240000   39.370196      65.130121      445.91441    
   8250000   35.648751      73.093706      500.43722    
   8260000   47.774726      69.708656      477.26142    
   8270000   37.241433      68.787889      470.95737    
   8280000   25.709214      62.756209      429.66138    
   8290000   34.177836      65.213347      446.48421    
   8300000   34.725501      56.33121       385.67252    
   8310000   38.359394      60.150018      411.81805    
   8320000   27.647821      64.668228      442.75205    
   8330000   32.806433      51.497426      352.57794    
   8340000   31.122999      45.589592      312.12987    
   8350000   35.831352      55.663128      381.09849    
   8360000   43.631667      56.153001      384.45241    
   8370000   38.103716      52.552174      359.79929    
   8380000   35.854761      58.491538      400.46325    
   8390000   36.533264      59.79298       409.37359    
   8400000   37.043503      49.84078       341.23569    
   8410000   28.172046      54.374305      372.27454    
   8420000   42.887321      60.401334      413.53869    
   8430000   31.657393      50.810462      347.87463    
   8440000   37.264147      58.935658      403.50392    
   8450000   40.05553       52.104673      356.73547    
   8460000   44.560258      49.198286      336.83684    
   8470000   36.977839      53.926387      369.20787    
   8480000   39.147018      55.319897      378.74855    
   8490000   33.035583      60.288006      412.76279    
   8500000   45.990415      52.421952      358.90773    
   8510000   28.807264      55.506486      380.02603    
   8520000   30.02702       59.254635      405.6878     
   8530000   42.821453      62.674648      429.10297    
   8540000   43.165411      76.229954      521.90959    
   8550000   53.565627      67.35378       461.13872    
   8560000   37.55492       66.786934      457.2578     
   8570000   45.69136       56.342509      385.74988    
   8580000   39.252407      60.183631      412.04818    
   8590000   38.016674      68.341775      467.90304    
   8600000   38.20299       59.295041      405.96444    
   8610000   25.670564      63.649539      435.77758    
   8620000   37.798222      60.902367      416.96902    
   8630000   42.200645      55.564169      380.42096    
   8640000   34.027199      66.740319      456.93865    
   8650000   33.999741      66.182567      453.11999    
   8660000   36.007952      77.741365      532.25749    
   8670000   33.301046      65.126466      445.88939    
   8680000   37.935245      66.561804      455.71645    
   8690000   38.689226      52.48966       359.37129    
   8700000   30.838611      51.078119      349.70715    
   8710000   23.262449      59.170218      405.10984    
   8720000   20.728428      56.587397      387.42651    
   8730000   24.174607      54.180984      370.95097    
   8740000   32.37258       57.639196      394.62767    
   8750000   32.134206      59.383246      406.56833    
   8760000   44.663513      58.091599      397.72505    
   8770000   47.290785      66.647479      456.30302    
   8780000   36.37861       55.719258      381.48278    
   8790000   34.043892      56.278649      385.31266    
   8800000   39.598498      62.186742      425.76252    
   8810000   36.693616      56.526387      387.00881    
   8820000   30.490448      54.708975      374.56586    
   8830000   34.196126      71.669738      490.68799    
   8840000   43.155069      70.515356      482.7845     
   8850000   51.680847      50.624354      346.60045    
   8860000   47.705277      65.843908      450.80136    
   8870000   47.657794      74.851938      512.47498    
   8880000   45.653087      65.91442       451.28412    
   8890000   46.382033      51.114153      349.95386    
   8900000   29.702804      54.856247      375.57416    
   8910000   44.574011      75.76891       518.75304    
   8920000   47.748034      47.566376      325.66395    
   8930000   41.844377      60.94877       417.28672    
   8940000   42.621659      61.188434      418.92758    
   8950000   53.359652      72.000025      492.94931    
   8960000   43.721849      67.012719      458.80364    
   8970000   40.302833      74.262934      508.44235    
   8980000   35.061064      58.94565       403.57233    
   8990000   40.159549      50.318689      344.5077     
   9000000   40.646966      54.070839      370.19686    
   9010000   34.239579      54.798056      375.17576    
   9020000   30.782799      61.050965      417.9864     
   9030000   49.745253      65.995142      451.83679    
   9040000   43.029046      72.56011       496.78395    
   9050000   51.469879      60.726604      415.76565    
   9060000   45.118156      61.503018      421.08139    
   9070000   45.214402      51.047016      349.4942     
   9080000   42.409281      58.282808      399.03417    
   9090000   39.65836       61.203525      419.03091    
   9100000   42.328102      61.509193      421.12366    
   9110000   40.721007      59.773939      409.24322    
   9120000   42.210917      53.722904      367.81471    
   9130000   37.974065      57.798407      395.71771    
   9140000   37.978297      77.530552      530.81415    
   9150000   38.512585      65.120337      445.84742    
   9160000   26.76286       57.542482      393.96551    
   9170000   43.907571      59.452235      407.04067    
   9180000   35.152521      72.304708      495.03533    
   9190000   35.058254      61.687857      422.34689    
   9200000   46.330219      74.091008      507.26526    
   9210000   53.758794      58.520993      400.66491    
   9220000   41.260384      60.445037      413.8379     
   9230000   48.010608      72.073841      493.4547     
   9240000   48.938899      68.816573      471.15376    
   9250000   43.729476      54.549431      373.47355    
   9260000   39.781268      69.799982      477.88668    
   9270000   34.687009      60.980731      417.50554    
   9280000   37.891042      65.707789      449.86942    
   9290000   30.338823      76.546229      524.07497    
   9300000   44.611598      64.649295      442.62243    
   9310000   35.302359      72.857551      498.82038    
   9320000   39.419298      70.237833      480.88443    
   9330000   42.941528      72.247488      494.64357    
   9340000   39.134222      71.900125      492.26534    
   9350000   47.463181      61.365595      420.14052    
   9360000   46.493055      65.660691      449.54696    
   9370000   40.722261      67.398748      461.4466     
   9380000   41.746619      65.684785      449.71192    
   9390000   33.403402      65.496395      448.42211    
   9400000   34.412803      62.86419       430.40067    
   9410000   40.882573      53.929962      369.23234    
   9420000   33.091554      66.279821      453.78584    
   9430000   41.256919      76.902914      526.51702    
   9440000   36.515077      59.85859       409.82278    
   9450000   35.065352      54.292995      371.71785    
   9460000   37.439809      57.518677      393.80254    
   9470000   31.967428      77.620965      531.43317    
   9480000   51.182232      56.656638      387.90057    
   9490000   37.932624      49.356333      337.91892    
   9500000   42.443479      57.566369      394.12906    
   9510000   33.818763      62.364109      426.97686    
   9520000   41.845241      70.94673       485.73791    
   9530000   48.2173        59.881264      409.97802    
   9540000   43.085077      58.658577      401.60688    
   9550000   46.218927      68.356081      468.00099    
   9560000   50.118015      67.455108      461.83246    
   9570000   34.251834      87.816811      601.23919    
   9580000   34.807591      81.159866      555.66231    
   9590000   40.742416      67.139894      459.67435    
   9600000   47.288089      66.577572      455.8244     
   9610000   33.259365      74.159081      507.73133    
   9620000   42.021325      63.186333      432.60623    
   9630000   41.511185      76.350914      522.73774    
   9640000   39.251232      57.93339       396.64187    
   9650000   36.962639      68.203232      466.95451    
   9660000   35.38304       76.064737      520.77843    
   9670000   43.826905      52.412773      358.84488    
   9680000   33.502729      64.918183      444.46337    
   9690000   32.525705      66.301981      453.93756    
   9700000   42.00052       69.165192      473.54058    
   9710000   53.526931      68.030168      465.76962    
   9720000   48.780871      70.079872      479.80296    
   9730000   32.286474      51.871638      355.13999    
   9740000   48.185764      57.403441      393.01357    
   9750000   38.963441      53.498804      366.28041    
   9760000   42.962668      66.233725      453.47025    
   9770000   46.728799      66.765711      457.1125     
   9780000   39.291762      59.15358       404.99592    
   9790000   42.539458      68.789947      470.97146    
   9800000   44.736334      61.14235       418.61207    
   9810000   36.424292      65.631678      449.34833    
   9820000   40.124569      61.280341      419.55683    
   9830000   37.078721      65.936441      451.43489    
   9840000   38.674241      52.290508      358.0078     
   9850000   39.175449      56.572877      387.3271     
   9860000   43.540645      72.286579      494.91121    
   9870000   38.024571      55.459698      379.7057     
   9880000   36.337236      61.18664       418.9153     
   9890000   28.431497      74.22184       508.161      
   9900000   42.119849      54.867382      375.6504     
   9910000   48.592894      73.560784      503.63507    
   9920000   49.983958      74.17185       507.81875    
   9930000   40.981706      71.316741      488.2712     
   9940000   43.38738       51.678236      353.81586    
   9950000   45.571745      65.034171      445.25748    
   9960000   35.726904      64.549313      441.9379     
   9970000   39.999822      67.09869       459.39225    
   9980000   42.408268      72.42084       495.83043    
   9990000   35.340376      59.787404      409.33541    
  10000000   42.690832      73.966459      506.41254    
  10010000   55.526172      52.341923      358.3598     
  10020000   45.288898      74.183234      507.89669    
  10030000   39.608172      66.049094      452.20617    
  10040000   38.688527      70.413556      482.08752    
  10050000   49.835826      71.085711      486.68945    
  10060000   43.972914      66.276184      453.76095    
  10070000   43.958574      66.154067      452.92487    
  10080000   42.073991      72.316449      495.11571    
  10090000   39.831754      70.615862      483.47262    
  10100000   40.029385      78.070713      534.51237    
  10110000   43.049144      67.832384      464.41549    
  10120000   31.313762      71.698756      490.88667    
  10130000   42.526315      62.568226      428.37435    
  10140000   35.897072      77.450944      530.26912    
  10150000   32.279079      57.062789      390.68129    
  10160000   37.21266       59.647855      408.37999    
  10170000   33.75207       63.334224      433.61877    
  10180000   34.213081      65.60643       449.17547    
  10190000   40.442769      64.139942      439.13513    
  10200000   52.215762      66.456622      454.99632    
  10210000   52.52785       65.62205       449.28241    
  10220000   44.719444      64.051175      438.52738    
  10230000   32.664867      59.729381      408.93816    
  10240000   36.354691      64.235152      439.78699    
  10250000   53.306727      57.477062      393.51762    
  10260000   41.382518      66.312439      454.00916    
  10270000   63.67626       59.676913      408.57893    
  10280000   46.490399      83.730422      573.26166    
  10290000   35.688652      63.70435       436.15284    
  10300000   43.962969      70.060601      479.67101    
  10310000   44.04784       61.906048      423.84074    
  10320000   43.554287      73.042299      500.08526    
  10330000   45.992074      63.185015      432.59721    
  10340000   38.940197      69.522972      475.99013    
  10350000   41.351771      68.204475      466.96302    
  10360000   47.99919       67.573081      462.64017    
  10370000   47.671646      68.878668      471.57889    
  10380000   53.157622      70.354137      481.68071    
  10390000   34.12096       72.595761      497.02803    
  10400000   40.755082      81.459005      557.71037    
  10410000   49.056533      77.827412      532.84661    
  10420000   35.162432      77.162639      528.29523    
  10430000   43.535187      68.858489      471.44074    
  10440000   45.574008      62.198033      425.83982    
  10450000   45.000462      69.347998      474.79217    
  10460000   46.092228      72.655679      497.43826    
  10470000   41.332057      59.163149      405.06143    
  10480000   38.087623      66.587086      455.88954    
  10490000   36.031488      52.52505       359.61359    
  10500000   35.537823      55.129993      377.44837    
  10510000   48.366543      69.14593       473.40871    
  10520000   42.025459      82.747609      566.53282    
  10530000   52.192129      71.489486      489.4539     
  10540000   50.443055      65.577431      448.97692    
  10550000   43.117063      77.600932      531.29601    
  10560000   36.93197       78.326258      536.26197    
  10570000   31.484798      77.569781      531.08274    
  10580000   43.223312      69.006683      472.45535    
  10590000   48.409917      54.090079      370.32858    
  10600000   39.831373      72.377444      495.53332    
  10610000   40.96174       68.984493      472.30343    
  10620000   48.77556       56.249808      385.1152     
  10630000   49.781408      60.946064      417.26819    
  10640000   42.851355      67.641172      463.10636    
  10650000   37.770898      68.781978      470.9169     
  10660000   34.349585      68.668095      470.1372     
  10670000   38.86826       67.488214      462.05913    
  10680000   45.897712      75.919343      519.78299    
  10690000   44.559837      71.134757      487.02524    
  10700000   46.727335      50.402295      345.08011    
  10710000   35.714296      68.625733      469.84717    
  10720000   40.02492       59.846136      409.73752    
  10730000   41.081723      79.102271      541.57495    
  10740000   31.462148      63.364038      433.82289    
  10750000   40.387334      78.989673      540.80405    
  10760000   46.178597      64.99941       445.01949    
  10770000   39.449234      72.201364      494.32778    
  10780000   34.486419      79.454383      543.98569    
  10790000   44.039403      68.23659       467.18289    
  10800000   49.588665      56.521886      386.97799    
  10810000   38.870704      74.955832      513.18629    
  10820000   31.965261      71.632202      490.43101    
  10830000   34.634534      66.208001      453.29413    
  10840000   60.011068      76.777356      525.65739    
  10850000   53.405298      63.922649      437.64743    
  10860000   31.841859      83.941815      574.70896    
  10870000   49.327255      74.85461       512.49327    
  10880000   40.381702      61.268803      419.47783    
  10890000   46.543689      60.009536      410.85624    
  10900000   55.302688      74.884742      512.69957    
  10910000   49.260928      69.786357      477.7934     
  10920000   47.588467      66.187472      453.15358    
  10930000   36.820475      72.843567      498.72463    
  10940000   41.156367      68.299742      467.61526    
  10950000   36.454802      81.694866      559.3252     
  10960000   34.925275      85.002493      581.97092    
  10970000   39.603107      75.331025      515.75506    
  10980000   44.99096       75.17083       514.65828    
  10990000   31.338734      83.59624       572.34298    
  11000000   32.351114      70.28747       481.22428    
  11010000   48.393516      68.707581      470.40754    
  11020000   32.585818      70.417012      482.11119    
  11030000   51.693485      71.655518      490.59064    
  11040000   56.143259      71.734645      491.13238    
  11050000   47.206413      66.973981      458.53842    
  11060000   44.330499      69.092171      473.04065    
  11070000   34.224801      73.719379      504.7209     
  11080000   40.073329      60.569052      414.68698    
  11090000   43.433003      72.554564      496.74597    
  11100000   38.862023      71.449084      489.17729    
  11110000   46.985721      69.384196      475.04       
  11120000   41.512596      64.689277      442.89616    
  11130000   39.42955       60.902157      416.96758    
  11140000   35.1649        72.471656      496.17834    
  11150000   45.510469      68.353267      467.98173    
  11160000   41.175801      74.957559      513.19811    
  11170000   49.574883      72.991724      499.73899    
  11180000   40.311062      77.097804      527.85133    
  11190000   57.682015      69.307061      474.51189    
  11200000   44.529092      69.476482      475.67183    
  11210000   50.222801      71.453167      489.20524    
  11220000   49.606105      73.740827      504.86774    
  11230000   43.080662      74.076549      507.16627    
  11240000   49.873067      70.682908      483.93165    
  11250000   51.484581      64.428204      441.10872    
  11260000   43.361785      61.496398      421.03606    
  11270000   54.835713      70.30656       481.35498    
  11280000   38.688296      86.366255      591.30793    
  11290000   47.334562      65.053463      445.38957    
  11300000   45.029481      67.009197      458.77953    
  11310000   50.909031      85.608262      586.11832    
  11320000   52.962619      70.481706      482.55411    
  11330000   36.390562      70.710264      484.11894    
  11340000   34.077731      78.228261      535.59103    
  11350000   38.0033        85.635846      586.30718    
  11360000   41.991356      63.937581      437.74967    
  11370000   51.947158      72.823419      498.58669    
  11380000   46.253792      67.191882      460.03028    
  11390000   44.143628      77.505558      530.64303    
  11400000   55.714304      83.631866      572.58689    
  11410000   49.813197      74.076991      507.16929    
  11420000   37.811321      78.339782      536.35456    
  11430000   55.368436      68.867684      471.50369    
  11440000   52.549702      75.194504      514.82036    
  11450000   46.037053      83.191519      569.57205    
  11460000   38.00868       89.922632      615.65672    
  11470000   44.897977      91.383787      625.66054    
  11480000   38.393091      88.449955      605.57402    
  11490000   46.555701      76.761933      525.55179    
  11500000   54.119907      86.986984      595.55776    
  11510000   36.566058      77.821637      532.80707    
  11520000   41.523513      62.059663      424.89246    
  11530000   38.223662      85.373069      584.50807    
  11540000   48.019977      73.046127      500.11146    
  11550000   44.177248      82.828989      567.08999    
  11560000   40.448512      78.731637      539.0374     
  11570000   37.038671      76.081186      520.89105    
  11580000   40.392092      75.899553      519.64749    
  11590000   45.101071      61.926274      423.97922    
  11600000   52.074374      76.155069      521.39689    
  11610000   50.313343      70.625504      483.53863    
  11620000   57.958779      77.171087      528.35307    
  11630000   46.262957      85.996893      588.77909    
  11640000   42.692237      98.490829      674.31902    
  11650000   39.403768      76.547932      524.08663    
  11660000   48.131705      82.848786      567.22553    
  11670000   51.151114      77.867661      533.12218    
  11680000   41.881315      76.15514       521.39737    
  11690000   49.834318      80.502227      551.15977    
  11700000   51.627199      77.013159      527.27182    
  11710000   38.531121      77.784612      532.55358    
  11720000   50.745816      80.531745      551.36187    
  11730000   45.816823      70.368215      481.7771     
  11740000   44.951483      75.710199      518.35108    
  11750000   42.912169      65.14199       445.99566    
  11760000   40.353992      71.831221      491.7936     
  11770000   44.442649      64.077384      438.70683    
  11780000   38.845791      59.877683      409.95351    
  11790000   37.893419      69.79298       477.83875    
  11800000   45.865414      75.188408      514.77863    
  11810000   42.075708      73.008445      499.85348    
  11820000   36.541632      73.591309      503.84406    
  11830000   47.371165      71.53301       489.75189    
  11840000   44.846962      64.049377      438.51507    
  11850000   42.754901      79.775609      546.18497    
  11860000   41.570712      70.294384      481.27162    
  11870000   38.596167      86.017599      588.92085    
  11880000   44.666151      62.972329      431.14105    
  11890000   35.697779      58.155026      398.15931    
  11900000   50.665827      74.661082      511.16828    
  11910000   42.763589      73.823573      505.43426    
  11920000   46.930552      80.72143       552.66055    
  11930000   52.614736      67.994756      465.52718    
  11940000   42.354985      97.312629      666.25246    
  11950000   48.539838      83.490275      571.61749    
  11960000   54.065462      76.537199      524.01315    
  11970000   46.154853      61.261622      419.42866    
  11980000   46.707703      63.728591      436.31881    
  11990000   49.874445      62.526401      428.088      
  12000000   51.567055      64.644611      442.59035    
Loop time of 154.158 on 1 procs for 8000000 steps with 50 atoms

Performance: 44837.064 ns/day, 0.001 hours/ns, 51894.750 timesteps/s, 2.595 Matom-step/s
99.2% CPU use with 1 MPI tasks x 1 OpenMP threads

MPI task timing breakdown:
Section |  min time  |  avg time  |  max time  |%varavg| %total
---------------------------------------------------------------
Pair    | 120.16     | 120.16     | 120.16     |   0.0 | 77.95
Bond    | 18.341     | 18.341     | 18.341     |   0.0 | 11.90
Neigh   | 2.6341     | 2.6341     | 2.6341     |   0.0 |  1.71
Comm    | 3.0388     | 3.0388     | 3.0388     |   0.0 |  1.97
Output  | 0.13313    | 0.13313    | 0.13313    |   0.0 |  0.09
Modify  | 8.8083     | 8.8083     | 8.8083     |   0.0 |  5.71
Other   |            | 1.043      |            |       |  0.68

Nlocal:             50 ave          50 max          50 min
Histogram: 1 0 0 0 0 0 0 0 0 0
Nghost:              0 ave           0 max           0 min
Histogram: 1 0 0 0 0 0 0 0 0 0
Neighs:            123 ave         123 max         123 min
Histogram: 1 0 0 0 0 0 0 0 0 0

Total # of neighbors = 123
Ave neighs/atom = 2.46
Ave special neighs/atom = 5.76
Neighbor list builds = 21243
Dangerous builds = 0
Generated 0 of 6 mixed pair_coeff terms from geometric mixing rule
Setting up Verlet run ...
  Unit style    : real
  Current step  : 12000000
  Time step     : 10
Per MPI rank memory allocation (min/avg/max) = 9.625 | 9.625 | 9.625 Mbytes
   Step         PotEng         KinEng          Temp     
  12000000   51.567055      64.644611      442.59035    
  12010000   48.092919      68.656538      470.05807    
  12020000   58.427066      91.988818      629.8029     
  12030000   48.487611      90.662768      620.72408    
  12040000   34.870663      85.03265       582.17739    
  12050000   41.022834      85.51009       585.44619    
  12060000   51.813769      81.920529      560.8702     
  12070000   48.447906      72.239025      494.58563    
  12080000   48.733773      72.407782      495.74103    
  12090000   46.138951      73.94995       506.2995     
  12100000   47.266804      88.929932      608.86019    
  12110000   48.238722      60.836014      416.51474    
  12120000   48.935467      76.165055      521.46526    
  12130000   39.463236      73.816845      505.3882     
  12140000   49.317062      70.045677      479.56884    
  12150000   47.195203      76.658919      524.8465     
  12160000   59.388722      87.197045      596.99595    
  12170000   54.956031      101.9996       698.3419     
  12180000   44.460568      79.898448      547.02599    
  12190000   41.511251      69.582024      476.39443    
  12200000   34.316141      60.186141      412.06537    
  12210000   40.146025      79.503072      544.31905    
  12220000   50.108385      66.753557      457.02929    
  12230000   37.514216      67.883609      464.7662     
  12240000   37.20915       65.921076      451.32969    
  12250000   40.054071      75.005078      513.52345    
  12260000   53.024783      67.616299      462.93606    
  12270000   37.121379      67.052034      459.07281    
  12280000   44.120029      56.874938      389.39517    
  12290000   50.058056      74.09935       507.32238    
  12300000   44.501921      59.656741      408.44082    
  12310000   40.224908      80.722393      552.66715    
  12320000   50.522777      81.199107      555.93097    
  12330000   44.089377      80.115999      548.51545    
  12340000   43.283247      71.675079      490.72457    
  12350000   42.898774      64.969587      444.81531    
  12360000   46.697986      73.888815      505.88095    
  12370000   43.509921      66.019525      452.00373    
  12380000   45.230441      68.098104      466.23475    
  12390000   47.669992      62.897531      430.62894    
  12400000   35.367054      69.280902      474.3328     
  12410000   40.534581      73.232525      501.38765    
  12420000   41.792717      65.87278       450.99903    
  12430000   47.993857      71.51026       489.59613    
  12440000   54.68303       70.839018      485.00046    
  12450000   61.721406      81.449137      557.64281    
  12460000   40.95383       88.329105      604.74662    
  12470000   39.262105      79.084543      541.45357    
  12480000   36.073159      77.830337      532.86664    
  12490000   44.220208      71.776911      491.42176    
  12500000   51.658679      87.913724      601.9027     
  12510000   52.224866      77.111309      527.9438     
  12520000   38.272213      79.106407      541.60327    
  12530000   57.674728      69.073768      472.91465    
  12540000   53.500263      68.441234      468.584      
  12550000   42.269277      80.769725      552.9912     
  12560000   47.466991      64.017897      438.29955    
  12570000   48.102533      91.806881      628.55727    
  12580000   29.301817      60.694081      415.54299    
  12590000   35.210056      70.066011      479.70806    
  12600000   43.25881       68.859622      471.4485     
  12610000   48.998033      73.822598      505.42758    
  12620000   45.155594      69.557755      476.22827    
  12630000   53.176952      70.967529      485.88031    
  12640000   40.404339      63.980745      438.04519    
  12650000   53.558391      73.569899      503.69748    
  12660000   34.891416      70.197754      480.61003    
  12670000   35.389377      79.758805      546.06992    
  12680000   40.272815      85.070356      582.43554    
  12690000   39.504581      72.807422      498.47717    
  12700000   52.789152      62.201069      425.86061    
  12710000   42.547901      76.844714      526.11855    
  12720000   48.245586      62.382511      427.10285    
  12730000   38.115014      70.090369      479.87482    
  12740000   42.847172      71.251522      487.82467    
  12750000   39.586341      64.468494      441.38456    
  12760000   42.720939      60.875054      416.78203    
  12770000   43.496697      73.002149      499.81037    
  12780000   55.915297      63.981374      438.04949    
  12790000   34.425447      73.624064      504.06832    
  12800000   53.625223      75.927698      519.84019    
  12810000   57.280399      67.278452      460.62299    
  12820000   42.198558      74.706603      511.47994    
  12830000   44.573723      78.78146       539.37851    
  12840000   37.296068      77.43264       530.14379    
  12850000   41.873106      74.800858      512.12526    
  12860000   49.754414      74.544056      510.36706    
  12870000   46.050139      60.262937      412.59116    
  12880000   49.027926      83.497201      571.66491    
  12890000   42.768684      78.344278      536.38534    
  12900000   50.437968      88.533407      606.14537    
  12910000   39.054435      85.273449      583.82602    
  12920000   46.698632      55.159983      377.6537     
  12930000   37.422466      50.435175      345.30522    
  12940000   33.938937      56.558155      387.2263     
  12950000   48.232274      67.352934      461.13293    
  12960000   44.570582      73.908992      506.01909    
  12970000   47.89678       60.168185      411.94243    
  12980000   58.778104      77.312503      529.32128    
  12990000   49.501941      77.443271      530.21658    
  13000000   49.122428      82.229718      562.98707    
  13010000   51.209516      68.343089      467.91204    
  13020000   47.929595      74.463449      509.81518    
  13030000   36.269258      78.208105      535.45303    
  13040000   43.084732      81.549938      558.33295    
  13050000   53.118788      81.462941      557.73732    
  13060000   65.596221      78.55504       537.82833    
[...]
 404740000  -0.3165814      38.091074      260.79114    
 404750000  -9.3562053      40.575948      277.80387    
 404760000  -17.343963      50.797704      347.78729    
 404770000  -15.767666      49.839441      341.22652    
 404780000  -17.807458      49.623149      339.74568    
 404790000  -13.444557      43.465852      297.58964    
 404800000  -19.675892      46.946994      321.42334    
 404810000  -11.336525      45.500733      311.52149    
 404820000  -21.232635      44.768159      306.50591    
 404830000  -18.875753      44.780312      306.58912    
 404840000  -18.838387      48.724677      333.59427    
 404850000  -10.274984      45.250329      309.8071     
 404860000  -9.6073947      51.191578      350.48395    
 404870000  -14.463092      44.570347      305.15159    
 404880000  -30.770326      38.87225       266.13947    
 404890000  -26.381742      38.152883      261.21432    
 404900000  -28.795649      41.555574      284.51089    
 404910000  -34.615821      44.425815      304.16205    
 404920000  -14.343219      44.704707      306.07149    
 404930000  -12.172179      45.760141      313.29753    
 404940000  -16.899422      41.345984      283.07593    
 404950000  -19.484825      42.50762       291.02909    
 404960000  -21.38027       47.577477      325.73995    
 404970000  -25.674102      45.683887      312.77546    
 404980000  -22.893713      40.370877      276.39985    
 404990000  -8.642759       47.044583      322.09148    
 405000000  -13.015087      52.404546      358.78855    
 405010000  -22.538316      44.23588       302.86165    
 405020000  -21.130579      41.731639      285.71633    
 405030000  -16.996978      46.394337      317.63957    
 405040000  -14.863474      46.202904      316.32892    
 405050000  -14.077687      47.724387      326.74577    
 405060000  -21.315408      44.700898      306.04541    
 405070000  -28.206211      43.245364      296.08007    
 405080000  -28.092496      44.038977      301.51355    
 405090000  -23.608835      43.861795      300.30047    
 405100000  -17.512924      46.710298      319.8028     
 405110000  -15.080111      52.998616      362.85587    
 405120000  -28.954752      56.021553      383.55245    
 405130000  -13.340158      36.651476      250.93491    
 405140000  -11.710118      47.82433       327.43003    
 405150000  -15.156287      42.433097      290.51887    
 405160000  -18.029596      44.909812      307.47574    
 405170000  -17.030985      51.798461      354.63899    
 405180000  -20.471591      51.326507      351.40774    
 405190000  -17.54302       37.794727      258.7622     
 405200000  -19.826348      44.945921      307.72296    
 405210000  -21.381534      41.934035      287.10204    
 405220000  -15.082396      32.919015      225.38056    
 405230000  -23.084909      39.469986      270.23188    
 405240000  -26.51999       46.272291      316.80397    
 405250000  -26.733084      48.806212      334.1525     
 405260000  -21.635505      37.808265      258.85488    
 405270000  -15.1478        36.712341      251.35163    
 405280000  -25.047741      42.908571      293.77421    
 405290000  -19.993081      57.776889      395.57039    
 405300000  -16.704183      46.688944      319.65659    
 405310000  -19.164265      54.090144      370.32903    
 405320000  -15.349594      49.622463      339.74098    
 405330000  -17.803549      50.524926      345.91971    
 405340000  -18.805753      39.483058      270.32138    
 405350000  -17.494079      39.375107      269.5823     
 405360000  -19.960052      51.673768      353.78527    
 405370000  -17.070015      47.042818      322.0794     
 405380000  -24.972433      42.990608      294.33588    
 405390000  -14.92223       48.156495      329.70421    
 405400000  -20.820875      41.614473      284.91415    
 405410000  -27.239086      41.692794      285.45038    
 405420000  -21.001847      38.281844      262.09725    
 405430000  -21.684271      50.137088      343.26437    
 405440000  -15.886679      46.302652      317.01184    
 405450000  -7.028451       40.11651       274.65832    
 405460000  -13.107891      50.856692      348.19115    
 405470000  -12.883326      47.313084      323.92978    
 405480000  -17.996494      42.666545      292.11718    
 405490000  -33.277435      48.90682       334.84132    
 405500000  -21.941856      43.816379      299.98953    
 405510000  -23.917842      49.526361      339.08302    
 405520000  -14.793753      41.24163       282.36147    
 405530000  -18.53447       41.092745      281.34213    
 405540000  -15.644206      49.300675      337.53786    
 405550000  -18.17098       46.40233       317.69429    
 405560000  -15.285128      41.93958       287.14       
 405570000  -20.406114      50.04202       342.61349    
 405580000  -13.425292      38.921191      266.47455    
 405590000  -13.389311      43.947045      300.88414    
 405600000  -11.23408       47.08147       322.34403    
 405610000  -3.0316767      44.112175      302.01471    
 405620000  -18.00572       53.563509      366.72342    
 405630000  -7.3368067      49.949616      341.98084    
 405640000  -12.220155      40.653006      278.33145    
 405650000  -25.560642      51.385695      351.81298    
 405660000  -28.589617      51.831283      354.8637     
 405670000  -28.605283      49.972159      342.13518    
 405680000  -24.33854       46.998778      321.77788    
 405690000  -25.016086      43.388942      297.06308    
 405700000  -17.703583      38.925686      266.50533    
 405710000  -17.60272       43.947293      300.88584    
 405720000  -18.620131      46.077153      315.46796    
 405730000  -20.944736      47.737933      326.83852    
 405740000  -22.673294      52.925982      362.35857    
 405750000  -7.4853379      45.905799      314.29478    
 405760000  -25.282103      49.407354      338.26824    
 405770000  -18.572267      38.089744      260.78203    
 405780000  -25.75575       40.293365      275.86916    
 405790000  -26.668284      40.492969      277.23575    
 405800000  -16.731796      34.231056      234.36347    
 405810000  -14.146367      40.031597      274.07696    
 405820000  -25.386038      49.785281      340.85572    
 405830000  -20.135125      42.191044      288.86165    
 405840000  -19.967903      50.196445      343.67076    
 405850000  -11.933342      46.314803      317.09503    
 405860000  -29.575702      42.360138      290.01936    
 405870000  -24.142404      44.128688      302.12776    
 405880000  -20.141491      41.380512      283.31233    
 405890000  -20.973846      44.052114      301.6035     
 405900000  -28.015978      48.576827      332.58202    
 405910000  -24.504877      41.741899      285.78657    
 405920000  -16.393706      31.589585      216.27859    
 405930000  -23.547785      44.15503       302.30811    
 405940000  -25.115859      44.748025      306.36806    
 405950000  -27.911844      42.287606      289.52276    
 405960000  -23.948188      45.650239      312.54509    
 405970000  -22.553298      35.628791      243.93308    
 405980000  -13.030848      32.798651      224.55648    
 405990000  -39.086983      55.410123      379.36628    
 406000000  -10.853796      40.59311       277.92137    
 406010000  -10.009888      36.689533      251.19547    
 406020000  -19.120319      51.642152      353.56882    
 406030000  -12.170739      55.948821      383.05449    
 406040000   2.1058113      45.899986      314.25498    
 406050000  -14.203425      43.600794      298.51353    
 406060000  -16.616347      52.904688      362.21279    
 406070000  -7.6117137      53.087301      363.46305    
 406080000  -14.469519      39.871138      272.97838    
 406090000  -20.071507      38.104526      260.88324    
 406100000  -28.360557      44.432822      304.21002    
 406110000  -27.518525      40.52879       277.481      
 406120000  -27.072868      49.059413      335.88605    
 406130000  -26.572918      38.560869      264.0076     
 406140000  -31.544405      41.791311      286.12488    
 406150000  -20.788638      38.201874      261.54974    
 406160000  -36.957332      52.799743      361.49428    
 406170000  -21.523545      40.213358      275.3214     
 406180000  -24.55392       46.291789      316.93747    
 406190000  -13.846595      44.419747      304.1205     
 406200000  -4.6133114      41.011466      280.78565    
 406210000  -22.628188      44.655308      305.73328    
 406220000  -26.005433      51.552526      352.95519    
 406230000  -25.33713       43.98673       301.15585    
 406240000  -14.542106      41.868227      286.65148    
 406250000  -21.711301      37.225515      254.86508    
 406260000  -26.306842      50.966105      348.94024    
 406270000  -22.130271      38.472408      263.40195    
 406280000  -16.274148      47.042989      322.08057    
 406290000  -17.461343      43.741383      299.47607    
 406300000  -11.242342      41.700466      285.5029     
 406310000  -22.983889      45.66769       312.66456    
 406320000  -15.506382      48.63067       332.95065    
 406330000  -10.530089      41.710145      285.56917    
 406340000  -8.5943761      43.802439      299.8941     
 406350000  -21.908747      49.966949      342.09951    
 406360000  -11.043638      36.581413      250.45522    
 406370000  -26.944708      54.973028      376.37371    
 406380000  -10.523095      46.958507      321.50216    
 406390000  -21.857426      56.065245      383.85159    
 406400000  -23.885583      36.416633      249.32705    
 406410000  -23.382995      43.482827      297.70586    
 406420000  -24.648761      42.554303      291.34871    
 406430000  -25.427756      38.721531      265.10757    
 406440000  -29.737948      52.726774      360.99469    
 406450000  -33.422644      42.501294      290.98578    
 406460000  -15.531196      30.840781      211.15189    
 406470000  -20.559582      35.372162      242.17607    
 406480000  -26.072512      47.126913      322.65516    
 406490000  -22.207207      44.544912      304.97745    
 406500000  -24.605635      38.927348      266.5167     
 406510000  -22.5371        41.753646      285.867      
 406520000  -26.366901      40.59725       277.94972    
 406530000  -22.360753      41.765195      285.94607    
 406540000  -19.84348       40.918565      280.14961    
 406550000  -10.938899      40.275578      275.74738    
 406560000  -22.930608      45.97602       314.77555    
 406570000  -15.511804      51.83027       354.85677    
 406580000  -12.109354      49.350476      337.87882    
 406590000  -7.3167514      39.075334      267.5299     
 406600000  -6.0678361      39.041204      267.29622    
 406610000  -18.740118      43.201864      295.78225    
 406620000  -28.724961      43.177401      295.61476    
 406630000  -18.336455      34.167321      233.92711    
 406640000  -23.738684      34.955046      239.32027    
 406650000  -21.607038      40.63242       278.19051    
 406660000  -12.662054      43.936487      300.81185    
 406670000  -27.386439      44.420276      304.12412    
 406680000  -22.153186      46.103193      315.64624    
 406690000  -27.024304      51.386781      351.82041    
 406700000  -28.368699      44.647189      305.67769    
 406710000  -32.776985      45.351431      310.49929    
 406720000  -23.677952      41.513049      284.21975    
 406730000  -13.980293      41.15104       281.74125    
 406740000  -10.120519      43.817659      299.9983     
 406750000  -12.582109      48.491239      331.99603    
 406760000  -16.98432       48.247346      330.32622    
 406770000  -19.065318      41.213342      282.1678     
 406780000  -29.102999      51.896062      355.30721    
 406790000  -22.757717      38.044348      260.47123    
 406800000  -30.283465      50.062725      342.75524    
 406810000  -25.63077       36.183092      247.72811    
 406820000  -15.710086      44.44844       304.31695    
 406830000  -20.108849      49.259255      337.25427    
 406840000  -21.894946      45.233311      309.69058    
 406850000  -17.544574      45.256446      309.84898    
 406860000  -15.877206      40.009148      273.92327    
 406870000  -17.33002       36.149011      247.49478    
 406880000  -16.648059      45.488665      311.43886    
 406890000  -17.713322      41.120218      281.53022    
 406900000  -13.693552      45.950151      314.59844    
 406910000  -17.716457      41.848395      286.5157     
 406920000  -18.574712      41.134427      281.62751    
 406930000  -16.210957      45.423343      310.99164    
 406940000  -22.650513      45.781577      313.4443     
 406950000  -8.5407795      40.263277      275.66317    
 406960000  -22.164798      51.393059      351.8634     
 406970000  -21.295843      45.409875      310.89943    
 406980000  -21.583778      43.385779      297.04142    
 406990000  -15.329358      40.725031      278.82457    
 407000000  -2.3176311      50.435733      345.30905    
 407010000  -5.7663827      38.062766      260.59733    
 407020000  -16.279882      42.275995      289.44327    
 407030000  -5.7416387      45.216796      309.57751    
 407040000  -4.9646357      39.327011      269.25301    
 407050000  -4.9327348      39.578209      270.97284    
 407060000  -18.037041      39.547428      270.76209    
 407070000  -19.629893      40.734438      278.88898    
 407080000  -17.127256      40.607478      278.01974    
 407090000  -24.363206      49.012369      335.56396    
 407100000  -21.684393      46.407794      317.7317     
 407110000  -16.587762      44.011759      301.3272     
 407120000  -19.496242      46.223374      316.46906    
 407130000  -17.40299       48.226738      330.18512    
 407140000  -10.759386      43.282607      296.33505    
 407150000  -18.104504      45.968363      314.72313    
 407160000  -25.474779      52.091664      356.6464     
 407170000  -7.3185213      42.807338      293.08112    
 407180000  -14.47584       44.645896      305.66884    
 407190000  -8.5822062      42.717741      292.46769    
 407200000  -18.913684      42.878079      293.56545    
 407210000  -33.058016      42.344364      289.91136    
 407220000  -25.047646      43.779714      299.73851    
 407230000  -22.196377      44.041049      301.52774    
 407240000  -27.082052      50.542334      346.03889    
 407250000  -25.790898      43.855162      300.25506    
 407260000  -27.517225      50.530658      345.95895    
 407270000  -26.130186      45.882612      314.13603    
 407280000  -26.642506      42.611111      291.73765    
 407290000  -28.528671      42.27865       289.46145    
 407300000  -19.319001      38.079807      260.714      
 407310000  -17.511613      38.246815      261.85743    
 407320000  -26.460438      46.059575      315.34761    
 407330000  -21.221939      43.865311      300.32455    
 407340000  -26.82863       43.732586      299.41584    
 407350000  -8.8869235      48.061778      329.05572    
 407360000  -8.0630223      38.031879      260.38586    
 407370000  -14.061798      48.781886      333.98596    
 407380000  -15.263314      52.136928      356.9563     
 407390000  -14.222403      46.705975      319.7732     
 407400000  -10.404799      50.830541      348.01211    
 407410000  -10.059808      50.128422      343.20503    
 407420000  -13.268893      38.575182      264.1056     
 407430000  -15.398601      44.005241      301.28258    
 407440000  -7.8276785      45.103867      308.80434    
 407450000  -24.751281      46.494841      318.32767    
 407460000  -15.627404      39.132854      267.92371    
 407470000  -14.294826      40.071458      274.34987    
 407480000  -15.411744      46.826347      320.59733    
 407490000  -9.5946076      42.15929       288.64425    
 407500000  -21.793926      49.604639      339.61895    
 407510000  -27.651413      50.307539      344.43136    
 407520000  -25.081916      38.339285      262.49052    
 407530000  -21.935456      39.589633      271.05105    
 407540000  -23.854621      45.294939      310.11252    
 407550000  -1.8899218      43.450003      297.48114    
 407560000  -24.490315      54.407471      372.50161    
 407570000  -25.960916      49.128489      336.35898    
 407580000  -19.906809      39.063536      267.44912    
 407590000  -26.806335      46.199954      316.30872    
 407600000  -23.867103      41.082035      281.2688     
 407610000  -20.581017      41.119896      281.52802    
 407620000  -4.3844567      39.316887      269.18369    
 407630000  -7.6312115      43.86246       300.30502    
 407640000  -12.321469      45.969112      314.72826    
 407650000  -19.638267      48.537007      332.30939    
 407660000  -18.306008      41.66418       285.25447    
 407670000  -20.868862      43.906486      300.60645    
 407680000  -23.950002      46.682278      319.61095    
 407690000  -24.842673      47.583843      325.78354    
 407700000  -17.477701      40.257515      275.62371    
 407710000  -25.467123      43.013175      294.49038    
 407720000  -15.68472       42.055513      287.93373    
 407730000  -16.324407      47.192555      323.10457    
 407740000  -14.475676      48.322079      330.83788    
 407750000  -8.1064486      38.068129      260.63405    
 407760000  -23.921966      46.839162      320.68507    
 407770000  -26.373179      51.640496      353.55748    
 407780000  -22.521179      34.03044       232.98994    
 407790000  -36.229217      43.687514      299.10726    
 407800000  -25.623097      48.788921      334.03412    
 407810000  -28.676466      36.466635      249.6694     
 407820000  -23.498612      27.711519      189.72735    
 407830000  -20.968746      45.921615      314.40306    
 407840000  -18.574583      39.927893      273.36695    
 407850000  -15.767287      46.507539      318.4146     
 407860000  -16.004228      45.531666      311.73327    
 407870000  -13.080249      42.067588      288.01641    
 407880000  -9.7468381      48.85187       334.4651     
 407890000  -17.044621      54.067838      370.17631    
 407900000  -11.937388      46.800424      320.41985    
 407910000  -18.48251       49.667534      340.04956    
 407920000  -26.146462      47.356248      324.2253     
 407930000  -16.801387      45.653617      312.56821    
 407940000  -17.299648      44.122676      302.0866     
 407950000  -14.887671      51.945785      355.64764    
 407960000  -15.191941      47.32194       323.99041    
 407970000  -22.455378      43.750613      299.53926    
 407980000  -22.130149      39.199615      268.38079    
 407990000  -31.261558      48.923745      334.95719    
 408000000  -30.159736      42.087261      288.1511     
Loop time of 132.326 on 1 procs for 4000000 steps with 50 atoms

Performance: 26117.292 ns/day, 0.001 hours/ns, 30228.348 timesteps/s, 1.511 Matom-step/s
99.2% CPU use with 1 MPI tasks x 1 OpenMP threads

MPI task timing breakdown:
Section |  min time  |  avg time  |  max time  |%varavg| %total
---------------------------------------------------------------
Pair    | 115.48     | 115.48     | 115.48     |   0.0 | 87.27
Bond    | 9.2041     | 9.2041     | 9.2041     |   0.0 |  6.96
Neigh   | 1.0234     | 1.0234     | 1.0234     |   0.0 |  0.77
Comm    | 1.5852     | 1.5852     | 1.5852     |   0.0 |  1.20
Output  | 0.086819   | 0.086819   | 0.086819   |   0.0 |  0.07
Modify  | 4.4061     | 4.4061     | 4.4061     |   0.0 |  3.33
Other   |            | 0.544      |            |       |  0.41

Nlocal:             50 ave          50 max          50 min
Histogram: 1 0 0 0 0 0 0 0 0 0
Nghost:              0 ave           0 max           0 min
Histogram: 1 0 0 0 0 0 0 0 0 0
Neighs:            384 ave         384 max         384 min
Histogram: 1 0 0 0 0 0 0 0 0 0

Total # of neighbors = 384
Ave neighs/atom = 7.68
Ave special neighs/atom = 5.76
Neighbor list builds = 7762
Dangerous builds = 0
System init for write_data ...
Generated 0 of 6 mixed pair_coeff terms from geometric mixing rule
Total wall time: 2:19:59
