LAMMPS (29 Aug 2024)
  using 1 OpenMP thread(s) per MPI task
  using 1 OpenMP thread(s) per MPI task
Reading data file ...
  orthogonal box = (-500.6 -500.6 -500.6) to (500.6 500.6 500.6)
  1 by 1 by 1 MPI processor grid
  reading atoms ...
  100 atoms
  scanning bonds ...
  1 = max bonds/atom
  scanning angles ...
  1 = max angles/atom
  orthogonal box = (-500.6 -500.6 -500.6) to (500.6 500.6 500.6)
  1 by 1 by 1 MPI processor grid
  reading bonds ...
  99 bonds
  reading angles ...
  98 angles
Finding 1-2 1-3 1-4 neighbors ...
  special bond factors lj:    0        0        0       
  special bond factors coul:  0        0        0       
     2 = max # of 1-2 neighbors
     2 = max # of 1-3 neighbors
     4 = max # of 1-4 neighbors
     6 = max # of special neighbors
  special bonds CPU = 0.000 seconds
  read_data CPU = 0.022 seconds
Finding 1-2 1-3 1-4 neighbors ...
  special bond factors lj:    0        0        1       
  special bond factors coul:  0        0        0       
     2 = max # of 1-2 neighbors
     2 = max # of 1-3 neighbors
     4 = max # of 1-4 neighbors
     6 = max # of special neighbors
  special bonds CPU = 0.000 seconds

CITE-CITE-CITE-CITE-CITE-CITE-CITE-CITE-CITE-CITE-CITE-CITE-CITE

Your simulation uses code contributions which should be cited:
- Type Label Framework: https://doi.org/10.1021/acs.jpcb.3c08419
The log file lists these citations in BibTeX format.

CITE-CITE-CITE-CITE-CITE-CITE-CITE-CITE-CITE-CITE-CITE-CITE-CITE

Generated 0 of 6 mixed pair_coeff terms from geometric mixing rule
Neighbor list info ...
  update: every = 10 steps, delay = 0 steps, check = yes
  max neighbors/atom: 2000, page size: 100000
  master list distance cutoff = 33
  ghost atom cutoff = 33
  binsize = 16.5, bins = 61 61 61
  2 neighbor lists, perpetual/occasional/extra = 2 0 0
  (1) pair lj/cut, perpetual, trim from (2)
      attributes: half, newton on, cut 25
      pair build: trim
      stencil: none
      bin: none
  (2) pair base/rna, perpetual
      attributes: half, newton on
      pair build: half/bin/newton
      stencil: half/bin/3d
      bin: standard
Setting up Verlet run ...
  Unit style    : real
  Current step  : 0
  Time step     : 10
Per MPI rank memory allocation (min/avg/max) = 8.37 | 8.37 | 8.37 Mbytes
   Step         PotEng         KinEng          Temp     
         0   134.33628      0              0            
     10000   53.035037      87.410671      296.20676    
     20000   56.611229      84.68179       286.95945    
     30000   60.309382      81.266004      275.38445    
     40000   65.102325      86.582033      293.39877    
     50000   51.98418       104.11569      352.8147     
     60000   37.278999      102.39665      346.98942    
     70000   32.381741      78.301841      265.33985    
     80000   26.858079      94.96789       321.81575    
     90000   45.846908      88.598686      300.23256    
    100000   38.657452      84.72519       287.10652    
    110000   26.821853      85.098504      288.37156    
    120000   24.71993       89.197496      302.26173    
    130000   13.362119      92.929469      314.90819    
    140000   19.758267      73.992863      250.7381     
    150000   8.6267763      89.867899      304.53351    
    160000   29.106736      83.052344      281.43778    
    170000   25.517351      104.5116       354.15631    
    180000   12.531308      91.72649       310.83168    
    190000   8.2257111      92.771332      314.37232    
    200000   12.927511      94.963756      321.80174    
    210000   0.50021898     94.596148      320.55603    
    220000  -7.5490319      97.258418      329.57761    
    230000   4.2898791      82.541653      279.70721    
    240000  -11.439979      90.471098      306.57756    
    250000  -21.781816      89.594314      303.60642    
    260000  -11.833635      87.984601      298.15162    
    270000  -6.9514543      105.31294      356.87181    
    280000  -12.589014      92.402342      313.12193    
    290000  -17.23318       88.589012      300.19977    
    300000  -5.2565652      92.579592      313.72257    
    310000   1.6052667      83.119608      281.66572    
    320000  -2.0993726      89.813445      304.34899    
    330000  -1.2942949      81.064013      274.69997    
    340000  -6.8644426      101.47116      343.85324    
    350000   6.7563377      85.042509      288.18181    
    360000   0.063135115    85.047425      288.19847    
    370000   10.797107      79.777846      270.34156    
    380000   10.250765      84.839434      287.49366    
    390000  -5.8392057      94.041893      318.67784    
    400000  -17.50664       82.437378      279.35386    
    410000  -15.474069      89.848808      304.46882    
    420000   2.0460045      90.646402      307.17161    
    430000   3.2518614      82.948505      281.0859     
    440000   10.162442      87.108019      295.18116    
    450000   11.995694      94.501655      320.23583    
    460000   9.9746614      90.032571      305.09153    
    470000  -12.720626      93.870201      318.09603    
    480000   7.3829172      83.201209      281.94224    
    490000  -6.5410719      94.464844      320.11109    
    500000  -0.70205341     82.233994      278.66465    
    510000  -15.688908      97.707606      331.09977    
    520000  -8.4953849      103.15223      349.54984    
    530000  -11.556363      83.067729      281.48991    
    540000  -26.276652      92.040048      311.89423    
    550000  -14.587433      89.704458      303.97967    
    560000  -15.813472      80.461629      272.65868    
    570000  -19.301874      81.658647      276.71499    
    580000  -10.630749      82.930398      281.02454    
    590000  -4.0544425      83.158066      281.79604    
    600000  -9.0030061      89.653337      303.80643    
    610000   12.300605      93.640963      317.31922    
    620000   11.267456      83.338855      282.40867    
    630000   14.490163      90.921819      308.10491    
    640000   13.569611      100.31578      339.93804    
    650000   6.1169731      80.687468      273.42397    
    660000   0.63002561     82.069274      278.10647    
    670000   10.995447      83.292945      282.2531     
    680000   9.4744358      86.629237      293.55873    
    690000  -15.544424      94.411801      319.93134    
    700000  -2.3519233      79.067986      267.93607    
    710000   13.60598       86.358644      292.64177    
    720000   15.702989      90.462028      306.54683    
    730000   12.913716      85.751919      290.58578    
    740000  -4.5610208      102.70517      348.03493    
    750000   4.3705894      83.002754      281.26974    
    760000   8.4945301      81.406279      275.85979    
    770000   4.125134       95.019115      321.98933    
    780000   6.9174638      84.127678      285.08174    
    790000   5.8764709      86.623634      293.53974    
    800000   5.3946697      84.507466      286.36872    
    810000   0.25154653     85.327148      289.14636    
    820000  -8.5407795      91.063364      308.58456    
    830000  -8.6993279      99.563095      337.38743    
    840000  -10.602242      99.196681      336.14576    
    850000  -9.0894913      93.048454      315.3114     
    860000  -3.2421739      79.492853      269.37581    
    870000   0.65214777     112.08558      379.82212    
    880000   15.639658      84.18176       285.26501    
    890000   2.1762367      81.265708      275.38344    
    900000  -8.4044721      85.196116      288.70234    
    910000   8.813112       83.89542       284.2947     
    920000   1.2460121      94.19345       319.19142    
    930000   1.8695632      84.195405      285.31125    
    940000  -2.4553679      76.096848      257.86783    
    950000  -14.943084      73.520816      249.13849    
    960000  -14.678652      80.618874      273.19153    
    970000  -10.139466      80.829937      273.90676    
    980000  -3.9778742      82.972566      281.16744    
    990000  -4.0515853      84.730542      287.12466    
   1000000  -7.5006749      87.675943      297.10568    
   1010000  -26.88632       101.8924       345.28069    
   1020000  -15.666514      94.765737      321.13072    
   1030000  -25.947913      92.019595      311.82492    
   1040000  -0.029491939    81.827382      277.28678    
   1050000   2.2226401      75.434307      255.62269    
   1060000  -16.740329      87.989698      298.16889    
   1070000   8.5202611      94.58347       320.51307    
   1080000   3.8050101      85.137465      288.50359    
   1090000  -15.967531      104.83448      355.25047    
   1100000  -2.8608671      78.395057      265.65573    
   1110000   0.57906361     80.460867      272.6561     
   1120000  -5.9695837      83.003469      281.27216    
   1130000  -11.48532       87.4825        296.45016    
   1140000  -9.9984626      85.201086      288.71918    
   1150000  -2.9023747      86.292471      292.41753    
   1160000  -7.5834108      94.899292      321.58329    
   1170000  -10.261954      96.309272      326.36126    
   1180000  -6.3940212      92.248927      312.60205    
   1190000  -17.702794      77.246788      261.76461    
   1200000  -9.0749247      90.429858      306.43781    
   1210000   2.8033502      86.5893        293.42339    
   1220000  -5.8759907      91.130735      308.81286    
   1230000  -11.111073      93.809977      317.89195    
   1240000  -19.588752      95.580921      323.89311    
   1250000  -7.1413558      81.978296      277.79818    
   1260000  -9.6733605      75.25758       255.02382    
   1270000  -17.225552      84.426423      286.0941     
   1280000  -30.272815      91.440604      309.8629     
srun: Job step aborted: Waiting up to 47 seconds for job step to finish.
[2025-11-21T03:12:39.690] error: *** JOB 2471274 ON della-i13n25 CANCELLED AT 2025-11-21T03:12:39 DUE to SIGNAL Terminated ***
