LAMMPS (29 Aug 2024)
  using 1 OpenMP thread(s) per MPI task
  using 1 OpenMP thread(s) per MPI task
Reading data file ...
  orthogonal box = (-500.6 -500.6 -500.6) to (500.6 500.6 500.6)
  1 by 1 by 1 MPI processor grid
  reading atoms ...
  50 atoms
  scanning bonds ...
  1 = max bonds/atom
  scanning angles ...
  1 = max angles/atom
  orthogonal box = (-500.6 -500.6 -500.6) to (500.6 500.6 500.6)
  1 by 1 by 1 MPI processor grid
  reading bonds ...
  49 bonds
  reading angles ...
  48 angles
Finding 1-2 1-3 1-4 neighbors ...
  special bond factors lj:    0        0        0       
  special bond factors coul:  0        0        0       
     2 = max # of 1-2 neighbors
     2 = max # of 1-3 neighbors
     4 = max # of 1-4 neighbors
     6 = max # of special neighbors
  special bonds CPU = 0.000 seconds
  read_data CPU = 0.027 seconds
Finding 1-2 1-3 1-4 neighbors ...
  special bond factors lj:    0        0        1       
  special bond factors coul:  0        0        0       
     2 = max # of 1-2 neighbors
     2 = max # of 1-3 neighbors
     4 = max # of 1-4 neighbors
     6 = max # of special neighbors
  special bonds CPU = 0.000 seconds

CITE-CITE-CITE-CITE-CITE-CITE-CITE-CITE-CITE-CITE-CITE-CITE-CITE

Your simulation uses code contributions which should be cited:
- Type Label Framework: https://doi.org/10.1021/acs.jpcb.3c08419
The log file lists these citations in BibTeX format.

CITE-CITE-CITE-CITE-CITE-CITE-CITE-CITE-CITE-CITE-CITE-CITE-CITE

Generated 0 of 6 mixed pair_coeff terms from geometric mixing rule
Neighbor list info ...
  update: every = 10 steps, delay = 0 steps, check = yes
  max neighbors/atom: 2000, page size: 100000
  master list distance cutoff = 33
  ghost atom cutoff = 33
  binsize = 16.5, bins = 61 61 61
  2 neighbor lists, perpetual/occasional/extra = 2 0 0
  (1) pair lj/cut, perpetual, trim from (2)
      attributes: half, newton on, cut 25
      pair build: trim
      stencil: none
      bin: none
  (2) pair base/rna, perpetual
      attributes: half, newton on
      pair build: half/bin/newton
      stencil: half/bin/3d
      bin: standard
Setting up Verlet run ...
  Unit style    : real
  Current step  : 0
  Time step     : 10
Per MPI rank memory allocation (min/avg/max) = 8.368 | 8.368 | 8.368 Mbytes
   Step         PotEng         KinEng          Temp     
         0   65.797361      0              0            
     10000   30.230725      45.0163        308.20481    
     20000   30.83671       53.773781      368.16305    
     30000   29.295149      53.247132      364.55734    
     40000   32.786045      54.488345      373.05532    
     50000   26.677596      56.149093      384.42566    
     60000   24.984722      38.327643      262.41082    
     70000   28.956792      40.997135      280.68754    
     80000   27.373014      37.315697      255.48251    
     90000   24.927671      35.112472      240.39809    
    100000   31.803659      35.758545      244.82145    
    110000   24.283977      46.761482      320.15323    
    120000   21.482863      43.384482      297.03255    
    130000   31.292231      48.050947      328.98157    
    140000   18.910506      53.341216      365.20148    
    150000   11.983707      52.301468      358.08283    
    160000   9.6695301      60.919372      417.08545    
    170000   17.326686      49.700677      340.27647    
    180000   10.689726      43.250562      296.11566    
    190000   1.9916625      52.283433      357.95936    
    200000  -11.206435      52.720286      360.95027    
    210000  -7.2240813      45.702998      312.9063     
    220000  -17.989657      37.898752      259.4744     
    230000  -8.7450642      34.798893      238.25117    
    240000  -17.643793      48.37194       331.17925    
    250000  -22.067491      44.550259      305.01406    
    260000  -5.3780993      38.610917      264.35026    
    270000  -5.1191001      49.62678       339.77053    
    280000  -19.377112      47.362847      324.27048    
    290000  -9.5732603      42.267169      289.38284    
    300000  -17.241007      40.37318       276.41562    
    310000  -29.762687      31.973082      218.90421    
    320000  -28.214428      35.495513      243.02059    
    330000  -17.585622      40.988892      280.6311     
    340000   1.5955405      37.86584       259.24908    
    350000   1.9746437      43.980689      301.11448    
    360000   0.2294743      49.326082      337.7118     
    370000  -8.6165176      45.009185      308.1561     
    380000  -6.1161091      46.079245      315.48228    
    390000  -4.5767318      45.96145       314.67579    
    400000  -3.0874534      45.313746      310.24128    
    410000  -7.6012563      41.698037      285.48627    
    420000  -12.201962      44.446767      304.3055     
    430000  -14.721221      46.934193      321.3357     
    440000  -7.0241237      42.511204      291.05363    
    450000  -13.585743      46.161711      316.04688    
    460000  -10.137816      45.847162      313.89332    
    470000  -1.613869       43.669962      298.98709    
    480000  -8.6483177      47.247076      323.47785    
    490000  -8.2067272      48.925478      334.96906    
    500000  -10.806241      38.287274      262.13443    
    510000  -14.606253      49.591786      339.53095    
    520000  -1.46894        44.889066      307.3337     
    530000  -8.6877366      49.532586      339.12564    
    540000   2.2751091      41.873428      286.68709    
    550000   0.0052616973   45.77796       313.41953    
    560000   0.60630329     46.316975      317.1099     
    570000  -9.5663894      49.30283       337.55261    
    580000   4.5061486      58.375295      399.66738    
    590000   0.089274106    42.868729      293.50143    
    600000  -2.1776112      37.969625      259.95964    
    610000   0.012943089    46.986794      321.69583    
    620000   1.563021       54.335717      372.01034    
    630000  -1.3918257      44.375533      303.81779    
    640000  -0.32790506     42.528341      291.17096    
    650000  -2.5730302      43.889287      300.4887     
    660000   8.8745636      44.80767       306.77642    
    670000   22.470192      37.552465      257.10354    
    680000   22.911108      47.606081      325.93579    
    690000   23.882929      46.044356      315.24342    
    700000   25.39473       36.138696      247.42415    
    710000   28.855431      41.140904      281.67185    
    720000   20.453828      42.085735      288.14065    
    730000   29.917098      43.969297      301.03649    
    740000   24.013646      56.114856      384.19125    
    750000   22.303506      42.007215      287.60306    
    760000   20.25494       45.787739      313.48648    
    770000   17.625795      45.811173      313.64692    
    780000   15.584544      59.172575      405.12597    
    790000   24.288682      56.423132      386.30187    
    800000   8.9692552      52.237232      357.64304    
    810000   20.658905      44.766896      306.49726    
    820000   7.3753913      46.067241      315.40009    
    830000   5.2789402      35.140857      240.59243    
    840000  -2.460656       43.48752       297.73799    
    850000   5.3614392      38.74825       265.29051    
    860000   1.9699415      47.573313      325.71144    
    870000   14.466711      40.517362      277.40276    
    880000   15.907109      42.096395      288.21363    
    890000   10.804505      42.602313      291.67741    
    900000   3.8888309      46.513499      318.45541    
    910000   6.5172337      43.157327      295.47732    
    920000   14.255434      44.169772      302.40904    
    930000   14.763297      57.712472      395.12935    
    940000   12.107628      41.925459      287.04332    
    950000   6.1085907      46.197822      316.29412    
    960000   6.4006667      46.525337      318.53646    
    970000   8.8887536      41.320898      282.90418    
    980000   1.4587918      55.90833       382.77727    
    990000   0.96356082     47.742142      326.86733    
   1000000  -8.9532871      42.707813      292.39972    
   1010000  -8.921913       40.989563      280.63569    
   1020000  -14.578476      37.969049      259.95569    
   1030000  -8.1754994      35.08998       240.2441     
   1040000  -13.385931      43.430869      297.35014    
   1050000  -11.162306      37.761951      258.5378     
   1060000  -1.3257523      40.123074      274.70326    
   1070000  -7.4774476      39.786583      272.39947    
   1080000  -2.1680107      33.923255      232.25611    
   1090000  -9.2856485      46.071979      315.43254    
   1100000  -17.750347      59.532174      407.58798    
   1110000   9.9169924      44.057383      301.63957    
   1120000  -0.68117946     44.416885      304.10091    
   1130000  -6.2829616      44.167996      302.39688    
   1140000  -13.561481      48.268568      330.47152    
   1150000  -19.256173      54.458962      372.85415    
   1160000  -17.630182      46.724732      319.90162    
   1170000  -17.190748      37.68955       258.0421     
   1180000  -9.6672578      35.690084      244.35273    
   1190000  -7.3215742      45.178897      309.31804    
   1200000  -16.406623      40.815156      279.44161    
   1210000  -14.716688      40.101661      274.55666    
   1220000  -23.770016      42.499576      290.97402    
   1230000  -19.882974      48.68613       333.33036    
   1240000  -17.780635      44.749392      306.37742    
   1250000  -17.200761      37.91676       259.5977     
   1260000  -13.044992      35.193138      240.95038    
   1270000  -14.375419      44.730927      306.251      
   1280000  -6.9752541      43.818158      300.00172    
   1290000   2.0211628      43.702374      299.209      
   1300000   5.7623841      46.436781      317.93016    
   1310000  -6.1344721      43.208552      295.82804    
   1320000  -5.2992212      49.281206      337.40456    
   1330000  -7.0607494      40.164568      274.98735    
   1340000  -0.92621833     40.676992      278.49567    
   1350000  -0.62609157     41.735271      285.74119    
   1360000   0.53434546     44.138298      302.19356    
   1370000  -4.1146748      42.422668      290.44747    
   1380000  -6.0357624      47.914129      328.04485    
   1390000  -10.51083       50.295015      344.34562    
   1400000  -20.616948      40.532343      277.50533    
   1410000  -12.539822      37.030118      253.52729    
   1420000  -5.7299981      44.74517       306.34851    
   1430000  -14.002507      46.105275      315.6605     
   1440000  -13.191514      41.011348      280.78484    
   1450000  -13.011696      41.649174      285.15173    
   1460000  -16.374947      48.67379       333.24587    
   1470000  -12.632481      49.580271      339.45211    
   1480000  -15.254739      47.736337      326.82759    
   1490000  -14.207879      40.689128      278.57876    
   1500000  -14.53402       46.199906      316.30839    
   1510000  -26.724044      45.778307      313.4219     
   1520000  -23.58559       44.280924      303.17005    
   1530000  -10.459346      44.306495      303.34512    
   1540000  -13.136686      49.838025      341.21683    
   1550000  -6.5637282      47.638661      326.15885    
   1560000  -6.0901079      44.011741      301.32708    
   1570000  -10.095755      42.551828      291.33177    
   1580000  -14.327689      41.623777      284.97785    
   1590000  -8.9184195      44.3645        303.74226    
   1600000  -10.468955      46.004389      314.96978    
   1610000  -12.984063      40.17182       275.037      
   1620000  -11.422973      41.588175      284.7341     
   1630000  -2.8898148      37.140679      254.28425    
   1640000  -8.3761574      46.374863      317.50623    
   1650000  -13.566266      42.52528       291.15       
   1660000  -5.8743943      44.5792        305.2122     
   1670000  -17.252132      42.001211      287.56195    
   1680000  -12.533948      34.124827      233.63617    
   1690000  -14.930314      41.725274      285.67275    
   1700000  -21.720543      39.156863      268.08808    
   1710000  -11.029056      39.4025        269.76984    
   1720000  -4.1646302      39.740905      272.08674    
   1730000  -11.848864      50.200377      343.69767    
   1740000  -4.0032075      57.184203      391.51255    
   1750000   9.4515866      49.986087      342.23054    
   1760000   15.480279      45.076757      308.61873    
   1770000   11.265861      49.95747       342.03461    
   1780000  -8.5100165      41.473489      283.9489     
   1790000  -9.4301277      46.576754      318.88849    
   1800000  -0.58513304     45.954192      314.6261     
   1810000  -12.688734      50.092826      342.96132    
   1820000  -8.3317442      39.392001      269.69796    
   1830000  -3.2298042      40.844773      279.64439    
   1840000  -7.1432777      46.069624      315.41641    
   1850000  -14.962253      41.43443       283.68148    
   1860000  -19.822366      49.553042      339.26569    
   1870000  -16.465397      43.698829      299.18472    
   1880000  -10.440806      43.177585      295.61602    
   1890000  -11.903806      50.02084       342.46848    
   1900000  -12.497355      51.760827      354.38132    
   1910000  -11.653048      46.916679      321.21579    
   1920000  -9.7459083      45.306815      310.19383    
   1930000  -6.7319647      46.380414      317.54424    
   1940000   2.5706102      40.118273      274.67039    
   1950000  -7.9233321      40.033628      274.09087    
   1960000  -7.3000309      48.182341      329.88116    
   1970000  -6.728709       44.535893      304.9157     
   1980000   5.6256868      51.021575      349.32002    
   1990000  -7.0284211      50.520939      345.89241    
   2000000  -5.8406655      47.244327      323.45903    
   2010000   4.8580051      50.490892      345.68669    
   2020000  -1.9504035      47.070473      322.26874    
   2030000  -5.2262199      41.808153      286.24018    
   2040000  -5.0181463      49.365767      337.98351    
   2050000  -2.7339154      43.429043      297.33763    
   2060000   1.1949112      49.02344       335.63976    
   2070000   2.6974441      48.349587      331.02621    
   2080000  -3.2421914      40.577874      277.81706    
   2090000  -2.6789374      32.949675      225.59047    
   2100000  -7.0724044      39.436925      270.00554    
   2110000  -12.852744      36.579131      250.4396     
   2120000  -6.7480175      37.977146      260.01113    
   2130000  -3.1502954      44.494521      304.63244    
   2140000  -6.8216497      50.272483      344.19135    
   2150000  -0.22574452     41.825638      286.3599     
   2160000  -6.7843097      45.171421      309.26685    
   2170000  -5.4065174      48.525323      332.2294     
   2180000  -8.6992387      50.181246      343.5667     
   2190000   5.2991628      48.463372      331.80524    
   2200000  -18.659463      52.686722      360.72048    
   2210000  -15.03121       45.088238      308.69734    
   2220000  -5.4092211      28.741347      196.77809    
   2230000  -11.393481      51.61334       353.37155    
   2240000  -15.677632      40.605023      278.00294    
   2250000  -16.950609      45.569762      311.9941     
   2260000  -13.237278      49.402724      338.23653    
   2270000  -21.772924      59.393179      406.63634    
   2280000  -11.810293      37.174071      254.51287    
   2290000  -8.5301208      49.651927      339.94271    
   2300000   0.12223332     41.655305      285.19371    
   2310000  -1.8482887      48.627351      332.92793    
   2320000   5.5508395      40.403864      276.6257     
   2330000  -3.6712899      46.491316      318.30353    
   2340000  -2.330302       37.946584      259.80189    
   2350000   1.7322352      44.790697      306.66022    
   2360000  -18.825465      42.165839      288.68908    
   2370000  -17.465977      53.050951      363.21418    
   2380000  -13.465872      40.275476      275.74669    
   2390000   0.10608184     47.653107      326.25775    
   2400000  -18.895504      41.382988      283.32928    
   2410000  -14.258181      39.260044      268.79451    
   2420000  -12.507163      41.251856      282.43149    
   2430000  -9.1688556      36.554455      250.27065    
   2440000  -14.858637      44.710897      306.11386    
   2450000  -21.777384      53.697854      367.64321    
   2460000  -1.7346725      45.180614      309.32979    
   2470000   1.8310773      43.280982      296.32393    
   2480000  -5.4024175      53.61486       367.07499    
   2490000  -9.8932574      40.555333      277.66273    
   2500000  -22.480594      44.034662      301.48401    
   2510000  -3.5973277      37.38547       255.96021    
   2520000  -9.8920147      44.84001       306.99784    
   2530000  -14.79857       51.016169      349.28301    
   2540000  -21.137682      50.096342      342.9854     
   2550000  -15.624488      40.153468      274.91136    
   2560000  -6.1423778      48.428576      331.56701    
   2570000  -1.5581785      39.507606      270.48945    
   2580000  -4.4296264      47.197899      323.14116    
   2590000  -0.65639484     39.364467      269.50945    
   2600000   1.3619009      45.619735      312.33624    
   2610000   10.914862      41.549435      284.46887    
   2620000  -0.16428336     41.069103      281.18026    
   2630000  -7.4604959      44.181482      302.48922    
   2640000  -9.1967553      44.295506      303.26989    
   2650000  -5.6450497      41.594317      284.77615    
   2660000   0.71608159     41.901408      286.87865    
   2670000  -20.199712      51.660183      353.69226    
   2680000  -8.3293407      42.869479      293.50657    
   2690000  -9.4116302      49.186912      336.75897    
   2700000  -7.2031805      45.298174      310.13467    
   2710000  -12.973191      41.090794      281.32877    
   2720000  -17.720705      43.468097      297.60501    
   2730000  -15.858809      41.911607      286.94848    
   2740000  -7.2697462      48.077335      329.16224    
   2750000  -14.585451      54.011745      369.79227    
   2760000  -15.909505      40.645355      278.27907    
   2770000  -11.848016      41.494772      284.09462    
   2780000  -22.166738      45.288229      310.06658    
   2790000  -13.754954      34.145934      233.78068    
   2800000  -18.195325      42.146236      288.55487    
   2810000  -15.483378      54.214815      371.18259    
   2820000   0.04032537     44.210472      302.6877     
   2830000  -3.9222307      34.784305      238.15129    
   2840000  -11.055182      37.332492      255.5975     
   2850000  -30.055902      39.745069      272.11524    
   2860000  -22.202134      45.337132      310.40139    
   2870000  -19.844619      42.315453      289.71342    
   2880000  -22.140466      49.411082      338.29376    
   2890000  -21.528991      46.400951      317.68484    
   2900000  -26.866104      37.24015       254.96528    
   2910000  -13.963073      44.876706      307.24908    
   2920000  -18.770673      49.649233      339.92426    
   2930000  -12.765085      42.252517      289.28253    
   2940000  -32.179628      43.683297      299.07838    
   2950000  -20.575511      41.993151      287.50677    
   2960000  -11.040085      39.142093      267.98696    
   2970000  -7.5227445      35.966725      246.24675    
   2980000  -7.1348336      49.529974      339.10776    
   2990000  -9.9697537      47.068534      322.25547    
   3000000  -8.8975783      43.745101      299.50153    
   3010000  -4.7899211      44.149974      302.27349    
   3020000  -9.6767299      47.091928      322.41563    
   3030000  -10.661112      53.381311      365.47599    
   3040000  -4.2768667      40.137401      274.80135    
   3050000  -8.1482737      52.946775      362.50093    
   3060000   20.054936      35.062699      240.05732    
   3070000  -5.3663659      41.658626      285.21644    
   3080000  -17.339558      41.120265      281.53054    
   3090000  -25.37321       43.078446      294.93727    
   3100000  -20.475779      43.344331      296.75765    
   3110000  -19.382085      42.541291      291.25962    
   3120000  -18.321983      38.951558      266.68246    
   3130000  -24.61249       41.409181      283.50861    
   3140000  -10.856277      31.694407      216.99626    
   3150000  -22.069527      50.026096      342.50446    
   3160000  -12.075517      48.00098       328.63947    
   3170000  -4.9951791      50.572913      346.24825    
   3180000   1.271932       59.742771      409.02983    
   3190000   2.9614337      48.331981      330.90567    
   3200000   0.63303023     45.963908      314.69262    
   3210000   0.11523159     51.548624      352.92847    
   3220000  -1.27642        50.190163      343.62775    
   3230000  -1.0503738      48.370675      331.1706     
   3240000  -3.2122186      42.60365       291.68657    
   3250000  -15.208395      39.025724      267.19024    
   3260000  -3.5534861      47.217944      323.2784     
   3270000  -0.47634637     40.682681      278.53462    
   3280000   5.5781342      39.965353      273.62343    
   3290000   13.90081       39.222846      268.53984    
   3300000   2.9229431      44.54786       304.99763    
   3310000  -8.8020848      40.505348      277.32051    
   3320000  -7.4268852      44.388894      303.90927    
   3330000  -18.878636      50.446702      345.38415    
   3340000  -11.224115      48.451324      331.72276    
   3350000  -1.6790136      41.868002      286.64994    
   3360000  -10.341741      51.454041      352.28091    
   3370000  -4.531798       50.158989      343.41431    
   3380000  -0.91895664     44.239294      302.88503    
   3390000  -10.643683      41.885091      286.76694    
   3400000  -5.2734618      45.238026      309.72286    
   3410000  -17.059919      44.670697      305.83863    
   3420000  -16.922218      43.893084      300.51469    
   3430000  -16.631711      45.872291      314.06537    
   3440000  -18.078415      44.165035      302.37662    
   3450000  -8.4816331      43.690738      299.12933    
   3460000  -11.347869      46.501518      318.37338    
   3470000   2.5829629      39.513983      270.53311    
   3480000  -8.8485346      46.265719      316.75898    
   3490000  -4.5721856      48.046936      328.95411    
   3500000  -0.78678217     35.59884       243.72803    
   3510000   5.1594495      39.242612      268.67516    
   3520000  -0.78908498     38.424393      263.07321    
   3530000  -7.6219182      40.8218        279.4871     
   3540000  -5.3820039      41.493185      284.08375    
   3550000  -14.056426      41.536242      284.37854    
   3560000  -24.694476      42.928838      293.91297    
   3570000  -26.759508      44.928922      307.60658    
   3580000  -34.416264      41.929105      287.06828    
   3590000  -26.595032      31.824353      217.88594    
   3600000  -26.742928      39.102495      267.71585    
   3610000  -31.127897      45.664219      312.6408     
   3620000  -15.594752      45.314721      310.24796    
   3630000  -20.840038      45.459009      311.23582    
   3640000  -15.173095      39.169161      268.17228    
   3650000  -21.279906      48.005483      328.6703     
   3660000  -14.926631      42.430143      290.49864    
   3670000  -34.90193       56.913431      389.65871    
   3680000  -9.8880789      47.992797      328.58345    
   3690000  -21.108242      40.406797      276.64578    
   3700000  -18.658693      42.646281      291.97844    
   3710000  -12.640267      42.167232      288.69862    
   3720000  -26.416372      50.121913      343.16047    
   3730000  -8.6089768      40.575137      277.79832    
   3740000  -0.7836924      42.140644      288.51659    
   3750000  -16.864017      53.592151      366.91951    
   3760000  -3.0586137      49.312405      337.61817    
   3770000  -5.625583       53.600809      366.97879    
   3780000  -2.113451       38.901122      266.33715    
   3790000   1.057748       40.696078      278.62634    
   3800000  -8.631209       47.937686      328.20612    
   3810000  -10.984017      43.640516      298.78548    
   3820000  -13.189401      51.154499      350.23009    
   3830000  -18.142662      42.758405      292.7461     
   3840000  -18.294095      36.089302      247.08598    
   3850000  -22.891408      45.507284      311.56634    
   3860000  -13.828837      52.511883      359.52344    
   3870000  -12.392976      54.925744      376.04998    
   3880000  -13.447653      41.889913      286.79995    
   3890000  -18.77116       48.103514      329.34147    
   3900000  -9.8047417      34.492723      236.15498    
   3910000  -21.968015      44.806614      306.76919    
   3920000  -20.417711      38.814981      265.74738    
   3930000  -18.699935      40.19593       275.20207    
   3940000  -21.117717      48.882699      334.67618    
   3950000  -7.9403862      45.876519      314.09431    
   3960000  -5.879095       46.723404      319.89252    
   3970000  -6.4157436      51.046475      349.4905     
   3980000   1.5951549      39.997765      273.84533    
   3990000  -1.9396685      40.653658      278.33592    
   4000000  -1.4932018      49.734271      340.50648    
Loop time of 118.361 on 1 procs for 4000000 steps with 50 atoms

Performance: 29198.711 ns/day, 0.001 hours/ns, 33794.804 timesteps/s, 1.690 Matom-step/s
99.2% CPU use with 1 MPI tasks x 1 OpenMP threads

MPI task timing breakdown:
Section |  min time  |  avg time  |  max time  |%varavg| %total
---------------------------------------------------------------
Pair    | 100.62     | 100.62     | 100.62     |   0.0 | 85.01
Bond    | 9.5373     | 9.5373     | 9.5373     |   0.0 |  8.06
Neigh   | 1.1718     | 1.1718     | 1.1718     |   0.0 |  0.99
Comm    | 1.6859     | 1.6859     | 1.6859     |   0.0 |  1.42
Output  | 0.069801   | 0.069801   | 0.069801   |   0.0 |  0.06
Modify  | 4.6656     | 4.6656     | 4.6656     |   0.0 |  3.94
Other   |            | 0.6085     |            |       |  0.51

Nlocal:             50 ave          50 max          50 min
Histogram: 1 0 0 0 0 0 0 0 0 0
Nghost:              0 ave           0 max           0 min
Histogram: 1 0 0 0 0 0 0 0 0 0
Neighs:            359 ave         359 max         359 min
Histogram: 1 0 0 0 0 0 0 0 0 0

Total # of neighbors = 359
Ave neighs/atom = 7.18
Ave special neighs/atom = 5.76
Neighbor list builds = 8293
Dangerous builds = 0
Generated 0 of 6 mixed pair_coeff terms from geometric mixing rule
Setting up Verlet run ...
  Unit style    : real
  Current step  : 4000000
  Time step     : 10
Per MPI rank memory allocation (min/avg/max) = 9.625 | 9.625 | 9.625 Mbytes
   Step         PotEng         KinEng          Temp     
   4000000  -1.4932018      49.734271      340.50648    
   4010000  -3.9858702      37.314609      255.47506    
   4020000  -9.4241911      51.824301      354.8159     
   4030000  -8.6925629      51.982474      355.89883    
   4040000   8.390083       43.136755      295.33648    
   4050000  -6.8306588      41.022693      280.86252    
   4060000  -13.279627      44.267857      303.08059    
   4070000  -23.274612      40.50908       277.34606    
   4080000  -21.652523      33.247289      227.62809    
   4090000  -29.979089      48.439064      331.63882    
   4100000  -16.055655      42.825599      293.20614    
   4110000  -17.851441      40.802233      279.35313    
   4120000  -21.634877      39.270681      268.86734    
   4130000  -25.403756      44.200724      302.62096    
   4140000  -11.26748       41.90374       286.89462    
   4150000  -8.284492       45.805619      313.6089     
   4160000  -4.1578506      45.895471      314.22407    
   4170000  -23.715687      43.948538      300.89436    
   4180000  -10.154885      41.743829      285.79978    
   4190000  -4.0186782      47.076014      322.30668    
   4200000  -9.9465428      49.180293      336.71366    
   4210000   1.5088312      43.620194      298.64635    
   4220000  -13.254999      49.605605      339.62556    
   4230000  -20.089555      55.0284        376.75281    
   4240000  -11.041413      50.121944      343.16068    
   4250000   5.2713539      39.890949      273.11401    
   4260000  -0.92227624     42.704546      292.37735    
   4270000   12.899111      39.860659      272.90664    
   4280000  -7.9057332      45.488295      311.43633    
   4290000  -11.433721      46.217269      316.42727    
   4300000   2.2235489      43.181941      295.64585    
   4310000  -2.4069575      42.169791      288.71614    
   4320000   1.5475908      51.073158      349.67319    
   4330000   7.7519767      41.674217      285.32319    
   4340000   5.5157697      41.070037      281.18666    
   4350000   8.5041519      47.425515      324.69954    
   4360000   14.027804      46.107542      315.67602    
   4370000   10.664207      48.033969      328.86533    
   4380000   6.2606131      50.914621      348.58776    
   4390000   9.7566778      52.479702      359.30311    
   4400000   5.5640577      57.285667      392.20723    
   4410000   15.004468      43.241577      296.05415    
   4420000   6.0513298      47.54607       325.52492    
   4430000  -4.0448005      41.156826      281.78086    
   4440000  -14.56899       47.345161      324.14939    
   4450000  -7.2696345      50.672158      346.92773    
   4460000  -13.545971      45.819603      313.70464    
   4470000  -9.0080345      43.646367      298.82554    
   4480000   4.1470816      37.970744      259.9673     
   4490000  -5.1565685      57.863753      396.1651     
   4500000  -1.1998777      49.370155      338.01355    
   4510000  -2.5577254      54.507044      373.18334    
   4520000   3.2740125      48.297736      330.67121    
   4530000  -0.44975355     44.696488      306.01522    
   4540000   8.5745048      43.855437      300.25695    
   4550000   9.0971346      41.834492      286.42051    
   4560000  -1.7026934      44.00864       301.30585    
   4570000  -0.32304605     43.67383       299.01357    
   4580000  -2.5343034      41.139631      281.66314    
   4590000  -2.306268       37.393325      256.01399    
   4600000  -15.899428      47.560401      325.62304    
   4610000  -7.2515152      41.581267      284.6868     
   4620000   0.78097878     51.288834      351.14982    
   4630000   4.7363064      48.158131      329.71541    
   4640000   4.1999639      41.397522      283.42879    
   4650000   4.4791481      41.845692      286.49719    
   4660000   3.3459728      44.86365       307.15969    
   4670000  -1.5128647      43.069262      294.87438    
   4680000  -10.381568      51.507103      352.6442     
   4690000   3.774652       38.261453      261.95764    
   4700000  -5.7441498      43.362949      296.88512    
   4710000  -13.086379      42.756381      292.73224    
   4720000   3.4758778      39.717805      271.92858    
   4730000  -8.4734399      46.265887      316.76013    
   4740000  -1.9582884      51.167589      350.31971    
   4750000  -8.0306339      45.089748      308.70768    
   4760000  -5.736392       44.590493      305.28952    
   4770000  -1.0254616      50.248817      344.02932    
   4780000   5.3682419      58.559789      400.93053    
   4790000  -8.0728982      63.218083      432.82361    
   4800000   0.24831685     45.899864      314.25414    
   4810000   2.0224729      46.866604      320.87295    
   4820000  -7.131602       51.912857      355.4222     
   4830000  -2.1386905      44.888751      307.33154    
   4840000  -2.2836272      58.393706      399.79343    
   4850000  -12.304021      52.116611      356.8172     
   4860000  -15.754758      48.419766      331.50669    
   4870000  -13.162725      46.352459      317.35285    
   4880000   0.24879708     46.612679      319.13444    
   4890000   11.713277      50.81208       347.88571    
   4900000   10.187412      50.602859      346.45327    
   4910000   14.230054      49.74875       340.6056     
   4920000   6.2523275      52.023814      356.18187    
   4930000   8.8799904      44.887976      307.32624    
   4940000   17.058446      44.029884      301.4513     
   4950000   6.1721624      56.718775      388.32599    
   4960000   4.9801888      46.65425       319.41906    
   4970000   2.4062779      55.299531      378.60911    
   4980000   6.4033753      58.364419      399.59292    
   4990000   7.3165901      57.357629      392.69991    
   5000000   4.9742219      50.635018      346.67345    
   5010000   7.0481505      48.426719      331.5543     
   5020000  -7.4867117      44.920223      307.54702    
   5030000  -9.8841093      52.57031       359.92346    
   5040000   5.9547989      48.665241      333.18735    
   5050000   0.53670814     51.097906      349.84263    
   5060000  -10.353293      49.599989      339.58711    
   5070000  -0.55078326     41.060841      281.1237     
   5080000   7.5627567      40.234122      275.46355    
   5090000  -5.0939641      49.770742      340.75618    
   5100000  -5.5865415      48.020013      328.76978    
   5110000  -7.3177328      58.96338       403.69372    
   5120000   7.8815843      53.288309      364.83925    
   5130000   7.176555       47.86478       327.70697    
   5140000   4.1065162      39.094176      267.6589     
   5150000  -1.2359057      44.425974      304.16313    
   5160000  -5.6357816      48.143429      329.61475    
   5170000  -9.0558356      33.72842       230.92216    
   5180000   6.7831648      37.447026      256.38166    
   5190000  -2.3068511      48.182179      329.88005    
   5200000   5.7474718      41.298726      282.75238    
   5210000   4.5565761      46.972366      321.59705    
   5220000   8.3521341      39.281912      268.94423    
   5230000   4.8066231      43.082232      294.96318    
   5240000   0.70889301     35.092607      240.26209    
   5250000   0.1318321      45.443085      311.1268     
   5260000   6.0383237      49.241937      337.1357     
   5270000   10.338409      48.630077      332.94659    
   5280000   10.836465      47.867842      327.72794    
   5290000   6.1632572      51.34871       351.55976    
   5300000   17.832218      40.447317      276.9232     
   5310000   3.4363092      59.223399      405.47394    
   5320000  -0.79287975     38.30308       262.24264    
   5330000  -7.2901738      44.72513       306.21131    
   5340000  -7.3970107      57.394027      392.94911    
   5350000  -1.2570059      48.862842      334.54022    
   5360000  -8.4236573      49.61288       339.67537    
   5370000   1.1657611      44.444159      304.28764    
   5380000  -24.67245       52.110961      356.77852    
   5390000  -9.6420295      54.585006      373.71711    
   5400000  -11.125306      45.11331       308.86899    
   5410000  -6.7917893      50.190886      343.6327     
   5420000   6.0209781      49.194705      336.81233    
   5430000   3.0128596      49.717869      340.39418    
   5440000   2.2462509      53.223548      364.39586    
   5450000   2.9329745      53.200138      364.23558    
   5460000   17.878794      52.074767      356.53072    
   5470000   25.786908      46.827753      320.60695    
   5480000   16.156685      61.337061      419.94516    
   5490000   20.628813      55.072216      377.0528     
   5500000   19.46599       47.096919      322.4498     
   5510000   13.009433      47.317655      323.96108    
   5520000   5.5248863      53.266355      364.68894    
   5530000   10.728939      54.900507      375.87719    
   5540000   13.638962      54.239787      371.35356    
   5550000  -1.6857642      49.90818       341.69715    
   5560000  -3.5034475      39.351047      269.41757    
   5570000  -12.189065      42.738976      292.61308    
   5580000  -8.6266653      42.431484      290.50783    
   5590000  -11.983151      49.463392      338.6519     
   5600000  -10.197314      47.088995      322.39555    
   5610000  -8.0049929      49.62829       339.78087    
   5620000   4.5566774      46.046725      315.25964    
   5630000   16.518156      52.016691      356.1331     
   5640000   10.691132      47.290236      323.77335    
   5650000   22.064299      44.350964      303.64958    
   5660000   23.489556      48.522593      332.2107     
   5670000   14.436795      49.28605       337.43772    
   5680000   17.554291      54.20344       371.10471    
   5690000   18.600506      50.480433      345.61509    
   5700000   6.6173681      57.158361      391.33563    
   5710000   17.22891       53.984359      369.60477    
   5720000   9.0225498      53.104053      363.57774    
   5730000   15.150897      46.663025      319.47914    
   5740000   12.66119       56.854142      389.25279    
   5750000   14.691069      47.683294      326.46443    
   5760000   11.74303       55.2356        378.17141    
   5770000   5.4238993      52.335627      358.3167     
   5780000   12.314252      48.741399      333.70876    
   5790000   22.334603      46.222998      316.46649    
   5800000   29.023342      45.580534      312.06785    
   5810000   6.9805366      56.339025      385.72603    
   5820000   5.7139183      43.142234      295.37399    
   5830000   5.4128731      49.629539      339.78942    
   5840000   12.64103       54.993959      376.51701    
   5850000   15.935693      51.804218      354.6784     
   5860000   15.760295      45.483939      311.40651    
   5870000   5.6946942      57.045988      390.56626    
   5880000   16.563575      53.911257      369.10428    
   5890000   15.691967      54.088429      370.31729    
   5900000   16.419221      57.01764       390.37217    
   5910000   16.926676      56.864229      389.32185    
   5920000   14.577263      53.818228      368.46735    
   5930000   6.8046204      62.334822      426.77635    
   5940000   6.4858896      58.165188      398.22888    
   5950000   7.0340462      37.238755      254.95573    
   5960000   0.35934102     50.563404      346.18315    
   5970000  -6.3955675      50.432204      345.28488    
   5980000   5.3434993      53.145451      363.86117    
   5990000   5.9466719      42.622181      291.81344    
   6000000   4.4305254      52.723515      360.97238    
   6010000   2.5493036      52.490204      359.37501    
   6020000   7.9181523      58.99885       403.93656    
   6030000   20.203073      49.340443      337.81012    
   6040000   14.912342      65.913345      451.27676    
   6050000   16.954355      49.833966      341.18904    
   6060000   17.484397      53.430322      365.81155    
   6070000   14.186781      56.825824      389.05891    
   6080000   11.418778      46.645445      319.35878    
   6090000   11.266029      58.476337      400.35917    
   6100000   10.685619      49.810237      341.02658    
   6110000   20.390439      50.022648      342.48085    
   6120000   29.211241      54.695265      374.472      
   6130000   20.086007      50.741706      347.4039     
   6140000   14.990581      51.244971      350.84951    
   6150000   15.750558      59.231698      405.53076    
   6160000   22.868679      43.233615      295.99963    
   6170000   14.704181      63.691323      436.06365    
   6180000   23.293218      67.591127      462.76372    
   6190000   20.714508      55.168869      377.71453    
   6200000   15.160686      65.966339      451.63958    
   6210000   28.042792      52.112639      356.79001    
   6220000   16.907126      54.011098      369.78784    
   6230000   30.95092       57.453205      393.35428    
   6240000   21.786893      57.423281      393.1494     
   6250000   16.533761      44.111862      302.01257    
   6260000   20.262038      49.980095      342.18951    
   6270000   14.160142      57.113769      391.03033    
   6280000   9.5051911      58.322794      399.30793    
   6290000   13.13381       51.974587      355.84483    
   6300000   13.766042      57.789726      395.65828    
   6310000   6.0134318      52.458577      359.15848    
   6320000   5.7981654      52.084981      356.60065    
   6330000   17.063006      61.65193       422.10092    
   6340000   19.346264      50.051959      342.68153    
   6350000   9.5013014      63.160502      432.42938    
   6360000   10.640515      57.22499       391.7918     
   6370000   13.465462      62.066439      424.93886    
   6380000   25.366092      57.126691      391.1188     
   6390000   9.4100101      64.181609      439.4204     
   6400000   6.5827353      56.626145      387.6918     
   6410000   4.2124978      45.359538      310.5548     
   6420000   2.0599509      49.990339      342.25965    
   6430000   2.4606091      57.598376      394.3482     
   6440000   9.468542       59.18111       405.18441    
   6450000   6.3376642      51.297487      351.20906    
   6460000   12.915486      49.79854       340.94649    
   6470000   15.965051      55.192188      377.87419    
   6480000   7.0169565      59.978523      410.64391    
   6490000   5.797131       60.371956      413.33755    
   6500000   27.86266       47.392099      324.47076    
   6510000   20.457669      67.466901      461.91321    
   6520000   17.705122      51.093269      349.81087    
   6530000   25.08644       46.012343      315.02424    
   6540000   24.231531      51.536586      352.84605    
   6550000   12.054087      57.77366       395.54828    
   6560000   19.183598      59.777347      409.26656    
   6570000   5.6347198      63.851244      437.15855    
   6580000   21.219356      56.427219      386.32985    
   6590000   24.806749      48.033675      328.86332    
   6600000   11.565673      48.156617      329.70504    
   6610000   21.534561      48.500686      332.06071    
   6620000   7.7787133      63.949365      437.83034    
   6630000   18.621406      57.035571      390.49494    
   6640000   25.606802      48.05788       329.02904    
   6650000   21.194424      54.744139      374.80662    
   6660000   18.484762      54.956611      376.26131    
   6670000   8.9505778      50.559408      346.15579    
   6680000  -0.36052734     59.304069      406.02625    
   6690000   0.4709044      60.591001      414.83725    
   6700000   4.5320901      51.283214      351.11134    
   6710000   13.00263       51.145781      350.1704     
   6720000   25.47071       48.902144      334.80931    
   6730000   24.999147      59.689747      408.6668     
   6740000   28.708877      56.574768      387.34005    
   6750000   32.774362      60.272656      412.65769    
   6760000   32.693255      54.491108      373.07424    
   6770000   40.713405      51.186697      350.45053    
   6780000   37.834522      40.377451      276.44486    
   6790000   24.150193      52.091557      356.64567    
   6800000   37.831082      65.773349      450.31827    
   6810000   36.305412      60.778696      416.1223     
   6820000   31.860149      65.242564      446.68425    
   6830000   49.156434      56.686905      388.10779    
   6840000   38.416327      53.748075      367.98705    
   6850000   36.290769      69.685246      477.10114    
   6860000   43.038618      65.710844      449.89033    
   6870000   26.008466      57.36216       392.73094    
   6880000   24.100605      56.516029      386.93789    
   6890000   27.175687      69.074356      472.91868    
   6900000   31.170744      65.709819      449.88332    
   6910000   31.729474      55.286253      378.51821    
   6920000   39.832486      64.283134      440.1155     
   6930000   37.30255       61.207075      419.05521    
   6940000   31.844694      46.179315      316.16741    
   6950000   28.535862      46.143921      315.92509    
   6960000   32.98351       53.186725      364.14376    
   6970000   35.100383      53.603971      367.00043    
   6980000   40.072834      40.931576      280.23868    
   6990000   33.595834      53.48514       366.18686    
   7000000   20.345216      46.914647      321.20187    
   7010000   24.565592      51.468653      352.38095    
   7020000   23.464879      47.374231      324.34842    
   7030000   5.4110174      60.558653      414.61578    
   7040000   1.482459       57.98511       396.99597    
   7050000   14.179623      53.159994      363.96074    
   7060000   25.948544      54.265573      371.5301     
   7070000   24.828878      53.274198      364.74264    
   7080000   33.609812      56.52563       387.00362    
   7090000   30.124394      60.040656      411.0693     
   7100000   36.718149      55.404598      379.32846    
   7110000   26.934504      50.77616       347.63979    
   7120000   34.866476      57.173172      391.43703    
   7130000   24.144431      46.146474      315.94256    
   7140000   36.224979      44.126729      302.11435    
   7150000   33.345784      54.477859      372.98353    
   7160000   34.415216      48.821767      334.259      
   7170000   41.707896      47.961317      328.36792    
   7180000   36.244363      45.140058      309.05212    
   7190000   29.601593      48.000008      328.63282    
   7200000   29.12509       69.27509       474.293      
   7210000   26.385174      60.93032       417.1604     
   7220000   20.401141      63.257303      433.09213    
   7230000   31.750745      69.447543      475.4737     
   7240000   34.279143      55.427802      379.48733    
   7250000   39.217852      54.864382      375.62986    
   7260000   34.101864      58.245161      398.77642    
   7270000   39.696818      56.503898      386.85483    
   7280000   25.637347      58.293388      399.1066     
   7290000   34.349506      54.855867      375.57156    
   7300000   39.151244      53.898859      369.0194     
   7310000   45.728133      46.66289       319.47822    
   7320000   30.323409      65.914511      451.28475    
   7330000   37.863227      62.201749      425.86526    
   7340000   30.093506      56.14932       384.42721    
   7350000   34.160395      64.479333      441.45877    
   7360000   38.607242      56.343422      385.75613    
   7370000   33.29036       65.400351      447.76454    
   7380000   37.258531      51.552956      352.95813    
   7390000   31.866833      49.278125      337.38346    
   7400000   36.818614      59.428683      406.87942    
   7410000   35.43658       55.354112      378.98281    
   7420000   32.167808      60.119364      411.60818    
   7430000   32.957206      57.993598      397.05409    
   7440000   32.366687      48.956168      335.17918    
   7450000   27.312361      67.482994      462.02339    
   7460000   39.42293       61.322703      419.84686    
   7470000   24.536532      54.679066      374.36109    
   7480000   31.100045      55.094149      377.20296    
   7490000   35.763966      54.543198      373.43087    
   7500000   34.074868      58.034444      397.33374    
   7510000   36.943236      57.42072       393.13187    
   7520000   35.022286      49.232255      337.06941    
   7530000   29.896823      55.310378      378.68338    
   7540000   32.436708      52.529736      359.64567    
   7550000   31.838091      55.814098      382.13211    
   7560000   36.90425       53.34064       365.19754    
   7570000   35.136694      59.365378      406.446      
   7580000   45.081435      65.523006      448.6043     
   7590000   37.588128      59.136737      404.88061    
   7600000   31.723442      55.01702       376.6749     
   7610000   37.715286      60.103897      411.50228    
   7620000   29.026966      60.023734      410.95345    
   7630000   34.21358       66.223304      453.3989     
   7640000   30.042292      64.251133      439.8964     
   7650000   34.435799      55.736927      381.60375    
   7660000   30.294643      55.288531      378.53381    
   7670000   30.346579      51.585386      353.18017    
   7680000   33.520159      50.767955      347.58361    
   7690000   48.90581       56.00909       383.46712    
   7700000   29.345135      62.675482      429.10868    
   7710000   44.762891      50.094297      342.9714     
   7720000   36.850365      65.73623       450.06414    
   7730000   32.84469       56.655453      387.89246    
   7740000   39.128813      55.213172      378.01786    
   7750000   36.068084      52.484769      359.3378     
   7760000   35.459348      61.1313        418.53641    
   7770000   43.411009      57.3981        392.977      
   7780000   36.501406      67.599775      462.82293    
   7790000   32.377749      61.380323      420.24135    
   7800000   38.445202      71.125413      486.96127    
   7810000   37.986972      69.893492      478.5269     
   7820000   47.650935      59.18043       405.17975    
   7830000   39.128541      60.520079      414.35168    
   7840000   34.821516      67.913851      464.97325    
   7850000   43.115839      64.803192      443.67608    
   7860000   42.610946      71.477858      489.37429    
   7870000   44.387741      58.487817      400.43777    
   7880000   40.224908      66.450654      454.95546    
   7890000   39.282681      59.397131      406.6634     
   7900000   36.155429      62.570852      428.39233    
   7910000   40.05972       58.715276      401.99507    
   7920000   48.475019      57.205074      391.65545    
   7930000   34.307004      58.724116      402.05559    
   7940000   44.395066      49.709613      340.33765    
   7950000   46.599732      62.132267      425.38955    
   7960000   36.519743      62.915777      430.75386    
   7970000   41.399417      67.584055      462.7153     
   7980000   39.042926      48.713809      333.51987    
   7990000   38.865546      47.65221       326.25161    
   8000000   33.41249       55.326162      378.79144    
   8010000   25.671706      54.381729      372.32537    
   8020000   27.645414      50.513127      345.83892    
   8030000   26.032838      56.237597      385.0316     
   8040000   19.889655      65.762079      450.24112    
   8050000   38.750512      61.732108      422.64986    
   8060000   49.182012      56.505017      386.86249    
   8070000   37.266631      68.901885      471.73785    
   8080000   35.427501      49.889384      341.56846    
   8090000   36.945829      63.948975      437.82767    
   8100000   35.567723      61.81029       423.18513    
   8110000   41.345304      57.684995      394.94124    
   8120000   33.779651      62.594992      428.55761    
   8130000   35.11104       57.578104      394.2094     
   8140000   37.994724      57.570013      394.15401    
   8150000   39.474792      47.62729       326.08099    
   8160000   30.608077      51.69531       353.93276    
   8170000   44.519747      62.437523      427.47949    
   8180000   41.890658      55.998738      383.39625    
   8190000   36.754761      74.079153      507.1841     
   8200000   43.412431      55.232142      378.14774    
   8210000   26.848554      64.422393      441.06893    
   8220000   31.724818      56.264882      385.21841    
   8230000   48.353023      57.329886      392.50997    
   8240000   27.820702      48.971933      335.28712    
   8250000   34.904116      53.896122      369.00065    
   8260000   34.422359      63.057645      431.72517    
   8270000   39.686055      62.224019      426.01774    
   8280000   34.493857      67.290669      460.70663    
   8290000   43.648328      67.871408      464.68267    
   8300000   34.1499        64.538556      441.86425    
   8310000   46.691847      74.426273      509.56066    
   8320000   49.041453      49.499319      338.89787    
   8330000   47.738717      57.074208      390.75947    
   8340000   41.520399      71.363326      488.59014    
   8350000   36.541783      63.091865      431.95945    
   8360000   54.651264      47.243645      323.45437    
   8370000   42.107901      57.851139      396.07874    
   8380000   39.610073      63.213842      432.79457    
   8390000   50.133914      72.018547      493.07612    
   8400000   38.149224      55.489262      379.90812    
   8410000   31.002486      69.270882      474.26419    
   8420000   43.466683      65.123814      445.87122    
   8430000   30.848146      71.285381      488.05649    
   8440000   41.00373       58.737676      402.14843    
   8450000   42.816744      50.256372      344.08105    
   8460000   30.580464      58.008653      397.15716    
   8470000   31.493083      63.857651      437.20242    
   8480000   39.954059      52.337904      358.33229    
   8490000   35.62799       57.775965      395.56406    
   8500000   37.206212      68.778389      470.89233    
   8510000   43.332995      68.58673       469.58014    
   8520000   41.163963      59.95729       410.49854    
   8530000   46.136641      56.085339      383.98916    
   8540000   44.521595      58.230402      398.67537    
   8550000   32.910472      68.398132      468.28889    
   8560000   33.28112       70.543682      482.97844    
   8570000   39.317537      67.652926      463.18683    
   8580000   39.505469      64.907355      444.38923    
   8590000   37.518388      68.308862      467.67771    
   8600000   38.701639      57.257106      392.01168    
   8610000   35.714787      61.650838      422.09344    
   8620000   51.094621      67.607355      462.87483    
   8630000   31.894679      65.747819      450.14348    
   8640000   35.007359      68.706769      470.40198    
   8650000   53.921125      63.64276       435.73117    
   8660000   37.902033      73.440325      502.81035    
   8670000   36.376536      50.11293       343.09897    
   8680000   45.384141      54.092672      370.34633    
   8690000   36.726075      50.417609      345.18496    
   8700000   39.504818      59.078515      404.48199    
   8710000   34.103063      68.165437      466.69575    
   8720000   31.746921      75.104254      514.20247    
   8730000   41.374021      58.527741      400.71111    
   8740000   37.457225      57.371082      392.79203    
   8750000   46.871084      46.705744      319.77162    
   8760000   40.278212      74.308077      508.75143    
   8770000   46.332076      63.713056      436.21245    
   8780000   51.152675      66.642032      456.26573    
   8790000   41.484464      62.732927      429.50198    
   8800000   44.194529      59.361486      406.41935    
   8810000   32.50202       59.496371      407.34284    
   8820000   37.112845      59.463773      407.11967    
   8830000   23.282131      51.286698      351.13519    
   8840000   26.38519       50.038664      342.59051    
   8850000   27.138439      62.416579      427.3361     
   8860000   15.991422      57.053808      390.6198     
   8870000   21.902955      54.431441      372.66572    
   8880000   22.713651      65.895014      451.15126    
   8890000   36.095564      50.573135      346.24977    
   8900000   23.06976       81.224131      556.1023     
   8910000   29.764959      73.569773      503.69661    
   8920000   32.455526      73.370308      502.33098    
   8930000   48.624105      51.246565      350.86042    
   8940000   37.266359      65.216083      446.50295    
   8950000   30.996345      73.194657      501.12838    
   8960000   36.142436      58.718693      402.01846    
   8970000   52.618134      68.343661      467.91596    
   8980000   50.409137      57.554157      394.04545    
   8990000   41.754367      50.580413      346.2996     
   9000000   39.049003      67.363406      461.20463    
   9010000   42.347875      70.01668       479.37031    
   9020000   36.280347      76.279715      522.25028    
   9030000   42.692145      70.265849      481.07625    
   9040000   41.495404      59.70261       408.75487    
   9050000   43.188071      62.872182      430.45539    
   9060000   34.939463      68.487909      468.90355    
   9070000   41.291366      81.757399      559.75333    
   9080000   46.946134      75.509175      516.97476    
   9090000   43.887152      57.764058      395.48254    
   9100000   40.439636      62.350877      426.88627    
   9110000   42.059178      53.34113       365.20089    
   9120000   27.568353      66.175828      453.07386    
   9130000   37.748614      50.315906      344.48865    
   9140000   37.355995      59.476054      407.20374    
   9150000   40.865137      69.2771        474.30677    
   9160000   36.339989      59.717192      408.8547     
   9170000   31.187577      71.870875      492.06508    
   9180000   44.533404      63.478939      434.60956    
   9190000   35.444899      62.331926      426.75652    
   9200000   37.307643      61.489122      420.98625    
   9210000   35.466949      54.973818      376.37912    
   9220000   38.871562      68.424571      468.46991    
   9230000   34.660462      57.027714      390.44115    
   9240000   38.541198      71.391799      488.78508    
   9250000   44.008089      58.532879      400.74628    
   9260000   41.283713      70.24706       480.94761    
   9270000   34.530633      68.566044      469.43851    
   9280000   41.560457      68.301701      467.62868    
   9290000   44.245281      58.80905       402.63709    
   9300000   50.242373      52.68472       360.70677    
   9310000   42.072356      71.46194       489.26531    
   9320000   30.684577      51.985676      355.92076    
   9330000   49.309637      49.622297      339.73985    
   9340000   39.583376      71.621474      490.35756    
   9350000   39.855094      63.722793      436.27911    
   9360000   42.220711      80.308403      549.83275    
   9370000   42.362402      65.690828      449.7533     
   9380000   32.067974      72.360814      495.41946    
   9390000   39.148519      65.237805      446.65167    
   9400000   44.695421      71.053177      486.4667     
   9410000   36.110688      56.015034      383.50782    
   9420000   34.189066      57.955468      396.79303    
   9430000   36.662711      70.412134      482.07779    
   9440000   37.136543      61.843577      423.41303    
   9450000   36.90137       57.29571       392.27598    
   9460000   45.468512      61.211782      419.08744    
   9470000   51.791365      56.581559      387.38654    
   9480000   36.029721      60.782098      416.1456     
   9490000   39.801109      65.863507      450.93554    
   9500000   41.659224      61.892145      423.74555    
   9510000   43.87695       68.928675      471.92127    
   9520000   45.800148      62.647868      428.91962    
   9530000   43.944041      63.284588      433.27894    
   9540000   39.961127      55.786793      381.94517    
   9550000   33.155373      69.411197      475.22486    
   9560000   47.377393      63.890223      437.42542    
   9570000   38.511931      71.918877      492.39373    
   9580000   39.835506      58.080722      397.65059    
   9590000   28.798704      67.341324      461.05344    
   9600000   45.203806      72.392629      495.63728    
   9610000   38.523161      63.606856      435.48535    
   9620000   39.554205      66.370421      454.40614    
   9630000   39.500822      59.069437      404.41984    
   9640000   38.231122      72.587034      496.96828    
   9650000   37.316989      58.266669      398.92367    
   9660000   46.897423      58.229603      398.6699     
   9670000   51.781456      65.980958      451.73968    
   9680000   40.177076      57.726589      395.22601    
   9690000   37.885644      63.362765      433.81418    
   9700000   38.530451      61.690761      422.36677    
   9710000   36.752318      69.350144      474.80686    
   9720000   31.102056      62.356548      426.92509    
   9730000   39.088193      62.048035      424.81286    
   9740000   45.414287      63.177686      432.54703    
   9750000   34.052773      60.069441      411.26638    
   9760000   35.985416      75.241005      515.13873    
   9770000   38.017173      60.30239       412.86127    
   9780000   45.307984      74.246724      508.33137    
   9790000   36.720562      48.58294       332.62387    
   9800000   43.55047       69.00769       472.46224    
   9810000   42.097812      86.604585      592.93966    
   9820000   49.292045      59.799432      409.41776    
   9830000   29.559238      75.102334      514.18932    
   9840000   47.686227      64.831206      443.86788    
   9850000   46.299079      59.365954      406.44995    
   9860000   46.252316      72.8469        498.74745    
   9870000   38.891926      72.906201      499.15346    
   9880000   42.497758      67.46433       461.89561    
   9890000   45.912716      60.881342      416.82507    
   9900000   43.58581       67.687976      463.4268     
   9910000   37.728101      63.14343       432.3125     
   9920000   45.585713      61.598943      421.73814    
   9930000   49.317063      66.62302       456.13556    
   9940000   49.796126      64.849652      443.99417    
   9950000   40.431199      69.526993      476.01766    
   9960000   38.361331      67.882096      464.75584    
   9970000   33.323671      52.131449      356.91879    
   9980000   35.604465      59.584054      407.94317    
   9990000   34.116797      63.579697      435.29941    
  10000000   33.128882      57.530259      393.88183    
  10010000   44.220808      63.70359       436.14764    
  10020000   44.794005      66.860088      457.75865    
  10030000   40.115195      80.212427      549.17565    
  10040000   46.176406      67.112326      459.48561    
  10050000   42.437953      61.970142      424.27956    
  10060000   35.521536      57.493414      393.62957    
  10070000   48.359113      72.670312      497.53845    
  10080000   40.485579      57.273958      392.12706    
  10090000   45.919386      69.670623      477.00103    
  10100000   38.780712      63.913206      437.58278    
  10110000   45.445348      62.016613      424.59773    
  10120000   32.440164      70.220096      480.763      
  10130000   41.130842      70.177543      480.47166    
  10140000   50.324896      71.376658      488.68142    
  10150000   42.260959      58.723596      402.05203    
  10160000   46.51259       72.31277       495.09053    
  10170000   38.776597      78.175064      535.22682    
  10180000   38.019938      70.955208      485.79596    
  10190000   36.778449      65.25897       446.79657    
  10200000   48.853328      73.893004      505.90962    
  10210000   41.928478      63.495335      434.72182    
  10220000   44.970663      73.32869       502.04604    
  10230000   45.069054      61.507174      421.10984    
  10240000   47.433142      64.813265      443.74505    
  10250000   35.533404      56.705519      388.23523    
  10260000   38.307802      63.941687      437.77777    
  10270000   44.254421      84.347277      577.48497    
  10280000   59.677721      55.400812      379.30254    
  10290000   36.07196       56.388414      386.06417    
  10300000   40.597373      54.830375      375.39703    
  10310000   34.639786      58.946941      403.58117    
  10320000   38.666397      76.706121      525.16968    
  10330000   45.597479      69.116288      473.20576    
  10340000   38.927955      60.491273      414.15446    
  10350000   35.91264       58.450379      400.18145    
  10360000   40.628627      57.308297      392.36216    
  10370000   37.320469      49.906409      341.68502    
  10380000   36.746147      74.251916      508.36692    
  10390000   51.39869       76.393442      523.02891    
  10400000   53.017752      69.503009      475.85345    
  10410000   42.745062      64.579252      442.14287    
  10420000   41.551241      67.173878      459.90702    
  10430000   42.258172      59.47395       407.18934    
  10440000   30.261177      67.078892      459.2567     
  10450000   45.283315      57.853795      396.09693    
  10460000   40.012338      54.75402       374.87427    
  10470000   34.759304      67.852659      464.5543     
  10480000   39.89112       68.937458      471.9814     
  10490000   52.183512      60.094361      411.43699    
  10500000   42.480234      68.312565      467.70306    
  10510000   42.452159      66.151512      452.90737    
  10520000   29.704578      68.494944      468.95172    
  10530000   42.546487      69.758993      477.60605    
  10540000   46.346667      62.770871      429.76176    
  10550000   41.354098      74.721284      511.58045    
  10560000   56.815739      69.676652      477.0423     
  10570000   47.310429      76.744023      525.42917    
  10580000   43.262528      70.440781      482.27393    
  10590000   36.316044      62.524526      428.07516    
  10600000   42.81517       73.627408      504.09121    
  10610000   50.649724      60.390571      413.465      
  10620000   47.186735      63.249914      433.04154    
  10630000   38.849176      72.335433      495.24569    
  10640000   48.495222      61.715902      422.5389     
  10650000   38.517157      55.004736      376.5908     
  10660000   47.27353       56.855195      389.25999    
  10670000   52.884506      71.719385      491.0279     
  10680000   36.253705      83.167151      569.40522    
  10690000   56.449321      62.702204      429.29163    
  10700000   36.974609      69.272989      474.27862    
  10710000   39.88734       73.103601      500.50496    
  10720000   45.489159      69.751984      477.55806    
  10730000   48.229457      74.136635      507.57765    
  10740000   55.500513      78.256779      535.78628    
  10750000   40.272147      70.755447      484.42829    
  10760000   45.530292      60.229786      412.36419    
  10770000   43.469716      68.966769      472.18208    
  10780000   42.920616      64.595129      442.25158    
  10790000   40.363052      83.054842      568.63629    
  10800000   45.964043      74.65685       511.1393     
  10810000   44.528804      72.282681      494.88452    
  10820000   41.36769       70.483412      482.56579    
  10830000   48.326539      78.902736      540.20883    
  10840000   53.827777      69.899378      478.5672     
  10850000   43.12009       77.388505      529.84163    
  10860000   40.046242      78.293034      536.0345     
  10870000   53.343413      80.82514       553.3706     
  10880000   49.093716      62.704881      429.30996    
  10890000   60.883558      74.274548      508.52187    
  10900000   63.017097      78.298271      536.07035    
  10910000   47.096469      91.796093      628.48341    
  10920000   51.597443      77.123263      528.02564    
  10930000   48.805137      63.908797      437.55259    
  10940000   44.515498      70.993813      486.06027    
  10950000   43.677107      69.575037      476.3466     
  10960000   53.779754      69.770735      477.68644    
  10970000   46.891803      75.195785      514.82913    
  10980000   41.658279      74.843259      512.41556    
  10990000   40.850585      69.87969       478.43241    
  11000000   39.142962      66.417107      454.72577    
  11010000   42.709196      70.980284      485.96764    
  11020000   43.527315      66.141965      452.84201    
  11030000   36.474472      80.009003      547.78291    
  11040000   53.980395      72.442439      495.97831    
  11050000   42.958384      80.14032       548.68197    
  11060000   49.648694      69.583656      476.4056     
  11070000   32.634809      66.853044      457.71043    
  11080000   42.904425      68.999405      472.40552    
  11090000   58.445476      67.70437       463.53905    
  11100000   40.248119      68.556274      469.37161    
  11110000   41.967733      70.978772      485.95729    
  11120000   53.531295      67.970462      465.36084    
  11130000   45.86965       79.234632      542.48117    
  11140000   45.910416      84.876434      581.10785    
  11150000   39.622392      65.71509       449.9194     
  11160000   34.00157       65.618961      449.26126    
  11170000   35.315572      64.335486      440.47392    
  11180000   41.709893      77.576294      531.12733    
  11190000   46.448846      74.0791        507.18374    
  11200000   53.976858      67.607426      462.87531    
  11210000   63.518083      76.427582      523.26265    
  11220000   50.38174       78.919016      540.3203     
  11230000   50.908395      78.498164      537.43892    
  11240000   41.132825      69.976156      479.09286    
  11250000   36.533803      66.484461      455.18691    
  11260000   47.793846      64.656319      442.67052    
  11270000   51.64755       53.616739      367.08786    
  11280000   55.634871      69.597921      476.50327    
  11290000   41.259683      63.984697      438.07224    
  11300000   37.04994       70.721111      484.19321    
  11310000   51.976862      63.874977      437.32104    
  11320000   41.836291      77.185384      528.45096    
  11330000   52.3532        73.844833      505.57982    
  11340000   48.970929      84.853004      580.94744    
  11350000   38.846078      86.582415      592.78787    
  11360000   49.771767      94.467352      646.77222    
  11370000   45.683405      70.7789        484.58886    
  11380000   40.329277      64.583447      442.17159    
  11390000   51.281066      81.079702      555.11347    
  11400000   50.768157      73.635817      504.14879    
  11410000   35.776677      65.952295      451.54343    
  11420000   43.721026      75.257023      515.2484     
  11430000   45.675236      65.721227      449.96142    
  11440000   45.398088      63.102239      432.03048    
  11450000   39.927645      79.75301       546.03025    
  11460000   40.356739      73.20078       501.1703     
  11470000   54.382118      66.131672      452.77154    
  11480000   65.060487      58.674617      401.7167     
  11490000   44.690685      78.063678      534.46421    
  11500000   56.578209      81.968591      561.19926    
  11510000   47.124105      81.076314      555.09027    
  11520000   37.36428       78.24315       535.69297    
  11530000   49.680368      68.287689      467.53275    
  11540000   43.442731      68.645686      469.98378    
  11550000   44.099877      72.663686      497.49308    
  11560000   35.340916      75.249148      515.19449    
  11570000   42.68635       81.274273      556.4456     
  11580000   44.567899      75.603058      517.61753    
  11590000   52.345076      75.935076      519.8907     
  11600000   45.538586      82.251534      563.13643    
  11610000   42.260897      73.916605      506.07121    
  11620000   57.311867      58.129171      397.98229    
  11630000   48.179116      63.717641      436.24384    
  11640000   38.125103      75.232597      515.08116    
  11650000   33.632892      63.775098      436.63722    
  11660000   42.586944      72.612226      497.14076    
  11670000   55.874916      77.278172      529.08623    
  11680000   46.313826      81.913453      560.82175    
  11690000   50.79187       65.584068      449.02236    
  11700000   52.261483      69.140779      473.37344    
  11710000   37.559697      84.061         575.52497    
  11720000   56.035761      79.604902      545.01622    
  11730000   51.50306       74.733426      511.66359    
  11740000   50.16048       66.271343      453.7278     
  11750000   37.671674      65.178258      446.24398    
  11760000   49.89035       68.606419      469.71494    
  11770000   41.919931      70.841429      485.01697    
  11780000   46.134995      87.789284      601.05072    
  11790000   42.198262      83.609874      572.43632    
  11800000   57.483544      95.400177      653.15882    
  11810000   41.139657      74.532728      510.2895     
  11820000   53.17204       72.558388      496.77216    
  11830000   49.184403      72.345949      495.31769    
  11840000   50.316609      67.767445      463.97089    
  11850000   47.318398      73.453228      502.89869    
  11860000   40.143071      71.887943      492.18194    
  11870000   39.253841      70.184205      480.51727    
  11880000   41.925         71.828962      491.77813    
  11890000   43.552544      65.853558      450.86743    
  11900000   48.217853      63.243405      432.99698    
  11910000   46.089126      75.803561      518.99028    
  11920000   45.412239      81.238697      556.20203    
  11930000   48.270003      73.617018      504.02008    
  11940000   42.227067      69.962334      478.99823    
  11950000   44.956517      70.207821      480.67896    
  11960000   44.590546      63.802132      436.82231    
  11970000   49.153174      66.487537      455.20797    
  11980000   31.538245      95.695361      655.1798     
  11990000   42.287195      74.998958      513.48155    
  12000000   47.034668      85.64587       586.3758     
Loop time of 136.463 on 1 procs for 8000000 steps with 50 atoms

Performance: 50650.954 ns/day, 0.000 hours/ns, 58623.790 timesteps/s, 2.931 Matom-step/s
99.2% CPU use with 1 MPI tasks x 1 OpenMP threads

MPI task timing breakdown:
Section |  min time  |  avg time  |  max time  |%varavg| %total
---------------------------------------------------------------
Pair    | 100.72     | 100.72     | 100.72     |   0.0 | 73.81
Bond    | 19.11      | 19.11      | 19.11      |   0.0 | 14.00
Neigh   | 2.8621     | 2.8621     | 2.8621     |   0.0 |  2.10
Comm    | 3.2272     | 3.2272     | 3.2272     |   0.0 |  2.36
Output  | 0.14878    | 0.14878    | 0.14878    |   0.0 |  0.11
Modify  | 9.2399     | 9.2399     | 9.2399     |   0.0 |  6.77
Other   |            | 1.156      |            |       |  0.85

Nlocal:             50 ave          50 max          50 min
Histogram: 1 0 0 0 0 0 0 0 0 0
Nghost:              0 ave           0 max           0 min
Histogram: 1 0 0 0 0 0 0 0 0 0
Neighs:            264 ave         264 max         264 min
Histogram: 1 0 0 0 0 0 0 0 0 0

Total # of neighbors = 264
Ave neighs/atom = 5.28
Ave special neighs/atom = 5.76
Neighbor list builds = 21699
Dangerous builds = 0
Generated 0 of 6 mixed pair_coeff terms from geometric mixing rule
Setting up Verlet run ...
  Unit style    : real
  Current step  : 12000000
  Time step     : 10
Per MPI rank memory allocation (min/avg/max) = 9.625 | 9.625 | 9.625 Mbytes
   Step         PotEng         KinEng          Temp     
  12000000   47.034668      85.64587       586.3758     
  12010000   58.376775      89.835843      615.06253    
  12020000   46.993102      68.287716      467.53293    
  12030000   46.834254      74.396418      509.35625    
  12040000   38.785533      79.126126      541.73828    
  12050000   54.148515      85.813759      587.52526    
  12060000   55.981054      97.279675      666.02684    
  12070000   58.490925      66.968824      458.50312    
  12080000   47.557188      85.124856      582.80868    
  12090000   58.716896      81.769817      559.83835    
  12100000   63.080434      71.221588      487.61973    
  12110000   40.05912       78.429543      536.96911    
  12120000   46.723275      71.805643      491.61847    
  12130000   62.591548      88.268103      604.32897    
  12140000   40.169046      64.886505      444.24649    
  12150000   50.735117      65.248835      446.72718    
  12160000   33.634988      77.700606      531.97843    
  12170000   45.259559      81.532707      558.21497    
  12180000   37.612094      75.021495      513.63585    
  12190000   50.697975      78.792472      539.45391    
  12200000   50.122456      83.597365      572.35068    
  12210000   54.606986      72.958368      499.51062    
  12220000   49.364796      76.31615       522.49973    
  12230000   40.83944       81.841554      560.3295     
  12240000   48.552089      71.505421      489.563      
  12250000   54.15436       75.602056      517.61068    
  12260000   48.39059       77.314584      529.33553    
  12270000   54.442431      68.223932      467.09623    
  12280000   40.586492      79.203258      542.26636    
  12290000   42.872215      75.171623      514.66371    
  12300000   52.56588       66.29555       453.89354    
  12310000   43.594995      75.118697      514.30135    
  12320000   53.233821      72.163446      494.06818    
  12330000   54.732797      72.682931      497.62484    
  12340000   39.727859      68.646444      469.98897    
  12350000   45.829938      78.641402      538.41961    
  12360000   56.265602      79.821583      546.49973    
  12370000   48.823511      78.838438      539.76862    
  12380000   55.240471      74.035285      506.88375    
  12390000   55.536463      85.094237      582.59904    
  12400000   53.418479      85.295946      583.98005    
  12410000   51.279994      74.668012      511.21573    
  12420000   43.669808      72.136867      493.88621    
  12430000   54.329812      60.570357      414.69591    
  12440000   58.274691      72.225201      494.49099    
  12450000   46.779357      72.535438      496.61502    
  12460000   38.550968      76.528579      523.95413    
  12470000   46.436858      74.831476      512.33489    
  12480000   50.838933      63.571292      435.24186    
  12490000   55.439587      63.241113      432.98128    
  12500000   43.273965      62.346337      426.85519    
  12510000   52.27912       65.588287      449.05125    
  12520000   39.173507      67.543309      462.43634    
  12530000   47.41167       68.58235       469.55014    
  12540000   40.143861      62.120205      425.30697    
  12550000   42.826734      66.752904      457.02482    
  12560000   48.557836      68.365873      468.06803    
  12570000   49.097906      66.772022      457.15571    
  12580000   62.588183      65.698363      449.80488    
  12590000   41.869774      68.265612      467.3816     
  12600000   37.633668      72.435102      495.92807    
  12610000   48.428707      72.800855      498.43221    
  12620000   39.929137      78.118709      534.84098    
  12630000   43.657738      60.399106      413.52344    
  12640000   42.817413      67.395788      461.42633    
  12650000   42.123978      82.780618      566.75882    
  12660000   51.421028      89.562895      613.19378    
  12670000   54.775468      77.002689      527.20013    
  12680000   47.490243      63.441023      434.34997    
  12690000   45.004037      88.847949      608.29889    
  12700000   72.532451      70.004954      479.29003    
  12710000   56.57868       72.074513      493.45929    
  12720000   44.167353      81.098228      555.2403     
  12730000   47.500038      72.571165      496.85963    
  12740000   40.058225      74.761742      511.85745    
  12750000   55.657223      58.331047      399.36444    
  12760000   46.056449      70.864077      485.17203    
  12770000   46.534564      66.298396      453.91302    
  12780000   51.852445      76.71451       525.22711    
  12790000   59.666278      62.641506      428.87606    
  12800000   34.400706      73.322731      502.00524    
  12810000   35.847757      65.858714      450.90273    
  12820000   46.359812      78.435219      537.00797    
  12830000   77.858325      78.086348      534.61942    
  12840000   50.928086      76.12753       521.20834    
  12850000   49.02359       69.615218      476.62169    
  12860000   55.26668       76.589948      524.37429    
  12870000   39.415992      78.958509      540.59068    
  12880000   51.516139      83.047823      568.58824    
  12890000   53.47802       90.769479      621.45468    
  12900000   54.950097      73.073042      500.29574    
  12910000   48.336557      66.843325      457.64389    
  12920000   51.896445      69.356151      474.84799    
  12930000   45.468419      52.427361      358.94476    
  12940000   41.747481      81.158978      555.65623    
  12950000   42.773605      80.254551      549.46406    
  12960000   46.471489      83.788799      573.66134    
  12970000   56.283124      76.60771       524.4959     
  12980000   52.060016      75.434448      516.46314    
  12990000   41.276065      76.977143      527.02523    
  13000000   59.695302      78.154734      535.08762    
  13010000   53.399435      79.727052      545.85253    
  13020000   56.421575      73.535838      503.46428    
  13030000   51.075768      73.034         500.02844    
  13040000   53.590084      87.464116      598.82445    
  13050000   54.048258      79.308329      542.98573    
  13060000   53.47215       75.163679      514.60932    
[...]
 404740000  -19.517914      42.333707      289.8384     
 404750000  -9.9226305      38.771561      265.45011    
 404760000  -15.140753      43.660619      298.92312    
 404770000  -15.799181      41.637273      285.07025    
 404780000  -21.264817      35.104769      240.34536    
 404790000  -23.664004      46.231755      316.52644    
 404800000  -21.386105      38.109268      260.9157     
 404810000  -19.541891      42.980585      294.26726    
 404820000  -7.2079336      39.468741      270.22336    
 404830000  -4.6593582      45.834545      313.80694    
 404840000  -6.410461       53.037112      363.11943    
 404850000  -8.9881557      44.15661       302.31893    
 404860000  -3.2062849      37.114705      254.10642    
 404870000  -12.428375      45.153841      309.14649    
 404880000  -5.9414366      41.094327      281.35296    
 404890000  -11.459001      45.5144        311.61506    
 404900000  -12.0064        42.513758      291.07112    
 404910000  -3.3171691      46.404664      317.71027    
 404920000  -9.5789847      45.104514      308.80877    
 404930000  -14.161615      51.757631      354.35944    
 404940000  -12.460274      45.639667      312.4727     
 404950000  -18.81067       57.981053      396.9682     
 404960000  -4.8128088      45.233602      309.69257    
 404970000  -12.985083      47.858219      327.66206    
 404980000  -4.1511172      44.610495      305.42646    
 404990000  -14.54136       46.074231      315.44795    
 405000000  -16.957916      46.60319       319.06948    
 405010000  -10.484473      39.302078      269.0823     
 405020000  -13.243296      44.132644      302.15484    
 405030000  -13.889585      36.649425      250.92087    
 405040000  -8.3232801      38.989487      266.94214    
 405050000  -4.5296515      41.897722      286.85342    
 405060000  -9.1301181      35.046807      239.94852    
 405070000  -14.440157      51.235494      350.78462    
 405080000  -9.7831767      44.826653      306.90639    
 405090000  -12.33502       43.24046       296.04649    
 405100000  -9.6996918      45.150719      309.12511    
 405110000  -2.2332642      45.454991      311.20832    
 405120000  -1.9889252      54.317223      371.88373    
 405130000   1.3084498      50.784457      347.69659    
 405140000   9.2030354      47.312933      323.92874    
 405150000   6.3752342      51.551456      352.94786    
 405160000  -12.975842      52.558613      359.84338    
 405170000  -6.4433487      36.966703      253.09312    
 405180000  -22.843319      39.951553      273.52894    
 405190000  -19.954237      43.040509      294.67753    
 405200000  -14.501921      41.558003      284.52753    
 405210000  -5.1812789      40.068262      274.32799    
 405220000  -13.312477      44.450616      304.33185    
 405230000  -16.556989      43.606334      298.55145    
 405240000  -16.366602      46.643967      319.34866    
 405250000  -25.242897      37.623267      257.5883     
 405260000  -23.813419      39.997761      273.8453     
 405270000  -15.379754      39.089169      267.62462    
 405280000  -12.606323      45.824521      313.73831    
 405290000  -17.336215      41.795582      286.15411    
 405300000  -4.1245848      39.498336      270.42599    
 405310000  -8.2753491      40.415462      276.7051     
 405320000   1.8209131      40.710028      278.72185    
 405330000   2.1673439      49.059524      335.88681    
 405340000   2.1214824      41.511608      284.20988    
 405350000   7.9151609      37.101         254.01258    
 405360000   10.534344      46.343219      317.28958    
 405370000  -3.725922       47.933998      328.18088    
 405380000   8.5589782      43.63413       298.74177    
 405390000  -5.5877117      45.336         310.39364    
 405400000   9.8090104      32.111649      219.85291    
 405410000  -4.4921878      43.934805      300.80034    
 405420000  -8.144771       43.805788      299.91702    
 405430000  -3.2033887      42.06995       288.03258    
 405440000  -8.3689866      46.865014      320.86206    
 405450000  -0.71995569     46.428029      317.87023    
 405460000  -10.396605      40.64411       278.27054    
 405470000   1.9062861      35.522143      243.20292    
 405480000  -0.16404795     39.423643      269.9146     
 405490000  -9.1360941      44.536795      304.92187    
 405500000  -17.865888      45.715513      312.99198    
 405510000  -8.8001824      44.441136      304.26694    
 405520000  -10.526199      38.951462      266.6818     
 405530000  -10.910249      43.374271      296.96264    
 405540000  -14.91986       56.345718      385.77185    
 405550000  -14.670915      40.911416      280.10066    
 405560000  -15.788535      41.567296      284.59115    
 405570000  -16.783085      41.555972      284.51362    
 405580000  -11.904913      41.289363      282.68828    
 405590000  -19.020268      43.714762      299.29381    
 405600000  -11.748829      47.226371      323.3361     
 405610000  -8.2407978      48.521247      332.20149    
 405620000  -21.62056       39.982347      273.73977    
 405630000  -11.1807        49.656943      339.97705    
 405640000  -4.6631266      39.900884      273.18203    
 405650000  -15.299965      39.615867      271.23066    
 405660000  -13.300442      51.66218       353.70593    
 405670000  -7.2504731      40.812705      279.42483    
 405680000  -9.4701262      42.503998      291.0043     
 405690000  -10.437181      41.980032      287.41695    
 405700000  -5.3495966      42.670521      292.1444     
 405710000  -2.7062194      44.228795      302.81315    
 405720000  -3.2900426      36.166181      247.61233    
 405730000  -6.4612273      43.563005      298.2548     
 405740000  -9.9554914      47.048245      322.11655    
 405750000  -11.562359      42.451261      290.64323    
 405760000  -10.836248      42.979455      294.25952    
 405770000  -8.5143048      42.308617      289.66662    
 405780000   4.7365868      44.968757      307.87931    
 405790000   7.3951819      37.799206      258.79286    
 405800000  -3.4861795      43.211537      295.84847    
 405810000  -7.4688032      43.254181      296.14044    
 405820000  -0.63279602     45.831842      313.78843    
 405830000   4.3634672      52.453095      359.12095    
 405840000   1.4584444      44.21659       302.72959    
 405850000  -19.203834      40.7886        279.2598     
 405860000  -13.091736      42.827793      293.22116    
 405870000  -12.018759      44.213356      302.70744    
 405880000  -19.732237      48.388262      331.29101    
 405890000   0.85627042     47.363595      324.2756     
 405900000  -6.9838568      43.10502       295.1192     
 405910000  -1.834345       51.962429      355.76159    
 405920000  -3.5289274      38.937994      266.58959    
 405930000  -10.437168      43.624453      298.67551    
 405940000   1.9086132      37.476125      256.58088    
 405950000   1.8317187      51.137705      350.11511    
 405960000   8.4056741      39.233015      268.60946    
 405970000  -1.5520054      45.432756      311.05608    
 405980000  -3.9063117      45.356542      310.53428    
 405990000  -5.3357324      46.18956       316.23755    
 406000000  -4.0232862      40.890692      279.95877    
 406010000   3.3750006      39.800732      272.49634    
 406020000  -4.3232792      44.342883      303.59425    
 406030000   1.9849175      42.674282      292.17015    
 406040000   4.2560366      39.30563       269.10662    
 406050000   14.829501      41.611577      284.89432    
 406060000   18.527684      45.474391      311.34114    
 406070000   1.8631611      51.440509      352.18826    
 406080000   11.756493      50.018432      342.45199    
 406090000   11.063749      42.212777      289.01045    
 406100000  -2.3095419      43.705875      299.23296    
 406110000   0.75624276     44.813064      306.81335    
 406120000  -5.7795149      51.390294      351.84446    
 406130000   10.03773       38.078996      260.70845    
 406140000   12.594349      44.521974      304.8204     
 406150000   11.338037      51.018633      349.29988    
 406160000   18.731311      43.062038      294.82493    
 406170000   9.5039105      47.065332      322.23354    
 406180000   21.200151      45.420391      310.97143    
 406190000   9.3766235      51.243594      350.84008    
 406200000   13.411847      51.588078      353.19859    
 406210000   6.2537092      39.465764      270.20298    
 406220000   7.1074748      42.263814      289.35987    
 406230000  -10.572886      38.205103      261.57185    
 406240000  -3.927546       40.013888      273.95572    
 406250000  -9.2741704      47.891888      327.89257    
 406260000  -2.3636719      35.858498      245.50577    
 406270000  -1.5380483      56.524138      386.99341    
 406280000   0.2115985      54.369012      372.2383     
 406290000  -3.7495941      44.229891      302.82065    
 406300000   13.625463      44.493021      304.62217    
 406310000   5.5306375      44.644371      305.6584     
 406320000   3.8302871      47.193431      323.11057    
 406330000   8.8406962      36.984026      253.21172    
 406340000   3.4142037      38.5999        264.27483    
 406350000  -6.4895567      40.03264       274.08411    
 406360000  -15.543135      39.602389      271.13839    
 406370000  -8.0444048      42.60183       291.6741     
 406380000  -14.746615      47.802221      327.27866    
 406390000  -8.277317       38.074723      260.6792     
 406400000  -18.92311       32.190972      220.396      
 406410000  -11.396964      39.961123      273.59446    
 406420000  -12.146142      43.864187      300.31685    
 406430000  -10.949376      40.280334      275.77994    
 406440000  -22.433912      48.707306      333.47534    
 406450000  -14.512577      43.875177      300.39209    
 406460000  -22.111643      49.293268      337.48714    
 406470000  -8.6296978      47.060154      322.19809    
 406480000  -4.4420776      46.416516      317.79142    
 406490000  -12.186582      44.361782      303.72365    
 406500000  -19.979531      39.994632      273.82388    
 406510000  -15.650689      43.491668      297.7664     
 406520000  -15.663562      45.361897      310.57095    
 406530000  -19.181554      43.64955       298.84733    
 406540000  -15.201545      45.869175      314.04404    
 406550000  -16.538251      41.47046       283.92816    
 406560000  -11.202273      42.58195       291.53799    
 406570000  -25.30506       39.036829      267.26627    
 406580000  -14.260365      43.564569      298.26551    
 406590000  -8.1826741      50.452479      345.4237     
 406600000   1.4446238      41.551475      284.48283    
 406610000  -7.4686582      41.002514      280.72436    
 406620000  -0.31691688     35.124884      240.48308    
 406630000  -4.2590861      39.058507      267.41469    
 406640000  -3.6097874      48.834051      334.34311    
 406650000  -6.6598026      48.58973       332.67036    
 406660000  -3.7150499      47.151067      322.82053    
 406670000  -3.2141267      44.516074      304.78001    
 406680000  -3.4671746      43.318508      296.58085    
 406690000   0.26388671     39.152011      268.05486    
 406700000   3.4241339      33.521937      229.50847    
 406710000   1.3200661      43.844052      300.17899    
 406720000  -3.989591       47.582765      325.77616    
 406730000  -1.8568726      38.029372      260.3687     
 406740000  -11.140783      45.138794      309.04347    
 406750000  -11.346817      49.046459      335.79736    
 406760000  -15.013688      52.850785      361.84374    
 406770000   4.199528       41.044923      281.01472    
 406780000  -12.04914       46.580928      318.91706    
 406790000  -21.457248      37.082444      253.88554    
 406800000  -17.097137      43.906152      300.60417    
 406810000  -1.4520724      41.403859      283.47218    
 406820000  -5.3529024      42.671875      292.15367    
 406830000  -6.9319218      38.83238       265.86651    
 406840000  -8.0899041      43.554109      298.19389    
 406850000  -3.5983823      43.567929      298.28851    
 406860000  -12.946581      47.215902      323.26442    
 406870000  -2.5907674      37.542729      257.03689    
 406880000  -4.1209847      51.057298      349.5646     
 406890000   5.6215973      45.198021      309.44897    
 406900000  -6.3804643      53.110814      363.62403    
 406910000   2.3441909      45.038327      308.35562    
 406920000  -5.9543566      46.753869      320.1011     
 406930000   0.16047057     53.078919      363.40566    
 406940000  -2.7839133      47.677146      326.42234    
 406950000  -15.555963      57.271533      392.11046    
 406960000  -1.6305826      43.664385      298.94891    
 406970000  -8.2010633      53.515131      366.39219    
 406980000  -0.40540029     48.078393      329.16948    
 406990000  -17.623256      52.240126      357.66285    
 407000000  -7.8577193      42.758685      292.74801    
 407010000  -17.232522      36.966251      253.09002    
 407020000  -19.756197      45.967531      314.71743    
 407030000  -18.308932      48.322469      330.84055    
 407040000  -7.8087244      49.714838      340.37342    
 407050000  -9.4734698      49.354305      337.90503    
 407060000  -14.263907      49.053468      335.84535    
 407070000  -8.4177307      55.161164      377.66178    
 407080000  -4.4620948      44.338844      303.5666     
 407090000  -3.893042       48.112087      329.40017    
 407100000  -10.877278      44.836451      306.97347    
 407110000  -4.7856071      40.245346      275.5404     
 407120000  -12.960842      46.198565      316.29921    
 407130000  -4.0423682      48.473009      331.87122    
 407140000  -11.022645      47.648195      326.22412    
 407150000  -15.415184      35.822269      245.25774    
 407160000  -13.227828      46.457379      318.07118    
 407170000  -10.994048      43.341234      296.73644    
 407180000  -15.71876       41.209352      282.14048    
 407190000  -9.8538264      44.092211      301.87802    
 407200000  -5.0612102      39.636963      271.37509    
 407210000  -9.2800131      45.073568      308.5969     
 407220000  -13.757484      47.107876      322.52482    
 407230000  -6.0412463      46.275744      316.82762    
 407240000  -1.379052       43.0332        294.62749    
 407250000   4.052607       43.83198       300.09634    
 407260000  -4.1832232      40.927817      280.21295    
 407270000  -14.341841      39.725752      271.98299    
 407280000  -12.136737      35.373371      242.18434    
 407290000  -7.6205167      45.705138      312.92095    
 407300000  -0.0098915598   44.413313      304.07645    
 407310000   8.1990956      42.371096      290.09438    
 407320000  -3.3300975      57.28195       392.18178    
 407330000   8.7958139      36.723645      251.42902    
 407340000  -5.1400914      48.394868      331.33623    
 407350000  -2.6857684      38.515115      263.69434    
 407360000   6.8859593      43.904856      300.59529    
 407370000  -7.6574277      41.927199      287.05523    
 407380000  -4.4162746      46.151507      315.97703    
 407390000   1.5589761      45.845967      313.88514    
 407400000   4.0341437      50.666927      346.89192    
 407410000   4.534585       37.15421       254.37689    
 407420000  -5.0695571      43.149526      295.42392    
 407430000  -1.6860486      46.440303      317.95427    
 407440000  -11.40426       55.016325      376.67014    
 407450000  -11.884134      47.189553      323.08402    
 407460000  -19.41012       46.595427      319.01633    
 407470000  -17.888158      42.034782      287.7918     
 407480000  -17.831704      45.93792       314.5147     
 407490000  -20.219029      39.417714      269.874      
 407500000  -30.585896      39.195553      268.35297    
 407510000  -24.680411      46.85309       320.78042    
 407520000   4.2783792      45.673545      312.70465    
 407530000  -12.735686      48.475091      331.88548    
 407540000  -1.7001476      36.126771      247.34251    
 407550000  -9.2036502      56.010853      383.47919    
 407560000  -3.7713581      46.554936      318.73911    
 407570000  -1.2009944      37.70289       258.13344    
 407580000   5.8728905      41.516356      284.24239    
 407590000  -5.9227959      60.239924      412.43359    
 407600000  -0.19792828     42.384505      290.18619    
 407610000  -9.5865545      38.101608      260.86327    
 407620000  -12.459008      45.808555      313.629      
 407630000  -9.7367728      41.647406      285.13962    
 407640000  -13.39779       53.49344       366.24368    
 407650000  -11.520492      45.800138      313.57137    
 407660000  -16.625377      47.145603      322.78312    
 407670000  -4.4135387      45.534203      311.75064    
 407680000  -3.0158895      49.704946      340.3057     
 407690000  -17.856854      42.371467      290.09692    
 407700000  -20.240852      45.652473      312.56038    
 407710000  -8.4195602      39.625794      271.29862    
 407720000  -3.4596455      43.105697      295.12384    
 407730000  -11.669505      50.801255      347.8116     
 407740000  -11.419948      45.478013      311.36593    
 407750000  -12.620145      46.495178      318.32998    
 407760000  -9.1156758      45.332795      310.3717     
 407770000  -10.438387      56.587755      387.42896    
 407780000  -2.2739909      47.989312      328.55959    
 407790000   0.22641839     46.765414      320.18015    
 407800000   7.3283271      31.73163       217.25111    
 407810000  -17.774326      59.709365      408.80111    
 407820000  -18.391426      48.385944      331.27514    
 407830000  -4.5008777      43.083321      294.97064    
 407840000  -15.275713      51.113791      349.95138    
 407850000  -2.8587143      43.204283      295.79881    
 407860000   2.1059243      48.53597       332.30229    
 407870000  -4.8390669      52.996261      362.83974    
 407880000  -4.1812644      40.11919       274.67667    
 407890000  -14.886437      44.849594      307.06345    
 407900000  -14.588151      47.649395      326.23234    
 407910000  -3.8953098      40.345016      276.22279    
 407920000  -11.569989      46.915664      321.20884    
 407930000  -14.867745      45.922747      314.41082    
 407940000  -9.3862637      49.866641      341.41275    
 407950000  -11.876827      54.612922      373.90824    
 407960000  -9.9313729      45.785503      313.47117    
 407970000  -10.081109      45.634867      312.43984    
 407980000  -19.613921      46.173213      316.12564    
 407990000  -19.774781      36.749994      251.60942    
 408000000  -10.782542      40.256624      275.61761    
Loop time of 130.226 on 1 procs for 4000000 steps with 50 atoms

Performance: 26538.546 ns/day, 0.001 hours/ns, 30715.910 timesteps/s, 1.536 Matom-step/s
99.2% CPU use with 1 MPI tasks x 1 OpenMP threads

MPI task timing breakdown:
Section |  min time  |  avg time  |  max time  |%varavg| %total
---------------------------------------------------------------
Pair    | 111.22     | 111.22     | 111.22     |   0.0 | 85.41
Bond    | 10.082     | 10.082     | 10.082     |   0.0 |  7.74
Neigh   | 1.3011     | 1.3011     | 1.3011     |   0.0 |  1.00
Comm    | 1.9307     | 1.9307     | 1.9307     |   0.0 |  1.48
Output  | 0.095693   | 0.095693   | 0.095693   |   0.0 |  0.07
Modify  | 4.9152     | 4.9152     | 4.9152     |   0.0 |  3.77
Other   |            | 0.6771     |            |       |  0.52

Nlocal:             50 ave          50 max          50 min
Histogram: 1 0 0 0 0 0 0 0 0 0
Nghost:             21 ave          21 max          21 min
Histogram: 1 0 0 0 0 0 0 0 0 0
Neighs:            333 ave         333 max         333 min
Histogram: 1 0 0 0 0 0 0 0 0 0

Total # of neighbors = 333
Ave neighs/atom = 6.66
Ave special neighs/atom = 5.76
Neighbor list builds = 8253
Dangerous builds = 0
System init for write_data ...
Generated 0 of 6 mixed pair_coeff terms from geometric mixing rule
Total wall time: 2:15:07
