LAMMPS (29 Aug 2024)
  using 1 OpenMP thread(s) per MPI task
  using 1 OpenMP thread(s) per MPI task
Reading data file ...
  orthogonal box = (-500.6 -500.6 -500.6) to (500.6 500.6 500.6)
  1 by 1 by 1 MPI processor grid
  reading atoms ...
  100 atoms
  scanning bonds ...
  1 = max bonds/atom
  scanning angles ...
  1 = max angles/atom
  orthogonal box = (-500.6 -500.6 -500.6) to (500.6 500.6 500.6)
  1 by 1 by 1 MPI processor grid
  reading bonds ...
  99 bonds
  reading angles ...
  98 angles
Finding 1-2 1-3 1-4 neighbors ...
  special bond factors lj:    0        0        0       
  special bond factors coul:  0        0        0       
     2 = max # of 1-2 neighbors
     2 = max # of 1-3 neighbors
     4 = max # of 1-4 neighbors
     6 = max # of special neighbors
  special bonds CPU = 0.000 seconds
  read_data CPU = 0.009 seconds
Finding 1-2 1-3 1-4 neighbors ...
  special bond factors lj:    0        0        1       
  special bond factors coul:  0        0        0       
     2 = max # of 1-2 neighbors
     2 = max # of 1-3 neighbors
     4 = max # of 1-4 neighbors
     6 = max # of special neighbors
  special bonds CPU = 0.000 seconds

CITE-CITE-CITE-CITE-CITE-CITE-CITE-CITE-CITE-CITE-CITE-CITE-CITE

Your simulation uses code contributions which should be cited:
- Type Label Framework: https://doi.org/10.1021/acs.jpcb.3c08419
The log file lists these citations in BibTeX format.

CITE-CITE-CITE-CITE-CITE-CITE-CITE-CITE-CITE-CITE-CITE-CITE-CITE

Generated 0 of 6 mixed pair_coeff terms from geometric mixing rule
Neighbor list info ...
  update: every = 10 steps, delay = 0 steps, check = yes
  max neighbors/atom: 2000, page size: 100000
  master list distance cutoff = 33
  ghost atom cutoff = 33
  binsize = 16.5, bins = 61 61 61
  2 neighbor lists, perpetual/occasional/extra = 2 0 0
  (1) pair lj/cut, perpetual, trim from (2)
      attributes: half, newton on, cut 25
      pair build: trim
      stencil: none
      bin: none
  (2) pair base/rna, perpetual
      attributes: half, newton on
      pair build: half/bin/newton
      stencil: half/bin/3d
      bin: standard
Setting up Verlet run ...
  Unit style    : real
  Current step  : 0
  Time step     : 10
Per MPI rank memory allocation (min/avg/max) = 8.37 | 8.37 | 8.37 Mbytes
   Step         PotEng         KinEng          Temp     
         0   134.33628      0              0            
     10000   60.418942      83.19864       281.93353    
     20000   65.485197      88.568597      300.13059    
     30000   53.872571      86.822048      294.2121     
     40000   58.621877      81.393666      275.81705    
     50000   52.226134      94.578941      320.49773    
     60000   60.255725      95.677002      324.2187     
     70000   63.125111      102.45736      347.19518    
     80000   42.029992      112.55417      381.41001    
     90000   30.150155      103.09438      349.35381    
    100000   42.550996      96.025064      325.39817    
    110000   24.735758      100.85311      341.75887    
    120000   19.906441      89.538084      303.41587    
    130000   21.183231      77.667215      263.1893     
    140000   23.283851      102.65546      347.86647    
    150000   28.381275      75.010753      254.1874     
    160000   13.268706      80.194981      271.75509    
    170000   17.014113      89.736769      304.08916    
    180000   11.44917       88.977906      301.51761    
    190000  -6.7799807      84.138714      285.11914    
    200000  -19.980974      98.786758      334.75667    
    210000  -23.794932      101.86397      345.18437    
    220000  -3.9672184      87.14546       295.30804    
    230000  -3.5493381      94.80246       321.25516    
    240000  -19.995077      90.981035      308.30558    
    250000  -13.371586      88.274424      299.13374    
    260000  -28.148261      91.072933      308.61699    
    270000  -18.403854      96.777583      327.94822    
    280000  -12.917934      89.993905      304.96051    
    290000  -24.904439      84.006154      284.66994    
    300000  -22.723641      80.80306       273.81568    
    310000  -16.17381       85.413002      289.4373     
    320000  -17.224551      87.628675      296.9455     
    330000  -13.285632      89.333787      302.72358    
    340000  -19.48814       102.08334      345.92774    
    350000  -8.9348838      77.671573      263.20407    
    360000  -8.2527079      84.899967      287.69878    
    370000  -12.586229      94.877951      321.51098    
    380000   0.50660966     97.003502      328.71379    
    390000   18.54431       77.459932      262.48689    
    400000  -2.3652001      85.935998      291.20956    
    410000  -6.2639967      86.44202       292.92431    
    420000  -13.997773      83.221013      282.00935    
    430000  -3.0436504      73.05285       247.5527     
    440000   1.248754       87.499375      296.50734    
    450000   7.4467435      99.871341      338.43197    
    460000  -16.178714      100.22205      339.62042    
    470000  -16.563302      92.107323      312.1222     
    480000   4.1231325      95.342792      323.08617    
    490000  -6.3235051      99.350208      336.66602    
    500000  -9.287226       97.38883       330.01954    
    510000  -3.8417342      84.222525      285.40315    
    520000  -26.993862      100.43898      340.35553    
    530000  -18.704822      95.760945      324.50316    
    540000  -9.8020428      82.295586      278.87337    
    550000  -8.8014596      87.293249      295.80885    
    560000  -16.67665       85.839705      290.88326    
    570000  -2.915659       87.689079      297.15019    
    580000  -13.674419      95.087295      322.22037    
    590000  -5.3205885      90.404611      306.35226    
    600000  -16.885315      97.901338      331.75626    
    610000  -14.096568      98.333399      333.22038    
    620000  -25.129322      96.183139      325.93384    
    630000  -29.56794       93.004405      315.16213    
    640000  -21.436689      82.980786      281.19529    
    650000  -23.876999      90.084074      305.26606    
    660000  -25.908597      85.883975      291.03327    
    670000  -42.002117      97.385083      330.00684    
    680000  -33.592906      100.7478       341.402      
    690000  -26.126211      89.075835      301.84946    
    700000  -18.288088      82.44836       279.39107    
    710000  -23.413255      83.921372      284.38264    
    720000  -11.852913      85.063094      288.25157    
    730000  -25.45105       86.800922      294.14051    
    740000  -27.781724      88.934719      301.37126    
    750000  -26.141396      83.64802       283.45634    
    760000  -20.30305       80.895576      274.12919    
    770000  -9.7241563      94.076185      318.79405    
    780000  -15.165147      81.284956      275.44867    
    790000  -20.802597      94.868195      321.47791    
    800000  -16.867699      102.45632      347.19164    
    810000  -19.229738      94.730698      321.01198    
    820000  -12.60638       90.755695      307.54197    
    830000  -18.969145      97.185286      329.32979    
    840000  -26.05563       89.889519      304.60678    
    850000  -32.191828      90.301247      306.00199    
    860000  -24.472989      77.941762      264.11966    
    870000  -37.279359      91.592798      310.37864    
    880000  -40.584785      88.649244      300.40388    
    890000  -42.639174      87.437909      296.29906    
    900000  -44.795243      94.305581      319.5714     
    910000  -41.812435      94.409008      319.92188    
    920000  -51.661303      96.01812       325.37464    
    930000  -38.465704      99.942204      338.6721     
    940000  -36.340846      95.646935      324.11681    
    950000  -35.954015      78.901         267.37021    
    960000  -51.43452       83.010498      281.29598    
    970000  -33.906558      82.478205      279.49221    
    980000  -34.925279      102.52953      347.43974    
    990000  -26.235503      102.13076      346.08841    
   1000000  -21.523883      91.329155      309.48524    
   1010000  -34.543306      91.630855      310.50761    
   1020000  -36.644989      88.785808      300.86665    
   1030000  -20.042986      86.660729      293.66544    
   1040000  -35.932488      91.170768      308.94852    
   1050000  -28.983727      98.20081       332.77108    
   1060000  -30.53207       79.252231      268.56042    
   1070000  -31.002087      87.267567      295.72182    
   1080000  -41.819255      96.57742       327.26993    
   1090000  -41.999154      91.617543      310.4625     
   1100000  -45.315318      91.081847      308.64719    
   1110000  -31.298197      83.800121      283.97176    
   1120000  -25.306281      85.409062      289.42394    
   1130000  -23.50857       88.392914      299.53526    
   1140000  -27.46091       85.177664      288.63981    
   1150000  -34.06681       90.90096       308.03422    
   1160000  -30.562712      95.067892      322.15462    
   1170000  -29.806398      94.373036      319.79998    
   1180000  -26.793791      86.851754      294.31276    
   1190000  -36.219016      95.519105      323.68364    
   1200000  -28.464324      85.294181      289.03465    
   1210000  -29.547921      108.84409      368.83774    
   1220000  -31.426758      97.84044       331.5499     
   1230000  -40.3386        95.278545      322.86846    
   1240000  -42.32809       92.375302      313.0303     
   1250000  -47.717287      85.540935      289.87082    
   1260000  -35.35155       85.677115      290.33229    
   1270000  -46.299595      84.804428      287.37503    
   1280000  -35.275333      82.947569      281.08273    
   1290000  -44.129212      94.750077      321.07765    
   1300000  -55.604892      91.775374      310.99734    
   1310000  -41.463659      89.810019      304.33738    
   1320000  -36.245664      93.052949      315.32663    
   1330000  -30.908393      108.06586      366.20056    
   1340000  -25.967688      81.960813      277.73893    
   1350000  -45.262227      93.151259      315.65977    
   1360000  -42.381878      85.045749      288.19279    
   1370000  -50.241151      85.950798      291.25971    
   1380000  -49.615253      82.876736      280.8427     
   1390000  -43.129907      88.931555      301.36054    
   1400000  -33.309196      86.340819      292.58137    
   1410000  -42.31403       83.313099      282.3214     
   1420000  -43.200673      71.264078      241.49113    
   1430000  -57.837951      80.479963      272.72081    
   1440000  -39.198966      81.889602      277.49762    
   1450000  -31.098805      88.671295      300.4786     
   1460000  -42.615337      95.039724      322.05917    
   1470000  -36.548345      83.705049      283.64959    
   1480000  -42.290592      82.790676      280.55107    
   1490000  -38.615195      97.871917      331.65656    
   1500000  -25.350935      75.673242      256.43237    
   1510000  -38.951263      77.779777      263.57074    
   1520000  -49.229949      95.085677      322.21489    
   1530000  -41.488904      84.719998      287.08893    
   1540000  -36.507784      81.039239      274.61601    
   1550000  -47.256035      78.613753      266.39682    
   1560000  -54.928223      91.73403       310.85723    
   1570000  -39.941763      96.588404      327.30715    
   1580000  -51.254618      92.642304      313.93508    
   1590000  -46.073021      93.949589      318.36505    
   1600000  -44.971305      82.702638      280.25274    
   1610000  -36.478702      95.151421      322.43768    
   1620000  -43.204523      93.862075      318.0685     
   1630000  -62.737631      95.092652      322.23853    
   1640000  -48.140985      89.527457      303.37986    
   1650000  -37.463255      92.325176      312.86044    
   1660000  -31.267392      93.916616      318.25332    
   1670000  -33.056885      87.196349      295.48049    
   1680000  -23.438893      78.54876       266.17658    
   1690000  -24.134609      95.290581      322.90925    
   1700000  -29.155611      101.26135      343.14228    
   1710000  -47.674547      96.95434       328.54719    
   1720000  -41.953456      85.677445      290.33341    
   1730000  -39.947714      93.39113       316.47262    
   1740000  -41.676693      86.339104      292.57556    
   1750000  -45.001946      79.331739      268.82984    
   1760000  -45.951421      76.39228       258.86896    
   1770000  -39.287628      82.574166      279.81739    
   1780000  -28.908347      79.076144      267.96371    
   1790000  -50.073251      88.715403      300.62807    
   1800000  -22.536237      76.10223       257.88607    
   1810000  -41.762602      88.857293      301.10889    
   1820000  -42.454765      95.464319      323.49799    
   1830000  -29.474488      99.0896        335.7829     
   1840000  -42.121039      91.691288      310.71239    
   1850000  -32.260641      75.377292      255.42949    
   1860000  -51.29354       87.623089      296.92657    
   1870000  -45.853626      88.485206      299.84801    
   1880000  -28.923147      90.057703      305.1767     
   1890000  -34.995064      89.900178      304.6429     
   1900000  -40.103841      88.023767      298.28434    
   1910000  -35.959123      99.822422      338.2662     
   1920000  -35.246255      91.092361      308.68282    
   1930000  -29.242495      83.706693      283.65516    
   1940000  -42.398981      85.975391      291.34305    
   1950000  -26.541431      91.340823      309.52478    
   1960000  -46.802383      93.263863      316.04135    
   1970000  -36.501704      87.013957      294.86242    
   1980000  -32.099566      74.252273      251.61716    
   1990000  -30.845759      83.56313       283.16867    
   2000000  -33.007485      81.885512      277.48376    
   2010000  -50.223816      93.868798      318.09128    
   2020000  -42.403408      85.869316      290.9836     
   2030000  -39.000626      89.041907      301.73449    
   2040000  -30.093415      92.027369      311.85127    
   2050000  -15.091191      91.466442      309.95046    
   2060000  -4.6435799      80.617141      273.18566    
   2070000  -26.241463      87.136527      295.27777    
   2080000  -25.714173      98.118516      332.49221    
   2090000  -23.468485      97.283868      329.66385    
   2100000  -26.664953      94.851882      321.42263    
   2110000  -18.854185      78.484177      265.95773    
   2120000  -30.350819      82.949652      281.08979    
   2130000  -26.399867      81.490258      276.14437    
   2140000  -46.896879      105.90274      358.87044    
   2150000  -30.587909      81.68613       276.80812    
   2160000  -36.722837      70.598355      239.2352     
   2170000  -40.290528      94.765401      321.12958    
   2180000  -35.676343      96.614832      327.39671    
   2190000  -47.497846      93.630047      317.28223    
   2200000  -49.02574       102.989        348.99671    
   2210000  -43.660995      83.975401      284.56572    
   2220000  -32.483892      82.717332      280.30253    
   2230000  -47.020907      99.334861      336.61401    
   2240000  -37.273349      84.46825       286.23583    
   2250000  -22.902958      88.587332      300.19408    
   2260000  -20.787215      99.295852      336.48182    
   2270000  -3.3252443      82.156046      278.40051    
   2280000  -16.962636      84.395517      285.98936    
   2290000  -26.398962      95.144803      322.41525    
   2300000  -25.691227      79.553459      269.58118    
   2310000  -31.280199      84.214996      285.37764    
   2320000  -42.201319      80.797277      273.79608    
   2330000  -25.643884      79.83295       270.52829    
   2340000  -19.990049      85.654431      290.25542    
   2350000  -26.310847      90.920139      308.09922    
   2360000  -43.034224      85.389727      289.35842    
   2370000  -41.715843      79.123843      268.12535    
   2380000  -60.345602      77.059297      261.12927    
   2390000  -49.98456       80.003954      271.10776    
   2400000  -41.785028      82.0096        277.90426    
   2410000  -50.850336      83.387941      282.57501    
   2420000  -61.228253      88.347202      299.38036    
   2430000  -54.615167      83.9005        284.31191    
   2440000  -47.337515      77.647436      263.12228    
   2450000  -44.151723      79.345773      268.8774     
   2460000  -47.008199      99.453722      337.0168     
   2470000  -26.369621      87.672215      297.09304    
   2480000  -46.432859      95.758512      324.49491    
   2490000  -41.29847       76.494564      259.21556    
   2500000  -52.448178      90.641976      307.15661    
   2510000  -46.159507      85.333648      289.16839    
   2520000  -44.376055      74.166551      251.32668    
   2530000  -43.500462      78.480331      265.94469    
   2540000  -30.923852      82.144468      278.36128    
   2550000  -29.639393      83.216745      281.99488    
   2560000  -36.086767      80.111841      271.47336    
   2570000  -41.718087      81.94845       277.69704    
   2580000  -31.683205      89.55822       303.48411    
   2590000  -29.118316      85.094928      288.35944    
   2600000  -21.383553      84.406435      286.02636    
   2610000  -24.43726       82.659862      280.10779    
   2620000  -27.180069      85.315789      289.10787    
   2630000  -33.49423       90.827536      307.78542    
   2640000  -40.797004      78.712019      266.72981    
   2650000  -35.264126      84.417079      286.06243    
   2660000  -39.666882      99.371059      336.73668    
   2670000  -10.732863      98.910776      335.17693    
   2680000  -19.994792      86.628284      293.5555     
   2690000  -28.640356      89.268345      302.50182    
   2700000  -31.965669      88.678766      300.50392    
   2710000  -34.049128      86.076666      291.68624    
   2720000  -26.417627      78.393875      265.65172    
   2730000  -42.612079      89.957838      304.83829    
   2740000  -36.962551      93.154392      315.67038    
   2750000  -24.128962      85.059797      288.2404     
   2760000  -15.386836      87.262191      295.7036     
   2770000  -27.324109      96.062659      325.52557    
   2780000  -13.501532      80.5231        272.86698    
   2790000  -23.93122       86.091922      291.73794    
   2800000  -30.055595      87.818249      297.58791    
   2810000  -31.575613      81.88796       277.49206    
   2820000  -65.538098      98.952769      335.31923    
   2830000  -38.640163      85.460328      289.59767    
   2840000  -25.751511      79.129003      268.14283    
   2850000  -36.712313      85.006031      288.0582     
   2860000  -49.916306      77.551359      262.7967     
   2870000  -55.59685       79.812913      270.46039    
   2880000  -33.575544      88.241662      299.02272    
   2890000  -36.709057      90.883891      307.97638    
   2900000  -33.565975      80.672065      273.37178    
   2910000  -36.878495      80.540847      272.92712    
   2920000  -23.421617      72.493177      245.65615    
   2930000  -22.9988        72.876138      246.95388    
   2940000  -33.79276       77.316263      262.00004    
   2950000  -35.072075      82.779518      280.51326    
   2960000  -26.581082      88.82799       301.00959    
   2970000  -10.636523      83.09751       281.59083    
   2980000  -0.94302642     79.349122      268.88875    
   2990000   5.0118591      75.359277      255.36844    
   3000000  -20.35528       97.743775      331.22233    
   3010000  -2.0255553      83.483928      282.90028    
   3020000  -28.133442      104.31836      353.5015     
   3030000  -42.617508      95.510233      323.65357    
   3040000  -40.581692      94.722488      320.98416    
   3050000  -46.229638      96.498251      327.00165    
   3060000  -32.463112      90.400565      306.33855    
   3070000  -13.930731      98.848464      334.96577    
   3080000  -7.8858664      95.357704      323.1367     
   3090000  -23.914239      93.547206      317.0015     
   3100000  -21.086479      88.172494      298.78833    
   3110000  -26.234687      94.131822      318.98258    
   3120000  -33.523023      87.955168      298.05188    
   3130000  -14.902782      82.4381        279.35631    
   3140000  -0.90783708     84.809468      287.39211    
   3150000  -7.7481374      89.169696      302.16753    
   3160000  -21.562204      83.190996      281.90763    
   3170000  -20.980151      92.82792       314.56407    
   3180000  -37.048867      104.53791      354.24546    
   3190000  -23.961848      89.460887      303.15428    
   3200000  -13.536987      77.003526      260.94028    
   3210000  -27.114657      81.100205      274.82261    
   3220000  -24.383502      80.570101      273.02625    
   3230000  -39.304224      104.27485      353.35405    
   3240000  -15.442923      86.956545      294.66787    
   3250000  -13.510126      82.74082       280.38212    
   3260000  -23.694936      80.964468      274.36264    
   3270000  -27.410839      82.834879      280.70086    
   3280000  -29.65523       74.389311      252.08154    
   3290000  -28.480882      75.488607      255.8067     
   3300000  -42.932301      94.477746      320.15481    
   3310000  -34.459312      91.40496       309.74212    
   3320000  -46.119751      93.526029      316.92974    
   3330000  -31.808494      77.198219      261.60003    
   3340000  -22.634195      64.225125      217.63837    
   3350000  -19.704962      100.45456      340.40833    
   3360000  -43.812439      101.84113      345.10695    
   3370000  -47.477412      101.05702      342.44987    
   3380000  -41.266326      82.955052      281.10809    
   3390000  -38.172873      75.012171      254.19221    
   3400000  -53.151658      78.206493      265.01674    
   3410000  -44.65162       76.103853      257.89157    
   3420000  -33.967623      88.24199       299.02383    
   3430000  -24.869838      97.912587      331.79438    
   3440000   8.7864351      92.264809      312.65587    
   3450000  -6.1533856      101.08858      342.55681    
   3460000  -11.352973      85.496098      289.71888    
   3470000  -15.943806      92.950374      314.97903    
   3480000  -14.817632      90.977726      308.29436    
   3490000  -24.309946      81.077035      274.74409    
   3500000  -26.15261       95.405457      323.29852    
   3510000  -23.268444      93.105342      315.50417    
   3520000  -43.913823      97.072952      328.94913    
   3530000  -43.064145      92.777039      314.39166    
   3540000  -21.073064      84.111318      285.02631    
   3550000  -7.4625998      81.740971      276.99396    
   3560000  -11.07493       92.200003      312.43627    
   3570000  -12.055719      74.62957       252.8957     
   3580000  -33.301057      104.2587       353.29934    
   3590000  -31.034097      100.75877      341.43918    
   3600000  -38.329506      88.434933      299.67765    
   3610000  -32.739407      81.223944      275.24192    
   3620000  -25.04222       93.518115      316.90292    
   3630000  -37.540683      94.331071      319.65777    
   3640000  -32.923147      79.538993      269.53216    
   3650000  -27.521842      80.496022      272.77523    
   3660000  -23.640607      81.675133      276.77085    
   3670000  -27.280382      89.245414      302.42411    
   3680000  -28.058093      84.09278       284.96349    
   3690000  -30.673873      82.805725      280.60207    
   3700000  -36.684422      86.118941      291.82949    
   3710000  -21.69955       85.37691       289.31499    
   3720000  -37.467087      93.878249      318.1233     
   3730000  -20.875172      83.564826      283.17442    
   3740000  -31.093809      89.747553      304.1257     
   3750000  -22.324059      87.94363       298.01278    
   3760000  -32.967256      90.290193      305.96453    
   3770000  -9.6968999      93.329671      316.26435    
   3780000  -14.96605       86.784629      294.0853     
   3790000  -14.570028      91.97846       311.68553    
   3800000  -23.675217      91.788713      311.04254    
   3810000  -22.742806      79.940643      270.89322    
   3820000  -26.111009      77.62885       263.0593     
   3830000  -19.817318      81.831324      277.30013    
   3840000  -21.769374      87.77281       297.43393    
   3850000  -36.292215      86.945663      294.63099    
   3860000  -22.012345      87.476603      296.43018    
   3870000  -24.639707      91.788244      311.04095    
   3880000  -22.887864      93.500017      316.8416     
   3890000  -31.648682      91.158326      308.90636    
   3900000  -28.550947      83.710814      283.66912    
   3910000  -46.95996       74.766112      253.3584     
   3920000  -49.531021      84.904208      287.71315    
   3930000  -40.284183      77.432589      262.39423    
   3940000  -43.540803      88.261236      299.08905    
   3950000  -28.278084      85.046622      288.19575    
   3960000  -35.899893      82.745575      280.39824    
   3970000  -22.136339      86.605712      293.479      
   3980000  -34.547598      85.823496      290.82833    
   3990000  -36.316135      104.71027      354.82956    
   4000000  -27.612202      86.011817      291.46649    
Loop time of 402.371 on 1 procs for 4000000 steps with 100 atoms

Performance: 8589.082 ns/day, 0.003 hours/ns, 9941.067 timesteps/s, 994.107 katom-step/s
99.5% CPU use with 1 MPI tasks x 1 OpenMP threads

MPI task timing breakdown:
Section |  min time  |  avg time  |  max time  |%varavg| %total
---------------------------------------------------------------
Pair    | 358.53     | 358.53     | 358.53     |   0.0 | 89.10
Bond    | 27.342     | 27.342     | 27.342     |   0.0 |  6.80
Neigh   | 1.9532     | 1.9532     | 1.9532     |   0.0 |  0.49
Comm    | 2.3222     | 2.3222     | 2.3222     |   0.0 |  0.58
Output  | 0.16703    | 0.16703    | 0.16703    |   0.0 |  0.04
Modify  | 11.3       | 11.3       | 11.3       |   0.0 |  2.81
Other   |            | 0.7596     |            |       |  0.19

Nlocal:            100 ave         100 max         100 min
Histogram: 1 0 0 0 0 0 0 0 0 0
Nghost:              0 ave           0 max           0 min
Histogram: 1 0 0 0 0 0 0 0 0 0
Neighs:           1063 ave        1063 max        1063 min
Histogram: 1 0 0 0 0 0 0 0 0 0

Total # of neighbors = 1063
Ave neighs/atom = 10.63
Ave special neighs/atom = 5.88
Neighbor list builds = 8766
Dangerous builds = 0
Generated 0 of 6 mixed pair_coeff terms from geometric mixing rule
Setting up Verlet run ...
  Unit style    : real
  Current step  : 4000000
  Time step     : 10
Per MPI rank memory allocation (min/avg/max) = 9.632 | 9.632 | 9.632 Mbytes
   Step         PotEng         KinEng          Temp     
   4000000  -27.612202      86.011817      291.46649    
   4010000  -27.214413      83.297594      282.26886    
   4020000  -24.301923      95.43141       323.38647    
   4030000  -38.875732      90.925564      308.1176     
   4040000  -26.827433      94.285546      319.5035     
   4050000  -18.100167      82.424058      279.30872    
   4060000  -27.139458      91.94108       311.55886    
   4070000  -43.732507      92.141251      312.23718    
   4080000  -39.208535      93.993112      318.51254    
   4090000  -22.169106      98.511917      333.82532    
   4100000  -24.748964      92.4569        313.30681    
   4110000  -29.792679      92.016702      311.81512    
   4120000  -35.354738      87.355286      296.01907    
   4130000  -43.105716      108.49724      367.66238    
   4140000  -25.934623      83.787124      283.92771    
   4150000  -44.556154      89.193103      302.24684    
   4160000  -50.38769       73.206843      248.07453    
   4170000  -46.656364      85.187587      288.67344    
   4180000  -36.200852      78.671079      266.59108    
   4190000  -37.048019      83.069738      281.49672    
   4200000  -27.264076      96.96196       328.57301    
   4210000  -22.326934      89.883034      304.5848     
   4220000  -36.076994      104.2295       353.20039    
   4230000  -30.020122      101.65648      344.48125    
   4240000  -30.634979      96.265488      326.21289    
   4250000  -48.102715      93.742201      317.66228    
   4260000  -29.229065      94.30664       319.57499    
   4270000  -38.536018      90.809466      307.72418    
   4280000  -27.38534       100.72113      341.31164    
   4290000  -25.641958      88.505631      299.91722    
   4300000  -30.728622      75.648512      256.34857    
   4310000  -29.618505      86.063372      291.64119    
   4320000  -34.939717      85.226743      288.80612    
   4330000  -46.152471      85.637552      290.19822    
   4340000  -41.320224      84.416627      286.0609     
   4350000  -57.608088      98.921721      335.21401    
   4360000  -37.092477      85.693315      290.38719    
   4370000  -53.158171      94.330498      319.65583    
   4380000  -37.316071      90.380765      306.27145    
   4390000  -40.868823      91.495199      310.04791    
   4400000  -35.773286      105.66306      358.05824    
   4410000  -0.59107514     95.44503       323.43262    
   4420000  -27.657489      96.575513      327.26347    
   4430000  -14.379816      84.208973      285.35722    
   4440000  -34.136928      86.216827      292.1612     
   4450000  -37.843665      94.557829      320.42618    
   4460000  -22.44795       87.084384      295.10107    
   4470000  -30.147778      91.712124      310.783      
   4480000  -28.912552      88.961829      301.46313    
   4490000  -38.167984      86.252555      292.28227    
   4500000  -28.918546      85.474281      289.64495    
   4510000  -46.105406      82.107796      278.23701    
   4520000  -34.799125      79.6947        270.0598     
   4530000  -46.154961      88.291706      299.1923     
   4540000  -20.653783      75.740956      256.66183    
   4550000  -47.570757      94.103187      318.88555    
   4560000  -44.91067       85.523511      289.81177    
   4570000  -28.791717      92.979722      315.07848    
   4580000  -21.42624       90.601925      307.02089    
   4590000  -24.232247      100.1654       339.42844    
   4600000  -33.476599      90.799721      307.69116    
   4610000  -43.617412      99.73192       337.95952    
   4620000  -30.526878      87.849597      297.69413    
   4630000  -37.082629      92.911246      314.84644    
   4640000  -34.324459      103.38752      350.34717    
   4650000  -7.6024527      80.157456      271.62793    
   4660000  -26.276985      88.904913      301.27026    
   4670000  -20.225508      93.955287      318.38436    
   4680000  -3.4720915      81.243463      275.30806    
   4690000  -17.55595       93.658935      317.38012    
   4700000  -15.561553      100.95582      342.10692    
   4710000  -35.85534       107.99366      365.95592    
   4720000  -10.26638       82.298333      278.88268    
   4730000  -41.634309      109.81492      372.12757    
   4740000  -18.069331      106.51274      360.93753    
   4750000  -12.585282      89.066898      301.81918    
   4760000  -13.869049      103.23004      349.81352    
   4770000  -13.117572      93.029885      315.24847    
   4780000  -16.196198      88.007392      298.22885    
   4790000  -37.19369       101.61111      344.32748    
   4800000  -23.82349       86.529544      293.2209     
   4810000  -35.558158      105.28882      356.79008    
   4820000  -22.761374      96.334234      326.44585    
   4830000  -12.61554       89.867727      304.53293    
   4840000  -23.416843      94.492352      320.2043     
   4850000  -18.975154      86.585904      293.41188    
   4860000  -26.840125      98.808896      334.83169    
   4870000  -23.596293      104.61989      354.52329    
   4880000  -3.9813071      92.782236      314.40927    
   4890000  -32.473595      113.3948       384.25865    
   4900000  -16.847704      89.429578      303.04818    
   4910000  -31.821501      94.534401      320.34679    
   4920000  -40.096512      109.36314      370.59665    
   4930000  -45.535694      90.111666      305.35956    
   4940000  -28.402916      92.940725      314.94633    
   4950000  -27.231872      89.712876      304.00819    
   4960000  -24.040576      89.490139      303.25341    
   4970000  -37.939019      95.107291      322.28813    
   4980000  -35.034454      93.221988      315.89945    
   4990000  -29.166836      86.080497      291.69922    
   5000000  -20.203005      107.03153      362.69556    
   5010000  -24.017057      104.37987      353.70993    
   5020000  -29.375002      94.512998      320.27427    
   5030000  -24.295948      89.510705      303.3231     
   5040000  -34.94433       88.246394      299.03875    
   5050000  -32.360588      93.369992      316.40098    
   5060000  -35.145967      92.075554      312.01455    
   5070000  -37.623842      99.116269      335.87328    
   5080000  -10.589917      96.167006      325.87917    
   5090000  -33.909127      108.57763      367.9348     
   5100000  -24.321955      90.16011       305.52372    
   5110000  -25.211238      82.407682      279.25323    
   5120000  -17.64187       87.868503      297.7582     
   5130000   3.7391769      117.56373      398.3858     
   5140000  -14.399727      115.67202      391.97541    
   5150000   1.466825       99.520305      337.24242    
   5160000  -12.142736      95.363337      323.15579    
   5170000  -13.78525       95.514472      323.66794    
   5180000  -10.651364      89.447438      303.1087     
   5190000   7.9621116      105.77814      358.44821    
   5200000  -8.883795       109.79093      372.04627    
   5210000  -8.1425238      113.99952      386.30785    
   5220000  -8.63907        94.874194      321.49824    
   5230000  -10.858712      85.437913      289.52171    
   5240000  -21.520775      93.304948      316.18057    
   5250000  -10.258463      90.83932       307.82535    
   5260000   0.15250568     92.445968      313.26976    
   5270000  -5.8983992      97.218518      329.44241    
   5280000  -4.064192       90.359383      306.19899    
   5290000  -6.9410369      88.210038      298.91555    
   5300000  -9.7820843      77.764832      263.5201     
   5310000   6.6182555      100.43392      340.33839    
   5320000   7.1239249      94.374136      319.80371    
   5330000  -2.9165452      98.359493      333.3088     
   5340000   18.467053      85.289631      289.01923    
   5350000   19.780233      86.749135      293.96502    
   5360000   0.5873733      100.1496       339.37491    
   5370000  -0.69008981     97.627182      330.82724    
   5380000   19.898657      91.835074      311.19964    
   5390000   13.253642      99.432223      336.94394    
   5400000  -6.2088592      84.709863      287.05458    
   5410000   2.9257396      99.6365        337.63617    
   5420000  -4.7544164      100.99068      342.22505    
   5430000   7.9573662      91.557127      310.25777    
   5440000  -10.779838      101.6894       344.5928     
   5450000  -1.2566721      103.91299      352.12783    
   5460000   10.491442      109.81446      372.12603    
   5470000   8.9538904      98.856044      334.99146    
   5480000  -4.8270138      109.97963      372.68571    
   5490000  -8.522257       94.296627      319.54105    
   5500000   1.718604       90.84478       307.84385    
   5510000  -12.775521      103.4372       350.51552    
   5520000  -13.094499      100.76844      341.47194    
   5530000  -1.4917439      101.34191      343.41526    
   5540000  -8.4530429      102.81816      348.41781    
   5550000   0.7319101      97.748826      331.23945    
   5560000  -3.4393748      92.231724      312.54376    
   5570000  -9.6861866      105.32797      356.92274    
   5580000   13.742184      91.490359      310.03151    
   5590000  -2.4092959      101.32621      343.36206    
   5600000  -3.8509306      92.353726      312.95718    
   5610000  -6.5182815      108.71038      368.38465    
   5620000  -5.7575312      97.054586      328.88689    
   5630000   4.8836109      118.15928      400.40393    
   5640000   11.309666      117.61805      398.56988    
   5650000  -11.45038       114.71118      388.71944    
   5660000  -11.470057      111.05787      376.33955    
   5670000  -1.6483382      105.97911      359.12924    
   5680000   5.7218497      100.21056      339.58146    
   5690000   3.4064097      96.768212      327.91646    
   5700000   13.658032      108.47665      367.59262    
   5710000   3.8132151      95.132493      322.37354    
   5720000   0.48576051     117.03406      396.59092    
   5730000   10.137176      104.21159      353.13967    
   5740000   5.1415493      105.30986      356.86137    
   5750000  -0.76614058     115.19357      390.35411    
   5760000   30.240828      91.150716      308.88057    
   5770000   27.206192      105.01847      355.87394    
   5780000   20.831392      96.173687      325.90181    
   5790000   11.727632      96.958035      328.55971    
   5800000   13.844416      110.70989      375.16033    
   5810000   19.556575      106.17991      359.80969    
   5820000   25.039489      94.695853      320.8939     
   5830000  -2.6503031      119.90854      406.33163    
   5840000   19.117096      86.725115      293.88362    
   5850000   33.454136      86.406189      292.80289    
   5860000   28.638689      103.33111      350.15601    
   5870000   21.582199      97.717517      331.13335    
   5880000   19.086277      112.60502      381.58233    
   5890000   25.691409      114.31552      387.37868    
   5900000   25.549854      123.51793      418.5627     
   5910000   26.037399      111.1318       376.59005    
   5920000   12.760247      112.54603      381.38242    
   5930000   2.0390511      105.93147      358.9678     
   5940000   21.267211      107.55764      364.47836    
   5950000   6.4832827      94.591663      320.54084    
   5960000   14.644613      122.82926      416.229      
   5970000   29.873078      120.66177      408.88407    
   5980000   32.125792      110.57021      374.687      
   5990000   22.19564       109.65659      371.59106    
   6000000   23.251596      119.06981      403.48942    
   6010000   54.572109      109.14932      369.87206    
   6020000   33.985777      131.95272      447.14547    
   6030000   36.782386      117.99761      399.85609    
   6040000   33.905373      104.91033      355.5075     
   6050000   25.904439      104.21905      353.16497    
   6060000   16.686634      107.67198      364.86584    
   6070000  -0.31292844     107.25021      363.4366     
   6080000   4.0415359      93.428268      316.59846    
   6090000   1.9858225      109.13624      369.82773    
   6100000  -6.5424654      99.598013      337.50575    
   6110000   19.900544      97.987359      332.04776    
   6120000   0.25077003     105.67353      358.09374    
   6130000   5.616755       108.40148      367.33787    
   6140000   1.8241055      110.48845      374.40995    
   6150000   23.052144      104.82281      355.21092    
   6160000   8.8260979      99.498212      337.16756    
   6170000  -9.3081188      105.80059      358.52429    
   6180000   0.39514766     107.55167      364.45816    
   6190000   3.9991759      107.05103      362.76163    
   6200000   13.989005      108.42778      367.42699    
   6210000   20.803151      100.35622      340.07507    
   6220000   8.3993858      102.94056      348.83257    
   6230000   18.844433      120.62961      408.77509    
   6240000   24.800856      101.26174      343.1436     
   6250000   34.149257      117.52352      398.24955    
   6260000   41.501099      105.69704      358.17341    
   6270000   44.816937      102.07035      345.8837     
   6280000   46.969948      105.99757      359.1918     
   6290000   35.493711      106.66468      361.45242    
   6300000   32.495496      115.40182      391.0598     
   6310000   30.859266      120.64904      408.84094    
   6320000   32.175658      122.06948      413.65434    
   6330000   52.124381      107.8257       365.38673    
   6340000   36.747399      113.36484      384.15712    
   6350000   48.769271      110.69279      375.1024     
   6360000   43.155759      108.65307      368.19043    
   6370000   24.081374      105.13275      356.26119    
   6380000   19.133303      114.20575      387.00668    
   6390000   29.567308      102.38581      346.95271    
   6400000   16.595744      106.57067      361.13385    
   6410000   25.067246      105.56579      357.72865    
   6420000   36.209611      98.723338      334.54176    
   6430000   46.999884      114.00899      386.33995    
   6440000   58.406914      101.53398      344.06612    
   6450000   37.711999      129.48976      438.79929    
   6460000   40.696452      110.39316      374.08705    
   6470000   44.262075      125.83486      426.41403    
   6480000   51.99569       107.52578      364.37041    
   6490000   57.026722      111.45082      377.67111    
   6500000   55.82918       109.86994      372.31403    
   6510000   39.705786      116.15899      393.62561    
   6520000   36.291032      118.25112      400.71514    
   6530000   53.231347      100.31676      339.94135    
   6540000   45.32517       108.38797      367.2921     
   6550000   45.231492      116.70041      395.46029    
   6560000   43.212996      99.893584      338.50735    
   6570000   51.538906      112.00883      379.56205    
   6580000   49.253853      99.959211      338.72974    
   6590000   41.79438       108.08287      366.25821    
   6600000   35.757238      120.0504       406.81233    
   6610000   34.784537      100.65739      341.09565    
   6620000   33.966732      112.92667      382.6723     
   6630000   32.774757      115.01561      389.75104    
   6640000   18.164946      115.73476      392.18803    
   6650000   27.466832      106.28567      360.16808    
   6660000   36.420174      118.92656      403.00399    
   6670000   43.921719      99.943088      338.6751     
   6680000   22.610141      110.98754      376.10123    
   6690000   37.080513      101.04259      342.40096    
   6700000   19.860392      108.80207      368.69534    
   6710000   26.711012      93.503267      316.85261    
   6720000   11.97993       118.08454      400.15065    
   6730000   30.356689      109.66893      371.63288    
   6740000   9.7023105      107.05815      362.78578    
   6750000   7.3766679      102.4111       347.03839    
   6760000   6.9423123      114.30195      387.33268    
   6770000   19.990682      101.96473      345.52578    
   6780000   6.289599       115.68466      392.01825    
   6790000   30.034885      108.97863      369.29366    
   6800000   22.477332      122.61569      415.50528    
   6810000   22.286026      115.78216      392.34865    
   6820000   37.452503      94.093096      318.85135    
   6830000   16.306093      137.01165      464.2886     
   6840000   27.317849      114.5202       388.07225    
   6850000   19.738957      107.76754      365.18965    
   6860000   34.153366      111.55153      378.01239    
   6870000   20.157379      108.78734      368.64543    
   6880000   26.951915      110.20018      373.43308    
   6890000   42.641295      117.38424      397.77758    
   6900000   42.117388      108.30999      367.02785    
   6910000   45.668324      109.60625      371.42047    
   6920000   35.77032       107.42934      364.04361    
   6930000   28.149338      123.21286      417.5289     
   6940000   20.151897      118.92891      403.01197    
   6950000   49.937594      114.20374      386.99987    
   6960000   36.903595      121.3784       411.31251    
   6970000   52.387714      109.71987      371.80548    
   6980000   60.819015      108.10039      366.31759    
   6990000   48.064885      124.44237      421.69531    
   7000000   41.248229      104.20071      353.10281    
   7010000   39.289197      113.0913       383.23018    
   7020000   38.379924      109.13383      369.81959    
   7030000   34.493405      111.98607      379.48491    
   7040000   51.466684      126.53223      428.77719    
   7050000   42.602818      131.56328      445.82581    
   7060000   62.280833      112.51176      381.26631    
   7070000   43.303756      114.23886      387.11888    
   7080000   40.935114      111.88425      379.13986    
   7090000   54.427919      110.20539      373.45076    
   7100000   43.577315      118.46833      401.4512     
   7110000   59.764778      115.69845      392.06499    
   7120000   41.059197      113.33702      384.06284    
   7130000   64.172125      101.24235      343.07787    
   7140000   35.963269      118.37762      401.14382    
   7150000   57.168357      122.5766       415.37283    
   7160000   43.458543      120.09446      406.96166    
   7170000   57.022541      126.16126      427.52008    
   7180000   65.67917       115.85997      392.6123     
   7190000   53.273609      119.89093      406.27195    
   7200000   68.586225      126.27722      427.91303    
   7210000   78.275521      110.14584      373.24895    
   7220000   58.286696      112.70449      381.91942    
   7230000   75.613876      112.30605      380.56922    
   7240000   70.933604      97.8894        331.71581    
   7250000   52.48751       109.118        369.76593    
   7260000   52.482318      118.59652      401.88561    
   7270000   62.764742      107.4243       364.02652    
   7280000   46.504049      113.22781      383.69277    
   7290000   64.585236      107.51628      364.33821    
   7300000   51.475907      114.59268      388.31786    
   7310000   59.719752      106.17244      359.78438    
   7320000   57.573846      110.27984      373.70305    
   7330000   64.399838      107.33649      363.72897    
   7340000   67.522751      120.64867      408.83968    
   7350000   55.595445      115.52942      391.49219    
   7360000   66.743049      112.15091      380.04349    
   7370000   62.978511      101.50149      343.95603    
   7380000   51.319469      105.47621      357.42508    
   7390000   53.567146      108.91623      369.08219    
   7400000   65.946837      123.46043      418.36784    
   7410000   66.686617      108.37731      367.25597    
   7420000   54.621552      117.42298      397.90885    
   7430000   56.361684      108.66489      368.23048    
   7440000   62.188417      106.55916      361.09483    
   7450000   56.952584      103.34071      350.18855    
   7460000   75.581711      100.67923      341.16966    
   7470000   64.276512      111.18734      376.77827    
   7480000   80.685261      122.8403       416.26641    
   7490000   79.935581      121.51941      411.79033    
   7500000   73.170577      119.22995      404.03211    
   7510000   70.209054      122.98608      416.76043    
   7520000   64.196051      114.19752      386.97879    
   7530000   61.481442      110.39483      374.09272    
   7540000   51.433868      112.94972      382.7504     
   7550000   39.411473      114.81692      389.07775    
   7560000   58.712254      118.50028      401.55948    
   7570000   70.433808      124.405        421.56867    
   7580000   73.01217       113.90895      386.00093    
   7590000   61.362028      135.48462      459.11396    
   7600000   67.975434      129.27393      438.06794    
   7610000   63.549202      122.97389      416.71912    
   7620000   82.221929      122.25068      414.26838    
   7630000   56.411582      125.82022      426.36441    
   7640000   68.638003      139.77185      473.642      
   7650000   67.089328      121.94876      413.24529    
   7660000   57.405886      118.96128      403.12165    
   7670000   80.461546      112.28157      380.48628    
   7680000   54.918236      98.079043      332.35845    
   7690000   59.186771      113.05451      383.10551    
   7700000   68.037432      118.54034      401.69524    
   7710000   55.218201      128.24855      434.59324    
   7720000   58.456344      117.92982      399.62638    
   7730000   73.955384      102.1066       346.00655    
   7740000   57.839469      129.47024      438.73317    
   7750000   66.81285       119.83304      406.07577    
   7760000   71.849784      130.60035      442.56275    
   7770000   87.926293      132.71011      449.71203    
   7780000   69.625617      118.46814      401.45057    
   7790000   82.476362      115.87853      392.6752     
   7800000   90.774846      114.14076      386.78646    
   7810000   78.602675      131.29287      444.90947    
   7820000   70.960449      121.22074      410.77825    
   7830000   86.436027      115.66835      391.96298    
   7840000   82.395634      120.73266      409.12428    
   7850000   81.202859      117.41516      397.88237    
   7860000   71.129512      133.78943      453.36952    
   7870000   75.323819      123.9898       420.16169    
   7880000   87.926943      110.58338      374.73163    
   7890000   74.129486      128.09308      434.06642    
   7900000   86.546115      119.20442      403.9456     
   7910000   78.727976      123.07858      417.07386    
   7920000   69.315694      126.38448      428.27651    
   7930000   86.846934      106.75035      361.74273    
   7940000   54.047926      114.09281      386.62397    
   7950000   54.256954      126.0856       427.26368    
   7960000   56.65288       119.92606      406.39097    
   7970000   55.291808      115.98548      393.03764    
   7980000   66.444038      117.49357      398.14806    
   7990000   79.556262      118.37047      401.11959    
   8000000   82.19634       126.32421      428.07225    
   8010000   79.249607      125.98473      426.92186    
   8020000   78.50193       127.31424      431.42716    
   8030000   67.463243      122.21141      414.13531    
   8040000   58.777411      109.95133      372.58984    
   8050000   70.420994      101.95658      345.49819    
   8060000   63.120076      115.64576      391.88643    
   8070000   71.172271      108.19312      366.63182    
   8080000   71.477991      119.97035      406.54108    
   8090000   60.566298      131.69374      446.26788    
   8100000   63.278865      129.21409      437.86515    
   8110000   63.739251      112.84589      382.39857    
   8120000   69.25747       102.3264       346.7514     
   8130000   69.883769      106.48551      360.84528    
   8140000   74.305791      119.77091      405.86523    
   8150000   74.456176      119.01964      403.31942    
   8160000   68.128442      135.40376      458.83995    
   8170000   70.153578      121.7988       412.7371     
   8180000   62.295404      114.32535      387.41197    
   8190000   58.34394       118.50636      401.5801     
   8200000   49.031911      107.0084       362.61716    
   8210000   57.232457      123.75546      419.36761    
   8220000   87.439416      132.99222      450.66802    
   8230000   85.463268      118.25749      400.73675    
   8240000   82.382327      110.51731      374.50773    
   8250000   89.507469      125.99814      426.96734    
   8260000   75.92609       124.60913      422.2604     
   8270000   84.063035      99.748675      338.0163     
   8280000   73.630913      108.90504      369.04429    
   8290000   77.719943      115.24444      390.52648    
   8300000   66.781468      117.67404      398.75962    
   8310000   85.759805      119.0454       403.4067     
   8320000   83.613674      131.61829      446.01221    
   8330000   70.433186      122.81564      416.18286    
   8340000   67.249788      125.55306      425.4591     
   8350000   61.112861      125.0552       423.77201    
   8360000   69.041071      116.42771      394.53619    
   8370000   71.282589      124.47649      421.81092    
   8380000   59.230788      117.28975      397.45739    
   8390000   69.072538      117.09663      396.80294    
   8400000   64.810514      134.08878      454.38391    
   8410000   77.033992      105.37687      357.08845    
   8420000   65.040274      129.22652      437.90728    
   8430000   80.46918       123.49141      418.47281    
   8440000   66.122342      120.17111      407.22138    
   8450000   78.079209      114.20996      387.02097    
   8460000   78.980428      139.41953      472.44812    
   8470000   94.469158      132.38346      448.60511    
   8480000   71.498537      136.85996      463.77456    
   8490000   81.225736      108.36667      367.21991    
   8500000   88.068123      127.05546      430.55023    
   8510000   74.452839      127.24756      431.20121    
   8520000   70.886594      128.80258      436.47066    
   8530000   67.458793      111.22019      376.8896     
   8540000   60.426604      113.24796      383.76106    
   8550000   71.296671      140.18681      475.04816    
   8560000   87.24236       111.11077      376.5188     
   8570000   92.076765      114.46093      387.87142    
   8580000   81.70968       117.57439      398.42193    
   8590000   97.021418      129.75691      439.7046     
   8600000   94.061109      145.3          492.37515    
   8610000   70.203444      124.72674      422.65894    
   8620000   77.708997      128.51185      435.48546    
   8630000   87.860503      117.84725      399.34655    
   8640000   68.218863      139.22445      471.78704    
   8650000   62.762518      129.60588      439.1928     
   8660000   55.92795       157.55973      533.91944    
   8670000   62.240936      133.78593      453.35763    
   8680000   71.831192      127.72503      432.81919    
   8690000   71.648513      118.50785      401.58512    
   8700000   55.47438       148.05888      501.72411    
   8710000   54.168782      132.07882      447.5728     
   8720000   67.299585      156.00454      528.6494     
   8730000   85.208012      134.70376      456.46787    
   8740000   82.892101      145.12441      491.78013    
   8750000   74.486441      130.53565      442.34349    
   8760000   89.400374      117.3297       397.59274    
   8770000   76.209441      123.73813      419.30888    
   8780000   86.419292      132.44393      448.81002    
   8790000   86.630509      138.76197      470.21984    
   8800000   83.130436      139.06836      471.25811    
   8810000   81.634118      116.66874      395.35297    
   8820000   78.779912      113.95965      386.17275    
   8830000   72.786382      126.13944      427.44613    
   8840000   83.515912      126.20211      427.6585     
   8850000   91.003768      115.34161      390.85574    
   8860000   80.158514      119.14512      403.74462    
   8870000   75.694441      123.16183      417.35599    
   8880000   73.540887      121.80682      412.76429    
   8890000   82.864482      120.20391      407.33254    
   8900000   85.420289      136.2638       461.75435    
   8910000   70.303143      145.67635      493.65046    
   8920000   68.787975      110.05331      372.93542    
   8930000   63.689208      107.90541      365.65687    
   8940000   56.623328      116.10046      393.42726    
   8950000   75.150507      119.061        403.45958    
   8960000   89.109114      130.54126      442.3625     
   8970000   87.679622      134.32681      455.19053    
   8980000   58.821637      118.6319       402.0055     
   8990000   84.362942      118.60869      401.92685    
   9000000   75.989226      126.91749      430.0827     
   9010000   84.841259      123.46389      418.37957    
   9020000   61.935374      136.21509      461.58929    
   9030000   78.183537      123.64856      419.00535    
   9040000   71.497758      103.15055      349.54415    
   9050000   82.703779      110.09568      373.07899    
   9060000   74.405828      124.52367      421.97081    
   9070000   75.775821      146.97656      498.05646    
   9080000   69.14479       126.47582      428.58602    
   9090000   84.380378      130.46968      442.11992    
   9100000   87.750157      117.72226      398.923      
   9110000   87.002115      121.25428      410.89192    
   9120000   84.495043      139.66339      473.27447    
   9130000   81.071964      128.63882      435.91573    
   9140000   87.072185      122.44518      414.92749    
   9150000   66.573729      124.08398      420.48084    
   9160000   83.769662      132.46822      448.89235    
   9170000   75.95524       122.13634      413.88093    
   9180000   79.463219      131.84604      446.78398    
   9190000   76.777385      135.95638      460.7126     
   9200000   83.244982      129.34837      438.32019    
   9210000   81.071082      127.13121      430.80692    
   9220000   80.37171       123.08883      417.10862    
   9230000   82.068698      133.23448      451.48895    
   9240000   83.6354        115.87199      392.65303    
   9250000   88.124829      127.57666      432.3164     
   9260000   66.304054      131.55447      445.79593    
   9270000   61.406802      136.98552      464.20003    
   9280000   85.120263      118.45694      401.4126     
   9290000   90.94281       159.62281      540.91054    
   9300000   81.390943      133.92189      453.81836    
   9310000   88.834054      131.60405      445.96395    
   9320000   77.053271      130.79078      443.20804    
   9330000   82.294695      140.23578      475.21411    
   9340000   89.453226      129.56245      439.04564    
   9350000   85.427648      137.45949      465.80616    
   9360000   81.181525      133.42765      452.14357    
   9370000   71.003067      129.34513      438.30918    
   9380000   65.979898      128.80344      436.47359    
   9390000   89.11174       114.63368      388.4568     
   9400000   87.708608      122.25295      414.27608    
   9410000   89.527956      138.18127      468.25205    
   9420000   83.506463      132.16682      447.871      
   9430000   73.431542      133.36375      451.92702    
   9440000   82.873449      114.10629      386.66965    
   9450000   82.233776      121.06832      410.26175    
   9460000   74.647918      126.74334      429.49255    
   9470000   68.064767      134.7579       456.65133    
   9480000   67.194104      149.66119      507.1538     
   9490000   68.822942      124.90726      423.27067    
   9500000   84.119049      131.7813       446.5646     
   9510000   84.370134      134.65996      456.31944    
   9520000   95.048954      114.62142      388.41528    
   9530000   82.414143      126.41737      428.38796    
   9540000   79.475051      114.98777      389.65671    
   9550000   86.741611      133.97281      453.99091    
   9560000   84.256906      128.62399      435.86548    
   9570000   82.586038      118.19299      400.51817    
   9580000   93.178957      136.87765      463.83449    
   9590000   83.747719      148.30442      502.55616    
   9600000   89.392783      128.23806      434.55771    
   9610000   78.060602      130.68241      442.84083    
   9620000   72.294269      128.09129      434.06034    
   9630000   67.607943      126.05444      427.15809    
   9640000   83.767473      118.68083      402.17131    
   9650000   70.427667      130.54342      442.36982    
   9660000   72.365418      110.9931       376.12004    
   9670000   80.16455       120.28934      407.62204    
   9680000   67.987021      110.00403      372.76841    
   9690000   80.593442      136.01097      460.89759    
   9700000   81.605543      133.00477      450.71055    
   9710000   87.112207      125.01128      423.62318    
   9720000   86.68468       138.76785      470.23979    
   9730000   101.47666      147.56384      500.04655    
   9740000   78.988317      149.49169      506.57943    
   9750000   84.464052      125.6005       425.61986    
   9760000   94.840387      143.24716      485.41871    
   9770000   86.95723       124.77223      422.81309    
   9780000   90.765915      127.64906      432.56175    
   9790000   101.71812      121.1015       410.37419    
   9800000   80.425947      142.59592      483.21186    
   9810000   84.266758      145.97809      494.67297    
   9820000   80.583215      142.50999      482.92069    
   9830000   78.21198       143.35129      485.77159    
   9840000   80.064292      122.51346      415.15886    
   9850000   87.345428      115.91845      392.81048    
   9860000   82.005411      130.85223      443.41627    
   9870000   89.595968      131.22715      444.68676    
   9880000   81.148233      134.99556      457.4567     
   9890000   76.99304       156.43973      530.1241     
   9900000   98.218173      137.21243      464.96895    
   9910000   78.512096      133.61413      452.77547    
   9920000   73.12733       141.73293      480.28747    
   9930000   79.141591      150.96086      511.55797    
   9940000   73.156589      144.81174      490.72059    
   9950000   80.906847      152.50578      516.79321    
   9960000   80.068807      140.92745      477.55798    
   9970000   77.55131       139.80497      473.75423    
   9980000   75.295376      147.38357      499.43568    
   9990000   97.364925      123.26297      417.6987     
  10000000   95.210234      132.39573      448.64671    
  10010000   85.171322      153.456        520.0132     
  10020000   77.817423      138.60403      469.68465    
  10030000   88.892722      130.89514      443.56168    
  10040000   65.08096       144.82851      490.77742    
  10050000   73.567675      146.13654      495.20989    
  10060000   78.674803      119.6592       405.48668    
  10070000   75.554781      113.8094       385.66357    
  10080000   77.922919      139.11501      471.41619    
  10090000   101.45927      115.89759      392.7398     
  10100000   85.242231      134.93046      457.23608    
  10110000   79.367044      150.8207       511.08304    
  10120000   83.385708      128.67459      436.03696    
  10130000   90.007988      128.54973      435.61384    
  10140000   95.728757      129.52403      438.91545    
  10150000   95.453492      137.97589      467.55608    
  10160000   87.248865      126.57605      428.92568    
  10170000   89.251866      139.85576      473.92636    
  10180000   87.149447      146.75703      497.31255    
  10190000   91.723144      138.27652      468.5748     
  10200000   91.221844      120.54131      408.47587    
  10210000   81.42668       132.08843      447.60535    
  10220000   98.437274      117.39441      397.81204    
  10230000   71.310894      136.29517      461.86067    
  10240000   98.710418      141.74315      480.32213    
  10250000   87.534688      137.18677      464.88199    
  10260000   77.730275      134.92473      457.21669    
  10270000   71.341073      148.42243      502.95607    
  10280000   67.563953      156.52977      530.42924    
  10290000   59.964717      158.70443      537.79846    
  10300000   39.734353      138.29687      468.64377    
  10310000   71.168412      124.82529      422.9929     
  10320000   68.735624      138.79283      470.32443    
  10330000   63.094733      120.10006      406.9806     
  10340000   60.32608       122.9035       416.48057    
  10350000   80.422715      126.08532      427.26275    
  10360000   68.82461       143.71709      487.01115    
  10370000   64.436825      138.03331      467.75065    
  10380000   82.105111      135.11714      457.86868    
  10390000   63.442436      140.99826      477.79792    
  10400000   72.260337      143.79865      487.28754    
  10410000   78.448673      161.57419      547.52316    
  10420000   84.512316      122.47929      415.04308    
  10430000   70.699593      141.67132      480.07871    
  10440000   99.1238        131.20243      444.60299    
  10450000   89.249633      127.6122       432.43684    
  10460000   80.531264      143.56925      486.51017    
  10470000   80.335514      137.69819      466.61505    
  10480000   81.752977      127.55965      432.25878    
  10490000   86.666925      133.17827      451.29849    
  10500000   92.33942       136.76362      463.44807    
  10510000   94.564265      140.99124      477.77414    
  10520000   95.071903      139.87856      474.00362    
  10530000   96.199297      158.07859      535.67768    
  10540000   83.825707      135.28449      458.43577    
  10550000   65.50603       150.20448      508.99485    
  10560000   83.725493      148.55567      503.40756    
  10570000   98.982576      144.26343      488.86253    
  10580000   85.615557      140.48608      476.06232    
  10590000   89.056124      139.89128      474.04671    
  10600000   83.020308      142.90654      484.26446    
  10610000   81.579956      151.10037      512.03075    
  10620000   84.4479        131.78006      446.56039    
  10630000   88.327729      139.81592      473.79136    
  10640000   78.70554       159.0114       538.83868    
  10650000   97.428549      141.98243      481.13296    
  10660000   100.52054      124.64642      422.38679    
  10670000   72.071163      132.01686      447.36282    
  10680000   74.265683      151.05559      511.87899    
  10690000   93.916283      137.0307       464.35315    
  10700000   96.277159      146.34897      495.92977    
  10710000   83.770956      121.60035      412.06461    
  10720000   71.01535       132.53831      449.12987    
  10730000   79.156068      136.14169      461.34055    
  10740000   89.146515      137.90178      467.30493    
  10750000   97.336005      127.71261      432.77711    
  10760000   89.994915      140.9152       477.51644    
  10770000   103.87892      127.07992      430.63312    
  10780000   83.753037      138.18748      468.27308    
  10790000   101.15383      138.37936      468.92331    
  10800000   103.48284      122.74017      415.92711    
  10810000   92.729459      150.69807      510.66748    
  10820000   96.763329      137.70659      466.64351    
  10830000   88.990555      148.30159      502.54655    
  10840000   94.454275      153.9844       521.80378    
  10850000   78.482019      156.66584      530.89032    
  10860000   96.186786      148.9971       504.90344    
  10870000   81.916517      142.90793      484.2692     
  10880000   79.741876      129.43111      438.60054    
  10890000   81.050061      125.96401      426.85165    
  10900000   72.779242      134.48935      455.7413     
  10910000   90.07202       119.1378       403.71983    
  10920000   78.694261      134.56543      455.99913    
  10930000   80.431311      154.59904      523.8866     
  10940000   85.60887       147.30397      499.16595    
  10950000   83.697486      133.59139      452.69842    
  10960000   86.309811      146.25946      495.62643    
  10970000   92.173447      139.38944      472.34615    
  10980000   104.22194      128.18431      434.37555    
  10990000   80.077676      126.03448      427.09047    
  11000000   97.82851       151.50403      513.39862    
  11010000   88.196637      138.19606      468.30215    
  11020000   83.554231      133.88084      453.67928    
  11030000   89.154202      137.8153       467.01191    
  11040000   105.29893      123.59652      418.82899    
  11050000   82.411323      131.28849      444.89461    
  11060000   101.93422      136.15382      461.38168    
  11070000   100.65352      143.57792      486.53958    
  11080000   95.062678      143.17762      485.18308    
  11090000   83.246601      145.16065      491.90292    
  11100000   80.956719      151.97188      514.98399    
  11110000   101.78917      119.82175      406.03752    
  11120000   66.324289      130.67796      442.82575    
  11130000   83.986267      157.22237      532.77625    
  11140000   83.546458      156.06746      528.8626     
  11150000   87.261992      164.82702      558.54596    
  11160000   98.604476      135.18259      458.09047    
  11170000   87.269246      147.54723      499.99028    
  11180000   109.26837      160.62144      544.29459    
  11190000   116.00111      146.61854      496.84326    
  11200000   100.24733      136.10769      461.22535    
  11210000   94.242173      134.06609      454.30703    
  11220000   98.868907      138.04632      467.79473    
  11230000   98.817628      130.92264      443.65486    
  11240000   86.526009      126.9263       430.11257    
  11250000   96.469368      152.88577      518.08087    
  11260000   113.29224      128.71588      436.17687    
  11270000   101.55417      152.6411       517.25178    
  11280000   99.917844      161.98275      548.90762    
  11290000   85.04511       153.81526      521.23063    
  11300000   98.18787       132.81154      450.05575    
  11310000   86.046616      142.8103       483.93834    
  11320000   105.3882       145.05477      491.54414    
  11330000   92.305163      153.11794      518.86763    
  11340000   98.596789      146.07426      494.99887    
  11350000   79.711678      139.7236       473.47852    
  11360000   85.327908      134.50742      455.80253    
  11370000   101.70181      144.88842      490.98042    
  11380000   85.003912      155.59079      527.24734    
  11390000   75.725829      146.52342      496.52091    
  11400000   101.73431      135.09792      457.80357    
  11410000   91.735705      143.70577      486.97281    
  11420000   93.220869      141.46083      479.36543    
  11430000   89.167688      158.41517      536.81826    
  11440000   88.322872      156.89591      531.66996    
  11450000   99.779678      127.54981      432.22545    
  11460000   94.089338      139.58791      473.01869    
  11470000   100.91271      135.47447      459.07958    
  11480000   81.485744      146.39492      496.08549    
  11490000   120.51342      121.81517      412.79259    
  11500000   109.89371      164.95096      558.96596    
  11510000   111.08895      143.66335      486.82906    
  11520000   92.268557      165.28979      560.11414    
  11530000   83.778539      131.27933      444.86357    
  11540000   87.528225      142.93646      484.36585    
  11550000   86.876397      162.0831       549.24768    
  11560000   79.213969      152.01327      515.12427    
  11570000   86.008156      141.55951      479.69982    
  11580000   94.480615      143.25645      485.45022    
  11590000   95.815777      158.16059      535.95557    
  11600000   103.13107      163.15989      552.89658    
  11610000   93.624963      151.72544      514.1489     
  11620000   102.17061      153.82371      521.25927    
  11630000   97.286545      149.67517      507.20118    
  11640000   92.079625      134.82036      456.86301    
  11650000   93.012866      152.64387      517.26115    
  11660000   80.425073      141.8818       480.79195    
  11670000   92.169359      139.35396      472.22592    
  11680000   94.279559      136.83299      463.68315    
  11690000   92.618321      131.02072      443.98724    
  11700000   84.919007      144.27947      488.91688    
  11710000   86.536097      140.90458      477.48046    
  11720000   76.1659        136.20243      461.54638    
  11730000   96.886502      149.86708      507.8515     
  11740000   109.22856      135.0369       457.59677    
  11750000   107.86644      131.86896      446.86164    
  11760000   107.80887      150.78976      510.97817    
  11770000   87.468072      152.60814      517.14009    
  11780000   98.932511      131.99328      447.28292    
  11790000   94.919461      156.74362      531.1539     
  11800000   88.750427      139.0947       471.34737    
  11810000   96.635441      151.42927      513.14526    
  11820000   111.129        144.35134      489.16045    
  11830000   89.363065      146.22394      495.50607    
  11840000   97.686593      123.77719      419.44122    
  11850000   89.969767      148.45036      503.05071    
  11860000   102.06966      154.0793       522.12538    
  11870000   91.448034      157.7961       534.72041    
  11880000   103.67031      154.94571      525.06136    
  11890000   104.77466      145.22279      492.11348    
  11900000   87.765132      156.04895      528.79989    
  11910000   89.529662      148.61871      503.62117    
  11920000   91.976012      152.07731      515.34128    
  11930000   78.45261       147.44504      499.64399    
  11940000   87.287741      147.48282      499.77201    
  11950000   108.75576      139.68884      473.36071    
  11960000   91.068478      142.75678      483.75698    
  11970000   86.74268       150.87761      511.27587    
  11980000   83.059178      155.92473      528.37894    
  11990000   70.892474      137.8439       467.10881    
  12000000   91.412697      142.37376      482.45906    
Loop time of 471.382 on 1 procs for 8000000 steps with 100 atoms

Performance: 14663.276 ns/day, 0.002 hours/ns, 16971.384 timesteps/s, 1.697 Matom-step/s
99.4% CPU use with 1 MPI tasks x 1 OpenMP threads

MPI task timing breakdown:
Section |  min time  |  avg time  |  max time  |%varavg| %total
---------------------------------------------------------------
Pair    | 381.59     | 381.59     | 381.59     |   0.0 | 80.95
Bond    | 55.073     | 55.073     | 55.073     |   0.0 | 11.68
Neigh   | 4.752      | 4.752      | 4.752      |   0.0 |  1.01
Comm    | 5.1536     | 5.1536     | 5.1536     |   0.0 |  1.09
Output  | 0.32822    | 0.32822    | 0.32822    |   0.0 |  0.07
Modify  | 22.952     | 22.952     | 22.952     |   0.0 |  4.87
Other   |            | 1.536      |            |       |  0.33

Nlocal:            100 ave         100 max         100 min
Histogram: 1 0 0 0 0 0 0 0 0 0
Nghost:              0 ave           0 max           0 min
Histogram: 1 0 0 0 0 0 0 0 0 0
Neighs:            408 ave         408 max         408 min
Histogram: 1 0 0 0 0 0 0 0 0 0

Total # of neighbors = 408
Ave neighs/atom = 4.08
Ave special neighs/atom = 5.88
Neighbor list builds = 23322
Dangerous builds = 0
Generated 0 of 6 mixed pair_coeff terms from geometric mixing rule
Setting up Verlet run ...
  Unit style    : real
  Current step  : 12000000
  Time step     : 10
Per MPI rank memory allocation (min/avg/max) = 9.633 | 9.633 | 9.633 Mbytes
   Step         PotEng         KinEng          Temp     
  12000000   91.412697      142.37376      482.45906    
  12010000   82.365895      148.5237       503.29922    
  12020000   96.334332      134.35677      455.29204    
  12030000   94.038401      158.77714      538.04485    
  12040000   85.454014      158.57717      537.36722    
  12050000   102.00855      135.32404      458.56981    
  12060000   95.166288      140.40616      475.79149    
  12070000   80.133997      152.25854      515.9554     
  12080000   83.213716      157.22979      532.80138    
  12090000   87.835921      139.93994      474.21163    
  12100000   95.108803      137.78827      466.9203     
  12110000   93.58177       141.08459      478.09048    
  12120000   100.20645      154.14855      522.36003    
  12130000   82.734468      164.75724      558.30949    
  12140000   79.855288      150.4489       509.82313    
  12150000   91.248465      150.30791      509.34535    
  12160000   99.668446      141.51917      479.56311    
  12170000   64.680115      162.3305       550.08604    
  12180000   88.671996      135.93229      460.63098    
  12190000   101.95019      145.8642       494.28703    
  12200000   79.884695      159.57172      540.73742    
  12210000   93.824288      146.05762      494.94246    
  12220000   109.00422      154.5525       523.72889    
  12230000   114.59811      151.09528      512.01347    
  12240000   92.639817      164.35811      556.95698    
  12250000   88.674358      142.21651      481.92618    
  12260000   86.200839      148.62504      503.64262    
  12270000   92.240491      129.42846      438.59159    
  12280000   95.944368      144.92693      491.11091    
  12290000   93.923522      177.11911      600.19992    
  12300000   119.59677      150.88564      511.30308    
  12310000   105.58752      148.70128      503.901      
  12320000   94.440766      136.60077      462.89622    
  12330000   91.406676      150.15576      508.82975    
  12340000   91.478213      160.8031       544.91016    
  12350000   89.00308       150.6656       510.55744    
  12360000   97.280758      151.3586       512.9058     
  12370000   82.242425      152.53535      516.89341    
  12380000   105.57249      164.57637      557.69657    
  12390000   104.4855       163.31646      553.42714    
  12400000   93.549758      145.839        494.20163    
  12410000   100.13285      147.56407      500.04733    
  12420000   99.354424      153.23147      519.25236    
  12430000   86.207161      140.55273      476.28818    
  12440000   94.656973      155.50309      526.95014    
  12450000   78.137093      146.3211       495.83533    
  12460000   85.481185      161.4784       547.19854    
  12470000   95.553314      142.53193      482.99505    
  12480000   79.552747      124.56552      422.11263    
  12490000   97.078236      139.68275      473.34009    
  12500000   83.860934      138.11848      468.03928    
  12510000   119.22309      164.7253       558.20127    
  12520000   100.96499      164.32376      556.84057    
  12530000   99.92161       135.69779      459.83634    
  12540000   86.731359      132.51751      449.05938    
  12550000   96.685838      141.75648      480.3673     
  12560000   80.178557      152.99145      518.439      
  12570000   80.175928      135.91685      460.57865    
  12580000   105.65919      141.85614      480.70499    
  12590000   82.639695      155.21824      525.98489    
  12600000   93.013761      133.2345       451.48903    
  12610000   81.831255      152.73507      517.57021    
  12620000   84.552567      130.08319      440.81025    
  12630000   77.107226      152.58618      517.06567    
  12640000   100.02515      156.39111      529.95935    
  12650000   74.461242      153.38692      519.77913    
  12660000   95.255496      153.23658      519.26965    
  12670000   104.56157      152.81866      517.85348    
  12680000   110.06341      167.44823      567.42839    
  12690000   89.219419      161.58046      547.54441    
  12700000   80.789369      160.51978      543.95009    
  12710000   74.490719      158.39804      536.76019    
  12720000   92.408072      120.71095      409.05073    
  12730000   102.57873      128.25432      434.61279    
  12740000   101.94617      140.66699      476.67537    
  12750000   103.63722      129.64185      439.3147     
  12760000   106.05482      150.76254      510.88594    
  12770000   88.361035      148.933        504.6862     
  12780000   92.837461      141.29609      478.80718    
  12790000   101.96198      162.9147       552.06571    
  12800000   91.764828      134.33962      455.23394    
  12810000   88.858743      129.78247      439.79119    
  12820000   109.2246       128.58443      435.73142    
  12830000   91.935318      142.9549       484.42836    
  12840000   87.442132      162.42281      550.39885    
  12850000   85.44449       133.85305      453.58509    
  12860000   84.599047      170.10983      576.44771    
  12870000   99.127964      163.84828      555.22933    
  12880000   91.046861      132.05244      447.4834     
  12890000   88.40606       151.55849      513.58317    
  12900000   88.070435      149.02847      505.00972    
  12910000   116.26929      158.2452       536.24227    
  12920000   102.32262      153.43444      519.94014    
  12930000   111.40388      164.52035      557.50674    
  12940000   92.592936      153.96048      521.72274    
  12950000   100.00752      138.32505      468.73926    
  12960000   94.683972      145.93939      494.54183    
  12970000   95.385296      142.83894      484.03541    
  12980000   79.183303      153.313        519.52863    
  12990000   88.548175      141.82242      480.59075    
  13000000   84.353431      127.37347      431.62787    
  13010000   93.939733      156.84337      531.49193    
  13020000   95.015673      152.18754      515.71481    
  13030000   97.425208      137.35991      465.46871    
  13040000   87.941458      122.06065      413.62444    
  13050000   77.365706      143.91555      487.68369    
  13060000   94.739646      132.98604      450.64706    
[...]

Total # of neighbors = 979
Ave neighs/atom = 9.79
Ave special neighs/atom = 5.88
Neighbor list builds = 47075
Dangerous builds = 0
Generated 0 of 6 mixed pair_coeff terms from geometric mixing rule
Setting up Verlet run ...
  Unit style    : real
  Current step  : 156000000
  Time step     : 10
Per MPI rank memory allocation (min/avg/max) = 9.635 | 9.635 | 9.635 Mbytes
   Step         PotEng         KinEng          Temp     
 156000000  -19.849088      102.63786      347.80682    
 156010000  -36.92815       98.943633      335.28827    
 156020000  -30.424674      78.272934      265.24189    
 156030000  -34.71042       86.254609      292.28923    
 156040000  -34.620545      80.92085       274.21483    
 156050000  -39.128412      81.90299       277.54299    
 156060000  -34.773473      85.312643      289.09721    
 156070000  -38.630248      76.456         259.08489    
 156080000  -50.649227      80.330479      272.21425    
 156090000  -39.840505      80.250675      271.94382    
 156100000  -31.394868      88.779087      300.84388    
 156110000  -23.194249      86.449364      292.94919    
 156120000  -38.101977      101.40782      343.63862    
 156130000  -22.316757      83.253023      282.11782    
 156140000  -28.144922      96.943506      328.51048    
 156150000  -31.191461      80.21482       271.82232    
 156160000  -17.16861       87.103328      295.16527    
 156170000  -11.635313      87.879559      297.79567    
 156180000  -25.099006      89.472546      303.19379    
 156190000  -20.567308      93.075569      315.40328    
 156200000  -24.532144      89.187117      302.22656    
 156210000  -18.696732      80.196033      271.75866    
 156220000  -0.72015446     92.965798      315.0313     
 156230000  -6.6258859      80.795575      273.79031    
 156240000  -5.8053         86.51918       293.18578    
 156250000   10.855772      81.107047      274.84579    
 156260000  -12.513782      95.365025      323.16151    
 156270000  -2.8624953      80.882087      274.08347    
 156280000  -25.323174      102.81306      348.40051    
 156290000  -23.985597      83.534152      283.07047    
 156300000  -22.827578      74.481366      252.39348    
 156310000  -23.371219      90.11885       305.3839     
 156320000  -32.324876      98.999243      335.47671    
 156330000  -35.253753      93.235984      315.94687    
 156340000  -26.919413      97.448295      330.22105    
 156350000  -24.180543      96.771881      327.9289     
 156360000  -9.5470313      85.091866      288.34907    
 156370000  -4.7740545      79.321765      268.79604    
 156380000  -8.4440212      81.084881      274.77068    
 156390000  -15.208397      89.735557      304.08505    
 156400000  -10.827735      86.418209      292.84362    
 156410000  -13.577804      92.841937      314.61158    
 156420000  -39.962145      91.41939       309.79102    
 156430000  -19.691788      83.322097      282.35189    
 156440000  -15.16754       85.261512      288.92394    
 156450000  -31.694612      89.958287      304.83981    
 156460000  -20.225074      93.540509      316.97881    
 156470000  -15.621546      88.748102      300.73888    
 156480000  -18.955073      87.734347      297.30359    
 156490000  -4.0949974      89.47442       303.20014    
 156500000  -10.069822      85.040331      288.17443    
 156510000  -9.3696594      92.492045      313.4259     
 156520000  -3.69956        102.93613      348.81755    
 156530000  -12.943165      94.055573      318.7242     
 156540000  -8.8796742      84.615139      286.73359    
 156550000  -22.69194       97.135797      329.16209    
 156560000  -38.892235      85.970079      291.32505    
 156570000  -48.408415      77.133167      261.37959    
 156580000  -45.522497      86.469655      293.01795    
 156590000  -18.937426      88.69638       300.56361    
 156600000  -25.851107      103.71796      351.46694    
 156610000  -10.433084      83.830396      284.07435    
 156620000  -20.303058      91.436125      309.84773    
 156630000  -14.475088      89.970862      304.88242    
 156640000  -23.69552       89.822256      304.37884    
 156650000  -34.488056      72.2763        244.92122    
 156660000  -14.541758      70.022933      237.28528    
 156670000  -18.854331      82.918959      280.98578    
 156680000  -7.8377757      81.731001      276.96017    
 156690000  -21.896773      84.747263      287.18132    
 156700000  -30.507249      105.27154      356.73151    
 156710000  -32.089145      101.19174      342.90639    
 156720000  -22.74083       85.3072        289.07877    
 156730000  -31.218586      90.297941      305.99079    
 156740000  -21.325271      98.47044       333.68477    
 156750000  -10.413396      90.733825      307.46786    
 156760000  -9.5561017      82.034763      277.98952    
 156770000  -30.004986      83.243756      282.08641    
 156780000  -28.181438      103.10583      349.39262    
 156790000  -23.326724      88.706217      300.59694    
 156800000  -10.050955      96.06551       325.53523    
 156810000  -20.057058      90.952142      308.20767    
 156820000  -35.761946      104.82765      355.2273     
 156830000  -30.9822        82.639633      280.03923    
 156840000  -42.593794      97.210785      329.4162     
 156850000  -31.674676      88.04954       298.37168    
 156860000  -10.897778      76.520559      259.30366    
 156870000  -32.120615      100.10638      339.22845    
 156880000  -23.448892      93.982697      318.47724    
 156890000  -28.812829      82.321448      278.96101    
 156900000  -54.579044      97.516306      330.45151    
 156910000  -32.945148      78.138958      264.78789    
 156920000  -35.720282      84.54795       286.50591    
 156930000  -26.785443      79.204912      268.40007    
 156940000  -34.003314      100.18573      339.49732    
 156950000  -28.543421      99.243445      336.30423    
 156960000  -13.073578      87.046033      294.97111    
 156970000  -17.637378      83.522491      283.03096    
 156980000  -3.0744955      77.141141      261.40661    
 156990000  -27.923414      88.096286      298.53009    
 157000000  -11.036093      84.491527      286.31471    
 157010000  -9.9584845      97.253835      329.56208    
 157020000  -23.943821      103.4438       350.53788    
 157030000  -32.241085      97.216493      329.43554    
 157040000  -26.644623      89.461218      303.1554     
 157050000  -18.200632      86.768584      294.03093    
 157060000  -24.006752      75.99093       257.50891    
 157070000  -38.228405      94.882681      321.527      
 157080000  -35.180047      97.739358      331.20736    
 157090000  -14.303925      85.218863      288.77942    
 157100000  -14.572286      87.185662      295.44427    
 157110000  -25.951729      93.273232      316.0731     
 157120000  -14.633097      97.051117      328.87514    
 157130000  -15.30961       91.799193      311.07805    
 157140000  -30.156708      83.835593      284.09196    
 157150000  -20.875323      80.453087      272.62973    
 157160000  -20.176704      83.348902      282.44272    
 157170000  -13.534258      78.714276      266.73746    
 157180000  -21.269003      97.334354      329.83494    
 157190000  -38.729206      106.93087      362.35445    
 157200000  -13.288796      96.8427        328.16888    
 157210000  -9.7750828      91.580644      310.33746    
 157220000  -22.996369      91.871571      311.32332    
 157230000  -33.868674      93.931216      318.30279    
 157240000  -35.646118      95.73806       324.42561    
 157250000  -26.978895      88.562391      300.10956    
 157260000  -24.267866      95.779145      324.56483    
 157270000  -22.635181      103.00585      349.05382    
 157280000  -17.637931      81.427923      275.93314    
 157290000  -30.43627       95.63494       324.07617    
 157300000  -33.597158      93.103657      315.49846    
 157310000  -33.965031      82.956592      281.11331    
 157320000  -40.663085      85.924845      291.17177    
 157330000  -26.768904      77.872043      263.8834     
 157340000  -26.378533      101.35655      343.46487    
 157350000  -41.675631      104.54019      354.25321    
 157360000  -16.81918       87.794094      297.50605    
 157370000  -24.035257      79.28015       268.65502    
 157380000  -22.803843      97.808742      331.44249    
 157390000  -4.9020259      83.217407      281.99713    
 157400000  -14.416199      91.859334      311.28185    
 157410000   0.98629408     91.152273      308.88585    
 157420000  -26.085688      102.92728      348.78756    
 157430000  -28.362134      92.507518      313.47833    
 157440000  -36.89271       98.17503       332.68372    
 157450000  -28.439005      82.756198      280.43424    
 157460000  -30.691266      96.273563      326.24026    
 157470000  -32.07034       81.397997      275.83173    
 157480000  -20.144649      83.551409      283.12895    
 157490000  -25.150346      90.956393      308.22207    
 157500000  -14.313062      83.726439      283.72207    
 157510000  -35.911637      97.600115      330.73552    
 157520000  -42.529595      92.820191      314.53788    
 157530000  -27.149658      80.939003      274.27635    
 157540000  -33.256815      91.258077      309.24438    
 157550000  -22.676752      85.027825      288.13205    
 157560000  -35.143544      88.048002      298.36647    
 157570000  -30.917036      77.584896      262.91035    
 157580000  -55.281398      93.311711      316.20349    
 157590000  -35.699193      91.051893      308.54569    
 157600000  -23.385184      75.398713      255.50208    
 157610000  -32.92873       74.642838      252.94066    
 157620000  -29.666979      80.972606      274.39021    
 157630000  -15.039996      83.738095      283.76157    
 157640000  -23.765597      82.350755      279.06032    
 157650000  -33.330712      89.285861      302.56117    
 157660000  -39.678689      97.403455      330.0691     
 157670000  -25.107425      85.015893      288.09162    
 157680000  -40.812071      81.658778      276.71543    
 157690000  -37.744378      83.946499      284.46778    
 157700000  -24.670352      87.878749      297.79292    
 157710000  -27.494912      98.499973      333.78485    
 157720000  -30.442418      106.35133      360.39058    
 157730000  -3.357584       94.123188      318.95333    
 157740000   0.30079743     82.239918      278.68473    
 157750000  -12.721026      76.313825      258.6031     
 157760000  -8.989812       91.859539      311.28254    
 157770000  -10.306101      84.172967      285.23521    
 157780000  -20.636516      90.00932       305.01274    
 157790000  -25.985154      98.518878      333.84891    
 157800000  -23.031587      90.444274      306.48666    
 157810000  -26.865626      83.042132      281.40317    
 157820000  -20.712958      70.326688      238.31461    
 157830000  -14.094425      64.519295      218.63522    
 157840000  -26.227032      73.300022      248.39029    
 157850000  -4.6961265      81.248488      275.32509    
 157860000  -26.78389       91.93441       311.53626    
 157870000  -24.749157      83.457422      282.81046    
 157880000  -24.061815      82.643017      280.0507     
 157890000  -31.857123      86.954897      294.66228    
 157900000  -34.460847      84.212607      285.36954    
 157910000  -10.439065      77.533591      262.7365     
 157920000  -15.078143      76.242371      258.36096    
 157930000  -8.6432812      80.901454      274.14911    
 157940000  -26.898465      89.798239      304.29746    
 157950000  -38.415246      87.953311      298.04559    
 157960000  -20.725362      86.690703      293.76701    
 157970000  -27.931631      103.47272      350.63588    
 157980000   1.1780908      86.170456      292.00406    
 157990000  -20.009103      112.47478      381.141      
 158000000  -6.2668587      94.762406      321.11943    
 158010000  -20.202523      90.456885      306.5294     
 158020000  -27.551322      93.896114      318.18384    
 158030000  -43.324283      90.079408      305.25025    
 158040000  -28.295097      80.106936      271.45674    
 158050000  -1.1833919      95.883802      324.91948    
 158060000  -28.210036      81.630703      276.6203     
 158070000  -24.46295       88.587851      300.19584    
 158080000  -36.375841      90.887701      307.98929    
 158090000  -30.924912      88.860794      301.12076    
 158100000  -29.656245      86.474956      293.03592    
 158110000  -27.232397      88.772457      300.82141    
 158120000  -27.066636      96.0317        325.42066    
 158130000  -27.957454      113.071        383.1614     
 158140000  -3.8334372      87.895898      297.85103    
 158150000  -12.415732      87.492308      296.4834     
 158160000  -16.331104      87.982185      298.14343    
 158170000  -25.887502      70.492353      238.876      
 158180000  -39.442491      93.360035      316.36724    
 158190000  -32.027411      82.401674      279.23287    
 158200000  -37.653795      93.239014      315.95714    
 158210000  -25.279431      85.11709       288.43454    
 158220000  -15.908683      82.051816      278.04731    
 158230000  -22.651063      92.952632      314.98668    
 158240000  -34.095716      84.217125      285.38485    
 158250000  -26.673817      91.467772      309.95497    
 158260000  -29.305034      94.49272       320.20555    
 158270000  -13.872732      106.84448      362.0617     
 158280000  -15.029713      84.796064      287.34669    
 158290000  -25.229143      78.551917      266.18728    
 158300000  -28.649335      92.369099      313.00928    
 158310000  -13.201935      86.586756      293.41477    
 158320000  -12.398857      98.899017      335.13708    
 158330000  -13.983396      107.53852      364.41359    
 158340000  -10.538662      85.994886      291.40911    
 158350000  -13.557543      85.951233      291.26119    
 158360000  -16.217024      94.345549      319.70683    
 158370000   0.41650662     89.172507      302.17705    
 158380000  -19.67108       91.413928      309.77251    
 158390000  -18.076758      78.433247      265.78514    
 158400000  -26.044063      87.392931      296.14664    
 158410000  -23.604017      91.203261      309.05863    
 158420000  -37.109481      84.942452      287.84275    
 158430000  -23.948079      75.973604      257.4502     
 158440000  -20.252347      93.716681      317.5758     
 158450000  -9.5828285      72.831873      246.80388    
 158460000  -10.833881      86.472002      293.02591    
 158470000  -26.691503      89.976671      304.90211    
 158480000  -21.747018      96.233832      326.10562    
 158490000  -1.2573229      90.815387      307.74425    
 158500000  -5.2437202      86.51062       293.15677    
 158510000  -0.076248774    85.753338      290.59059    
 158520000  -27.261496      95.282017      322.88022    
 158530000  -17.205686      75.457484      255.70123    
 158540000  -47.171732      86.126373      291.85468    
 158550000  -37.523696      88.104862      298.55914    
 158560000  -28.521043      78.283492      265.27767    
 158570000  -33.094275      74.566181      252.68089    
 158580000  -42.64794       73.240601      248.18893    
 158590000  -36.166344      81.838919      277.32587    
 158600000  -28.678818      83.064027      281.47737    
 158610000  -31.746483      101.82838      345.06374    
 158620000  -36.81315       95.611761      323.99762    
 158630000  -35.403934      85.719137      290.47469    
 158640000  -24.73984       95.452253      323.4571     
 158650000  -19.727929      93.959442      318.39844    
 158660000  -31.651189      100.37537      340.13995    
 158670000  -26.700887      103.70081      351.40881    
 158680000  -19.503582      86.519193      293.18582    
 158690000  -14.741895      82.305525      278.90705    
 158700000  -6.9266302      102.99414      349.01412    
 158710000  -7.332571       94.644838      320.72103    
 158720000   1.7111462      99.786627      338.1449     
 158730000  -11.967781      94.291322      319.52308    
 158740000  -18.924168      111.62947      378.27651    
 158750000  -12.758575      96.776552      327.94472    
 158760000  -16.903835      91.781974      311.0197     
 158770000  -11.732699      95.038389      322.05465    
 158780000  -20.760262      99.548669      337.33854    
 158790000  -31.181809      91.159364      308.90987    
 158800000  -28.707377      89.829054      304.40188    
 158810000  -22.601705      101.01855      342.31951    
 158820000  -11.091047      88.113677      298.58902    
 158830000  -15.838802      89.48243       303.22728    
 158840000  -32.833618      93.92167       318.27044    
 158850000  -25.625391      83.297472      282.26844    
 158860000  -31.104851      84.466586      286.23019    
 158870000  -31.721064      99.667763      337.74211    
 158880000  -42.499992      83.366209      282.50137    
 158890000  -21.296125      90.95645       308.22226    
 158900000  -25.950879      85.52858       289.82895    
 158910000  -41.815813      87.647119      297.008      
 158920000  -23.213178      77.067909      261.15845    
 158930000  -21.642351      83.116364      281.65472    
 158940000  -32.980688      92.834827      314.58748    
 158950000  -40.633779      81.231491      275.26749    
 158960000  -23.145548      88.647056      300.39647    
 158970000  -25.195763      78.859662      267.23012    
 158980000  -25.321111      85.490192      289.69887    
 158990000  -34.418702      88.624564      300.32025    
 159000000  -32.612767      94.163121      319.08864    
 159010000  -30.609569      88.388521      299.52037    
 159020000  -29.770018      92.615701      313.84493    
 159030000  -7.2192775      81.61326       276.56119    
 159040000  -28.026441      90.180622      305.59323    
 159050000  -35.75555       88.259317      299.08254    
 159060000  -49.156333      94.168972      319.10847    
 159070000  -24.267607      79.732528      270.18799    
 159080000  -24.97567       89.998143      304.97487    
 159090000  -20.62591       99.857427      338.38482    
 159100000  -31.711505      99.172262      336.06302    
 159110000  -19.303998      92.674794      314.04518    
 159120000  -19.500108      91.439694      309.85982    
 159130000  -35.118468      94.206542      319.23579    
 159140000  -39.61636       82.444449      279.37782    
 159150000  -34.363176      82.485378      279.51652    
 159160000  -46.541524      104.47532      354.03338    
 159170000  -28.891681      89.0101        301.62671    
 159180000  -33.537409      87.688821      297.14932    
 159190000  -32.748884      82.314378      278.93705    
 159200000  -35.808283      87.931973      297.97328    
 159210000  -52.885753      102.42576      347.0881     
 159220000  -40.890244      78.875719      267.28454    
 159230000  -45.548294      91.47524       309.98028    
 159240000  -46.578155      91.642753      310.54792    
 159250000  -45.405597      91.034192      308.48571    
 159260000  -31.534153      78.687084      266.64531    
 159270000  -27.437862      88.315417      299.27265    
 159280000  -24.935955      86.5022        293.12824    
 159290000  -34.091759      87.971292      298.10652    
 159300000  -41.146061      92.800397      314.47081    
 159310000  -31.17009       91.643424      310.5502     
 159320000  -35.215545      92.345756      312.93017    
 159330000  -20.440872      88.785205      300.86461    
 159340000  -20.489396      92.751231      314.3042     
 159350000  -11.041542      88.925488      301.33998    
 159360000  -18.712682      94.168038      319.10531    
srun: Job step aborted: Waiting up to 47 seconds for job step to finish.
[2025-11-21T03:05:23.597] error: *** STEP 2468766.0 ON della-r3c4n16 CANCELLED AT 2025-11-21T03:05:23 DUE to SIGNAL Terminated ***
[2025-11-21T03:05:23.597] error: *** JOB 2468766 ON della-r3c4n16 CANCELLED AT 2025-11-21T03:05:23 DUE to SIGNAL Terminated ***
