LAMMPS (29 Aug 2024)
  using 1 OpenMP thread(s) per MPI task
  using 1 OpenMP thread(s) per MPI task
Reading data file ...
  orthogonal box = (-1000.6 -1000.6 -1800.6) to (1000.6 1000.6 1000.6)
  1 by 1 by 1 MPI processor grid
  reading atoms ...
  200 atoms
  scanning bonds ...
  1 = max bonds/atom
  scanning angles ...
  1 = max angles/atom
  orthogonal box = (-1000.6 -1000.6 -1800.6) to (1000.6 1000.6 1000.6)
  1 by 1 by 1 MPI processor grid
  reading bonds ...
  199 bonds
  reading angles ...
  198 angles
Finding 1-2 1-3 1-4 neighbors ...
  special bond factors lj:    0        0        0       
  special bond factors coul:  0        0        0       
     2 = max # of 1-2 neighbors
     2 = max # of 1-3 neighbors
     4 = max # of 1-4 neighbors
     6 = max # of special neighbors
  special bonds CPU = 0.000 seconds
  read_data CPU = 0.010 seconds
Finding 1-2 1-3 1-4 neighbors ...
  special bond factors lj:    0        0        1       
  special bond factors coul:  0        0        0       
     2 = max # of 1-2 neighbors
     2 = max # of 1-3 neighbors
     4 = max # of 1-4 neighbors
     6 = max # of special neighbors
  special bonds CPU = 0.000 seconds

CITE-CITE-CITE-CITE-CITE-CITE-CITE-CITE-CITE-CITE-CITE-CITE-CITE

Your simulation uses code contributions which should be cited:
- Type Label Framework: https://doi.org/10.1021/acs.jpcb.3c08419
The log file lists these citations in BibTeX format.

CITE-CITE-CITE-CITE-CITE-CITE-CITE-CITE-CITE-CITE-CITE-CITE-CITE

Generated 0 of 6 mixed pair_coeff terms from geometric mixing rule
Neighbor list info ...
  update: every = 10 steps, delay = 0 steps, check = yes
  max neighbors/atom: 2000, page size: 100000
  master list distance cutoff = 33
  ghost atom cutoff = 33
  binsize = 16.5, bins = 122 122 170
  2 neighbor lists, perpetual/occasional/extra = 2 0 0
  (1) pair lj/cut, perpetual, trim from (2)
      attributes: half, newton on, cut 25
      pair build: trim
      stencil: none
      bin: none
  (2) pair base/rna, perpetual
      attributes: half, newton on
      pair build: half/bin/newton
      stencil: half/bin/3d
      bin: standard
Setting up Verlet run ...
  Unit style    : real
  Current step  : 0
  Time step     : 10
Per MPI rank memory allocation (min/avg/max) = 18.05 | 18.05 | 18.05 Mbytes
   Step         PotEng         KinEng          Temp     
         0   271.41412      0              0            
     10000   93.493687      163.76245      276.07492    
     20000   109.41964      167.41264      282.2285     
     30000   112.7966       162.31803      273.63987    
     40000   112.99698      158.02735      266.40653    
     50000   110.00156      188.7567       318.21087    
     60000   114.97841      173.23885      292.05047    
     70000   116.37494      177.37476      299.02289    
     80000   110.02427      173.21483      292.00997    
     90000   111.29151      187.97322      316.89006    
    100000   91.434055      203.58589      343.21029    
    110000   102.19621      179.66795      302.88882    
    120000   92.392481      177.3597       298.9975     
    130000   91.968731      182.14814      307.06997    
    140000   80.335275      193.70631      326.55504    
    150000   92.086502      164.47545      277.27691    
    160000   83.675677      185.10893      312.06136    
    170000   93.037023      166.09602      280.0089     
    180000   86.256654      169.68056      286.05182    
    190000   85.390735      160.61123      270.7625     
    200000   81.065658      168.09933      283.38615    
    210000   69.577469      178.8224       301.46336    
    220000   70.862171      160.50576      270.58471    
    230000   73.463049      189.27411      319.08312    
    240000   70.195031      191.85305      323.43076    
    250000   78.960463      179.43691      302.49932    
    260000   98.605425      180.48492      304.26609    
    270000   79.175916      195.57143      329.69931    
    280000   62.387383      180.88675      304.9435     
    290000   61.441266      169.01651      284.93234    
    300000   47.068368      170.08917      286.74066    
    310000   21.634908      176.87584      298.1818     
    320000   13.348356      186.37961      314.2035     
    330000   22.665361      168.02319      283.25777    
    340000   26.509851      170.26434      287.03596    
    350000   14.740684      180.34353      304.02773    
    360000  -6.7805738      183.67893      309.65063    
    370000   22.02969       168.51606      284.08868    
    380000   20.127176      177.33424      298.95458    
    390000   13.289544      172.05701      290.0581     
    400000   13.162145      161.0339       271.47506    
    410000   32.185978      159.04479      268.12177    
    420000   27.594761      170.67642      287.73065    
    430000   28.76985       188.04001      317.00265    
    440000   15.711172      185.75565      313.15162    
    450000  -13.394655      191.96224      323.61484    
    460000  -14.8073        202.70926      341.73244    
    470000  -13.475213      175.52812      295.90978    
    480000  -34.320882      172.24471      290.37452    
    490000  -34.290908      161.48857      272.24155    
    500000  -52.951847      192.12968      323.89712    
    510000  -35.742791      183.2416       308.91337    
    520000  -19.32662       154.87448      261.09135    
    530000  -23.907714      174.51906      294.20869    
    540000  -44.930711      165.35948      278.76722    
    550000  -59.445791      177.17591      298.68767    
    560000  -56.13148       175.15775      295.28541    
    570000  -63.74848       148.54123      250.4146     
    580000  -68.363581      163.09929      274.95694    
    590000  -89.022768      185.11396      312.06984    
    600000  -58.677427      176.04681      296.7842     
    610000  -49.608619      176.5524       297.63653    
    620000  -65.530428      191.64687      323.08318    
    630000  -49.984992      176.51366      297.57123    
    640000  -48.456787      177.98333      300.04884    
    650000  -63.113117      180.03423      303.50629    
    660000  -27.33352       172.0672       290.07527    
    670000  -49.135118      186.15665      313.82763    
    680000  -26.37565       196.13688      330.65256    
    690000  -26.398004      165.55986      279.10504    
    700000  -40.802568      183.74684      309.76511    
    710000  -75.452062      180.31272      303.97579    
    720000  -63.388097      170.84227      288.01026    
    730000  -55.619701      186.49428      314.39681    
    740000  -58.729036      166.85168      281.28283    
    750000  -72.479327      190.39024      320.96472    
    760000  -90.575274      184.8746       311.66631    
    770000  -88.115596      182.24539      307.23392    
    780000  -67.311454      148.74313      250.75496    
    790000  -68.6906        173.84427      293.0711     
    800000  -56.52738       182.07112      306.94014    
    810000  -61.31543       185.39576      312.5449     
    820000  -79.29979       185.02472      311.9194     
    830000  -81.312806      181.29552      305.63262    
    840000  -95.165057      175.96614      296.64821    
    850000  -68.191823      167.96138      283.15358    
    860000  -78.889702      187.60258      316.26521    
    870000  -68.864665      190.58706      321.29653    
    880000  -77.768301      173.22396      292.02537    
    890000  -69.4919        188.02838      316.98304    
    900000  -79.357256      189.96229      320.24327    
    910000  -63.471099      172.47077      290.75563    
    920000  -102.97908      190.55699      321.24583    
    930000  -113.16699      174.49627      294.17027    
    940000  -89.334901      161.41847      272.12338    
    950000  -87.949567      188.28173      317.41015    
    960000  -63.660704      169.31188      285.43028    
    970000  -73.383268      164.25281      276.90158    
    980000  -103.39809      188.48706      317.7563     
    990000  -88.032878      165.73013      279.39207    
   1000000  -102.92359      177.53072      299.28582    
   1010000  -87.639375      184.73498      311.43094    
   1020000  -69.682256      173.4099       292.33883    
   1030000  -96.691865      201.86063      340.3018     
   1040000  -81.049746      174.57794      294.30794    
   1050000  -86.262236      179.61684      302.80265    
   1060000  -68.245201      189.22685      319.00346    
   1070000  -78.689569      181.06816      305.24932    
   1080000  -104.0766       164.48331      277.29017    
   1090000  -133.27185      184.36494      310.80712    
   1100000  -110.53195      158.62862      267.42018    
   1110000  -108.14607      165.70681      279.35276    
   1120000  -111.53074      169.91848      286.45291    
   1130000  -96.102969      178.17803      300.37707    
   1140000  -104.86546      170.63973      287.66882    
   1150000  -107.15526      169.47647      285.70776    
   1160000  -108.7187       175.2316       295.4099     
   1170000  -101.66622      177.12996      298.61021    
   1180000  -88.830266      162.25348      273.53105    
   1190000  -104.75895      177.71073      299.58929    
   1200000  -81.062762      178.4184       300.7823     
   1210000  -72.891139      193.51159      326.22678    
   1220000  -81.208151      179.91281      303.30161    
   1230000  -80.278353      185.3446       312.45866    
   1240000  -118.04162      176.97928      298.35618    
   1250000  -88.72779       191.90737      323.52234    
   1260000  -93.575986      192.87059      325.14616    
   1270000  -81.694372      181.0706       305.25345    
   1280000  -62.564613      166.80427      281.20289    
   1290000  -77.523602      203.50974      343.0819     
   1300000  -59.075505      180.35616      304.04902    
   1310000  -84.605767      191.96659      323.62217    
   1320000  -87.601449      179.83562      303.17147    
   1330000  -94.414796      163.73963      276.03644    
   1340000  -91.756034      189.99343      320.29577    
   1350000  -107.35538      172.20162      290.30189    
   1360000  -89.707659      176.98395      298.36406    
   1370000  -102.70522      185.38757      312.5311     
   1380000  -94.997949      175.51987      295.89587    
   1390000  -109.21571      167.52008      282.40963    
   1400000  -104.97181      163.96583      276.41778    
   1410000  -117.37617      174.81698      294.71092    
   1420000  -104.44613      166.81571      281.22218    
   1430000  -94.874184      164.13575      276.70424    
   1440000  -97.959133      183.02783      308.55298    
   1450000  -72.020631      171.26554      288.72382    
   1460000  -70.893907      189.06091      318.72371    
   1470000  -79.722975      189.87835      320.10177    
   1480000  -81.251346      182.62681      307.87693    
   1490000  -76.109733      174.31878      293.87104    
   1500000  -69.428017      194.06899      327.16646    
   1510000  -79.122832      178.78755      301.40462    
   1520000  -74.096767      167.91113      283.06886    
   1530000  -89.449236      169.60539      285.92509    
   1540000  -76.6854        163.02588      274.83319    
   1550000  -89.500628      157.05036      264.7595     
   1560000  -104.5231       179.28466      302.24265    
   1570000  -75.791194      169.00292      284.90944    
   1580000  -84.471906      160.60159      270.74626    
   1590000  -113.22944      187.69867      316.4272     
   1600000  -96.71213       177.4999       299.23386    
   1610000  -68.527012      170.87707      288.06893    
   1620000  -76.332578      177.99462      300.06786    
   1630000  -91.008156      170.85911      288.03864    
   1640000  -126.53638      181.0922       305.28986    
   1650000  -99.836952      182.91642      308.36517    
   1660000  -107.02189      178.97545      301.72138    
   1670000  -93.19869       167.65648      282.63957    
   1680000  -85.217774      182.19014      307.14078    
   1690000  -62.275008      160.66153      270.84731    
   1700000  -80.546359      191.97719      323.64004    
   1710000  -81.031617      171.90234      289.79734    
   1720000  -85.737329      174.71182      294.53364    
   1730000  -119.27394      165.33518      278.72627    
   1740000  -122.55362      178.8607       301.52792    
   1750000  -98.613007      157.66021      265.7876     
   1760000  -102.55438      167.18267      281.8408     
   1770000  -122.90307      163.81575      276.16477    
   1780000  -89.757111      177.72982      299.62146    
   1790000  -87.172259      164.47208      277.27123    
   1800000  -81.006331      174.79492      294.67374    
   1810000  -86.590051      175.77453      296.32519    
   1820000  -71.55132       176.85214      298.14186    
   1830000  -92.555617      172.03559      290.02199    
   1840000  -71.023079      181.44615      305.88655    
   1850000  -84.048275      180.04958      303.53218    
   1860000  -58.804365      164.4302       277.20063    
   1870000  -49.79846       164.86622      277.93568    
   1880000  -36.658762      172.86119      291.41381    
   1890000  -55.416823      180.76218      304.7335     
   1900000  -76.488984      191.99442      323.66909    
   1910000  -61.792648      176.52931      297.59761    
   1920000  -91.019913      172.07068      290.08114    
   1930000  -85.664961      183.97455      310.14899    
   1940000  -84.132812      196.00806      330.43539    
   1950000  -76.839863      168.33839      283.78915    
   1960000  -89.432238      178.48568      300.89572    
   1970000  -86.007694      198.07681      333.92294    
   1980000  -91.315366      188.04737      317.01505    
   1990000  -66.610587      166.06333      279.9538     
   2000000  -69.855666      165.64559      279.24957    
   2010000  -63.740432      173.60129      292.66148    
   2020000  -92.425382      180.82101      304.83267    
   2030000  -84.033711      173.77571      292.95552    
   2040000  -72.740501      168.46328      283.99969    
   2050000  -81.167833      166.5506       280.77525    
   2060000  -82.802443      171.46969      289.06798    
   2070000  -86.048723      184.03385      310.24896    
   2080000  -102.21556      190.85012      321.74       
   2090000  -84.346378      195.50863      329.59344    
   2100000  -83.550607      174.77272      294.63631    
   2110000  -87.286004      186.63447      314.63315    
   2120000  -89.751335      183.56219      309.45382    
   2130000  -62.049483      170.08223      286.72896    
   2140000  -74.237242      172.8332       291.36662    
   2150000  -61.753518      187.93197      316.82052    
   2160000  -52.319403      167.93569      283.11027    
   2170000  -70.339359      158.4003       267.03526    
   2180000  -76.9708        172.43984      290.70348    
   2190000  -104.93543      179.50337      302.61136    
   2200000  -107.0246       174.09587      293.49526    
   2210000  -99.038078      182.83738      308.23192    
   2220000  -66.003481      175.62682      296.07618    
   2230000  -56.238791      204.82538      345.29985    
   2240000  -54.380849      196.69568      331.5946     
   2250000  -65.854443      196.68973      331.58457    
   2260000  -74.262677      178.32607      300.62664    
   2270000  -63.209728      178.46997      300.86923    
   2280000  -61.473759      173.3652       292.26348    
   2290000  -96.947829      187.27806      315.71813    
   2300000  -81.637262      171.907        289.80521    
   2310000  -82.995866      187.22478      315.6283     
   2320000  -68.460396      180.0868       303.59492    
   2330000  -61.543119      185.73311      313.11361    
   2340000  -25.280053      161.03181      271.47153    
   2350000  -57.084705      166.99859      281.53049    
   2360000  -91.244491      168.12609      283.43126    
   2370000  -101.49101      164.12344      276.68348    
   2380000  -87.515168      170.57169      287.55411    
   2390000  -101.21642      171.90107      289.79521    
   2400000  -59.866692      165.10051      278.33065    
   2410000  -57.767471      169.68965      286.06714    
   2420000  -84.750171      173.99406      293.32362    
   2430000  -95.335328      171.79294      289.61292    
   2440000  -100.70059      184.11984      310.39393    
   2450000  -69.09576       161.1577       271.68376    
   2460000  -91.853292      158.78284      267.68016    
   2470000  -91.112925      163.48898      275.6139     
   2480000  -110.02267      181.84345      306.55633    
   2490000  -87.513725      176.89976      298.22214    
   2500000  -101.36154      170.19069      286.91182    
   2510000  -101.44096      186.72258      314.78169    
   2520000  -78.555655      176.20308      297.04765    
   2530000  -109.28256      187.9042       316.77369    
   2540000  -107.65549      177.01751      298.42064    
   2550000  -82.262246      171.45689      289.04641    
   2560000  -79.603855      187.93864      316.83175    
   2570000  -68.037774      177.19476      298.71946    
   2580000  -61.78428       181.75673      306.41014    
   2590000  -75.523506      193.95256      326.97018    
   2600000  -58.726302      185.39453      312.54282    
   2610000  -80.484559      200.89062      338.66654    
   2620000  -50.238919      160.79498      271.07228    
   2630000  -81.06476       174.2196       293.70384    
   2640000  -91.286296      193.08547      325.50841    
   2650000  -80.177523      155.74801      262.56397    
   2660000  -92.52947       175.45497      295.78647    
   2670000  -85.62708       181.71255      306.33565    
   2680000  -89.775577      181.91149      306.67103    
   2690000  -100.34608      185.24403      312.2891     
   2700000  -91.155585      171.99057      289.94609    
   2710000  -108.21903      201.43407      339.5827     
   2720000  -80.996976      209.7525       353.60612    
   2730000  -62.695491      179.04567      301.83975    
   2740000  -50.404058      175.96305      296.643      
   2750000  -59.922325      187.47742      316.05422    
   2760000  -77.731476      180.80863      304.81181    
   2770000  -55.032058      183.14151      308.74463    
   2780000  -81.283606      177.21375      298.75145    
   2790000  -79.936111      174.57116      294.29651    
   2800000  -59.703119      171.59087      289.27226    
   2810000  -82.19378       182.49036      307.6469     
   2820000  -58.048151      182.99188      308.49238    
   2830000  -63.178643      173.66022      292.76083    
   2840000  -65.910652      178.16608      300.35693    
   2850000  -88.472296      186.34009      314.13688    
   2860000  -83.6702        190.31024      320.82986    
   2870000  -65.810793      190.3638       320.92015    
   2880000  -63.865208      182.62908      307.88076    
   2890000  -81.01787       170.81181      287.95892    
   2900000  -60.820886      176.91674      298.25075    
   2910000  -63.145738      171.46886      289.06657    
   2920000  -66.570551      183.67982      309.65212    
   2930000  -63.189766      187.46745      316.03741    
   2940000  -60.506176      206.14321      347.52149    
   2950000  -68.322118      178.56293      301.02595    
   2960000  -74.284532      177.30965      298.91312    
   2970000  -86.371057      184.68927      311.35389    
   2980000  -80.711104      152.83659      257.65583    
   2990000  -93.12059       174.16325      293.60886    
   3000000  -70.553858      177.71577      299.59778    
   3010000  -79.9136        177.89866      299.90611    
   3020000  -56.582511      189.61184      319.65248    
   3030000  -68.809945      178.34805      300.6637     
   3040000  -60.594975      173.87708      293.12642    
   3050000  -67.962176      189.36001      319.22794    
   3060000  -90.473238      185.30758      312.39624    
   3070000  -108.95407      179.40215      302.44071    
   3080000  -89.816518      177.39198      299.05192    
   3090000  -112.38626      187.22852      315.63462    
   3100000  -99.24242       169.13639      285.13444    
   3110000  -103.06448      172.19889      290.29729    
   3120000  -116.78603      181.06837      305.24968    
   3130000  -99.903597      177.86978      299.85742    
   3140000  -100.39136      177.8501       299.82424    
   3150000  -110.12413      168.55236      284.14987    
   3160000  -105.31516      153.75821      259.2095     
   3170000  -107.1375       166.11818      280.04627    
   3180000  -89.662715      166.02801      279.89425    
   3190000  -116.08065      185.93904      313.46078    
   3200000  -91.806928      178.83687      301.48777    
   3210000  -108.29884      175.09141      295.17356    
   3220000  -102.3515       158.18377      266.67023    
   3230000  -104.25614      173.91002      293.18195    
   3240000  -109.84528      187.68489      316.40398    
   3250000  -100.91742      173.19817      291.98189    
   3260000  -90.172958      185.37704      312.51334    
   3270000  -90.38783       169.28853      285.39092    
   3280000  -76.892762      168.75824      284.49695    
   3290000  -69.566364      195.51         329.59575    
   3300000  -82.592841      177.32967      298.94689    
   3310000  -99.884724      170.66622      287.71347    
   3320000  -88.903464      167.13494      281.76034    
   3330000  -86.786437      181.96447      306.76035    
   3340000  -93.15642       180.79009      304.78054    
   3350000  -81.85174       180.74507      304.70465    
   3360000  -67.045984      176.4879       297.52781    
   3370000  -89.59347       192.11432      323.87123    
   3380000  -64.954587      169.942        286.49256    
   3390000  -73.585573      172.48054      290.77209    
   3400000  -85.698679      196.24475      330.8344     
   3410000  -74.109489      196.77713      331.73191    
   3420000  -46.921644      168.04887      283.30107    
   3430000  -51.495271      178.71014      301.27412    
   3440000  -74.356248      177.46018      299.1669     
   3450000  -63.154144      182.30102      307.3277     
   3460000  -55.817825      205.67028      346.72421    
   3470000  -61.963107      192.86389      325.13487    
   3480000  -79.526314      178.24742      300.49405    
   3490000  -101.52387      177.55879      299.33315    
   3500000  -94.690517      166.68523      281.00222    
   3510000  -106.90652      176.60385      297.72328    
   3520000  -96.028832      179.34735      302.34834    
   3530000  -95.34075       168.33496      283.78337    
   3540000  -104.68433      183.25031      308.92805    
   3550000  -126.13282      183.53336      309.40521    
   3560000  -80.172572      161.98056      273.07095    
   3570000  -69.567026      195.12115      328.94021    
   3580000  -66.062016      176.83241      298.10859    
   3590000  -60.482156      175.22597      295.40042    
   3600000  -62.128577      165.70399      279.34801    
   3610000  -84.999034      178.51035      300.9373     
   3620000  -71.572919      163.50439      275.63988    
   3630000  -98.95951       190.04129      320.37645    
   3640000  -86.88091       172.20295      290.30412    
   3650000  -79.156729      190.25863      320.74285    
   3660000  -78.609004      149.32297      251.73246    
   3670000  -82.163765      176.24658      297.12098    
   3680000  -85.560849      181.83722      306.54583    
   3690000  -76.994433      175.89424      296.52699    
   3700000  -89.422644      189.4237       319.33531    
   3710000  -64.499694      175.83741      296.43118    
   3720000  -74.374259      191.19564      322.32249    
   3730000  -79.177035      172.23224      290.35351    
   3740000  -76.449576      176.99382      298.3807     
   3750000  -79.590862      184.15295      310.44974    
   3760000  -67.5269        195.6291       329.79653    
   3770000  -68.259925      179.83821      303.17584    
   3780000  -64.363999      182.87098      308.28856    
   3790000  -66.4042        176.44472      297.455      
   3800000  -71.163318      179.68986      302.92575    
   3810000  -72.550002      169.90122      286.42381    
   3820000  -75.916253      208.45233      351.41426    
   3830000  -57.256379      188.961        318.55527    
   3840000  -43.528321      170.1862       286.90424    
   3850000  -44.448354      161.06806      271.53264    
   3860000  -66.41627       201.26282      339.294      
   3870000  -66.909226      182.36053      307.42803    
   3880000  -69.099638      160.7539       271.00303    
   3890000  -108.925        175.13247      295.24279    
   3900000  -91.189826      179.3234       302.30797    
   3910000  -73.610961      166.24451      280.25924    
   3920000  -103.87267      201.05895      338.95031    
   3930000  -100.50893      202.83296      341.94099    
   3940000  -74.462227      175.33907      295.59107    
   3950000  -87.034966      192.47952      324.48689    
   3960000  -85.937469      179.34777      302.34905    
   3970000  -74.606365      173.9571       293.26133    
   3980000  -50.974715      180.15839      303.71561    
   3990000  -63.886158      182.36951      307.44318    
   4000000  -97.209724      183.62655      309.56232    
Loop time of 683.526 on 1 procs for 4000000 steps with 200 atoms

Performance: 5056.138 ns/day, 0.005 hours/ns, 5852.012 timesteps/s, 1.170 Matom-step/s
99.3% CPU use with 1 MPI tasks x 1 OpenMP threads

MPI task timing breakdown:
Section |  min time  |  avg time  |  max time  |%varavg| %total
---------------------------------------------------------------
Pair    | 597.52     | 597.52     | 597.52     |   0.0 | 87.42
Bond    | 39.349     | 39.349     | 39.349     |   0.0 |  5.76
Neigh   | 16.407     | 16.407     | 16.407     |   0.0 |  2.40
Comm    | 13.208     | 13.208     | 13.208     |   0.0 |  1.93
Output  | 0.14408    | 0.14408    | 0.14408    |   0.0 |  0.02
Modify  | 16.036     | 16.036     | 16.036     |   0.0 |  2.35
Other   |            | 0.8634     |            |       |  0.13

Nlocal:            200 ave         200 max         200 min
Histogram: 1 0 0 0 0 0 0 0 0 0
Nghost:              0 ave           0 max           0 min
Histogram: 1 0 0 0 0 0 0 0 0 0
Neighs:           2063 ave        2063 max        2063 min
Histogram: 1 0 0 0 0 0 0 0 0 0

Total # of neighbors = 2063
Ave neighs/atom = 10.315
Ave special neighs/atom = 5.94
Neighbor list builds = 9270
Dangerous builds = 0
Generated 0 of 6 mixed pair_coeff terms from geometric mixing rule
Setting up Verlet run ...
  Unit style    : real
  Current step  : 4000000
  Time step     : 10
Per MPI rank memory allocation (min/avg/max) = 19.32 | 19.32 | 19.32 Mbytes
   Step         PotEng         KinEng          Temp     
   4000000  -97.209724      183.62655      309.56232    
   4010000  -65.444996      158.21543      266.72361    
   4020000  -94.117286      193.77983      326.67899    
   4030000  -96.069944      170.66632      287.71364    
   4040000  -113.19202      181.38618      305.78545    
   4050000  -95.312639      159.16138      268.31831    
   4060000  -73.732295      167.60357      282.55037    
   4070000  -93.487568      187.07135      315.36966    
   4080000  -106.20879      191.26094      322.43257    
   4090000  -118.15219      183.61618      309.54484    
   4100000  -124.86193      184.98299      311.84904    
   4110000  -111.66007      175.1587       295.28701    
   4120000  -97.004301      190.68772      321.46622    
   4130000  -73.888687      183.79085      309.8393     
   4140000  -91.218752      178.19413      300.4042     
   4150000  -104.4255       186.88616      315.05746    
   4160000  -84.812907      175.8394       296.43454    
   4170000  -99.29094       162.84703      274.53168    
   4180000  -99.878775      173.46443      292.43076    
   4190000  -89.615001      179.44529      302.51345    
   4200000  -64.668894      167.6513       282.63085    
   4210000  -81.356446      173.57845      292.62298    
   4220000  -92.842907      183.90694      310.03501    
   4230000  -96.327797      180.86244      304.90252    
   4240000  -85.92933       188.36879      317.55691    
   4250000  -84.469519      191.20489      322.33807    
   4260000  -82.771354      175.26287      295.46261    
   4270000  -87.944509      173.18751      291.96392    
   4280000  -74.541858      173.86897      293.11275    
   4290000  -84.503878      185.29315      312.37192    
   4300000  -49.571082      171.43926      289.01668    
   4310000  -72.530606      175.84684      296.44709    
   4320000  -64.244882      192.79024      325.01071    
   4330000  -85.267723      183.53619      309.40999    
   4340000  -83.410443      173.38967      292.30473    
   4350000  -75.720359      188.4194       317.64223    
   4360000  -50.909091      180.71746      304.6581     
   4370000  -59.647636      180.5842       304.43344    
   4380000  -58.911663      178.55168      301.00698    
   4390000  -49.003256      178.29855      300.58024    
   4400000  -41.280734      161.22218      271.79246    
   4410000  -59.157137      171.84624      289.70278    
   4420000  -60.805917      178.22049      300.44865    
   4430000  -71.125822      182.12155      307.02516    
   4440000  -78.119851      189.27185      319.07931    
   4450000  -63.07813       181.28639      305.61722    
   4460000  -42.661457      173.60822      292.67316    
   4470000  -65.213497      190.69019      321.47039    
   4480000  -64.952604      182.74767      308.08068    
   4490000  -84.96576       186.52419      314.44723    
   4500000  -102.12897      182.59529      307.8238     
   4510000  -91.652474      184.91786      311.73925    
   4520000  -73.902762      179.82016      303.14541    
   4530000  -64.336507      178.10908      300.26083    
   4540000  -55.296074      189.19252      318.94557    
   4550000  -92.745207      180.72696      304.67412    
   4560000  -92.19776       165.86693      279.6227     
   4570000  -95.395393      171.27354      288.73731    
   4580000  -74.981294      174.19925      293.66954    
   4590000  -82.490445      204.66616      345.03144    
   4600000  -45.712746      183.31554      309.03801    
   4610000  -39.665683      179.60782      302.78744    
   4620000  -51.120789      185.75493      313.1504     
   4630000  -77.468476      176.02249      296.7432     
   4640000  -79.070079      178.19071      300.39844    
   4650000  -59.708877      166.57493      280.81627    
   4660000  -54.824004      174.32286      293.87792    
   4670000  -66.997342      182.71447      308.02472    
   4680000  -67.264047      184.36959      310.81495    
   4690000  -52.623893      187.24287      315.65881    
   4700000  -57.690685      187.58084      316.22856    
   4710000  -62.681783      173.1347       291.8749     
   4720000  -49.609953      184.32829      310.74534    
   4730000  -44.219086      171.16825      288.5598     
   4740000  -19.358341      175.49656      295.85659    
   4750000  -2.8953319      182.55542      307.75659    
   4760000  -27.244973      198.42787      334.51477    
   4770000  -28.460891      192.0206       323.71323    
   4780000  -52.89662       195.72612      329.96009    
   4790000  -60.214497      199.50301      336.32726    
   4800000  -47.908594      188.13923      317.16992    
   4810000  -67.649852      190.08905      320.45697    
   4820000  -68.695496      196.86524      331.88044    
   4830000  -41.357148      160.79573      271.07354    
   4840000  -62.659092      167.29471      282.02968    
   4850000  -66.165528      187.95941      316.86676    
   4860000  -53.673855      195.09538      328.89677    
   4870000  -72.731489      194.10499      327.22714    
   4880000  -38.453136      183.1845       308.81711    
   4890000  -60.925216      210.8508       355.45766    
   4900000  -55.133003      187.46478      316.03292    
   4910000  -46.308194      193.81557      326.73924    
   4920000  -22.17299       205.73303      346.82998    
   4930000  -42.300526      197.98588      333.76964    
   4940000  -43.056434      192.09053      323.83111    
   4950000  -39.512218      187.40917      315.93916    
   4960000  -40.176264      192.92102      325.23118    
   4970000  -47.006495      180.97933      305.09956    
   4980000  -65.859581      205.77326      346.89781    
   4990000  -35.212625      184.1591       310.4601     
   5000000  -35.620065      197.7571       333.38396    
   5010000  -35.341827      201.49713      339.689      
   5020000  -2.8164647      181.8609       306.58575    
   5030000   4.4221338      203.74765      343.48299    
   5040000  -44.338022      201.2732       339.31149    
   5050000  -19.110969      186.51762      314.43617    
   5060000  -13.915222      187.52316      316.13132    
   5070000  -3.3033359      200.30204      337.67429    
   5080000  -1.977863       199.74904      336.74202    
   5090000   7.7752473      195.46689      329.52307    
   5100000  -44.817419      216.49824      364.97825    
   5110000  -44.081055      188.93831      318.51703    
   5120000  -36.418803      195.07446      328.8615     
   5130000  -30.736714      186.06947      313.68066    
   5140000  -35.828279      192.29151      324.16993    
   5150000  -35.078937      197.5534       333.04056    
   5160000  -41.026835      207.15308      349.22395    
   5170000  -47.627255      199.19548      335.80882    
   5180000  -39.756888      188.09739      317.09938    
   5190000  -42.752413      194.68611      328.20682    
   5200000  -34.094985      179.66522      302.88421    
   5210000  -39.753718      186.32486      314.1112     
   5220000  -9.5315709      180.01751      303.47811    
   5230000  -43.85552       191.79756      323.33723    
   5240000  -24.560482      189.90251      320.14249    
   5250000  -21.798683      185.57747      312.85124    
   5260000  -29.800817      197.36712      332.72653    
   5270000  -20.601687      198.8557       335.23601    
   5280000  -9.5410882      202.11387      340.72872    
   5290000  -29.430093      201.87979      340.3341     
   5300000   8.2334499      199.1238       335.68798    
   5310000   12.581442      194.32484      327.59777    
   5320000  -14.842426      195.59208      329.73412    
   5330000  -20.104771      200.99027      338.83452    
   5340000  -10.887973      193.31267      325.89143    
   5350000   2.8460187      189.15139      318.87624    
   5360000   10.570635      193.16861      325.64857    
   5370000  -20.150838      206.7796       348.59432    
   5380000   6.3352099      187.86139      316.70152    
   5390000  -2.1393053      204.95184      345.51303    
   5400000  -5.2464061      191.31348      322.52114    
   5410000  -25.544482      197.50682      332.96203    
   5420000  -18.738161      178.89745      301.58988    
   5430000   0.85278875     207.42657      349.685      
   5440000   24.18381       208.71842      351.86285    
   5450000   22.229133      216.48724      364.9597     
   5460000   2.5121023      215.16009      362.72237    
   5470000   25.786506      215.00326      362.45798    
   5480000   14.209908      231.55491      390.36117    
   5490000   1.6489961      216.5085       364.99556    
   5500000   4.5580362      188.35517      317.53395    
   5510000  -31.773366      202.94299      342.12647    
   5520000  -16.335408      202.73536      341.77645    
   5530000   4.855588       169.57242      285.8695     
   5540000  -14.814639      209.79189      353.67253    
   5550000  -29.722453      209.6572       353.44546    
   5560000   8.9490532      184.4493       310.94934    
   5570000   0.98501624     214.2755       361.23111    
   5580000   24.405358      202.30454      341.05015    
   5590000  -8.0327717      201.95995      340.46924    
   5600000  -21.82052       187.67133      316.38112    
   5610000  -26.478405      217.27585      366.28918    
   5620000  -28.432302      197.76323      333.3943     
   5630000  -4.1163732      182.75563      308.0941     
   5640000  -14.677211      193.27144      325.82193    
   5650000  -12.227276      195.0214       328.77206    
   5660000  -13.484832      201.59829      339.85954    
   5670000   15.387869      198.56708      334.74946    
   5680000   26.307513      184.17689      310.49009    
   5690000   17.136855      197.65185      333.20652    
   5700000   38.878981      214.05777      360.86405    
   5710000   0.70778581     221.55036      373.49525    
   5720000   26.103312      193.72404      326.58493    
   5730000   29.456048      212.25682      357.82796    
   5740000   26.9041        187.30428      315.76234    
   5750000   40.94789       201.0933       339.00821    
   5760000   56.897911      210.80713      355.38403    
   5770000   39.200255      215.04041      362.52061    
   5780000   48.189389      223.27171      376.39715    
   5790000   47.610264      228.54965      385.29484    
   5800000   29.713283      219.15482      369.45678    
   5810000   19.469718      210.35024      354.61379    
   5820000   12.70145       204.17945      344.21093    
   5830000  -7.566231       226.05853      381.09524    
   5840000   8.6693527      196.34611      331.00528    
   5850000   12.453574      203.65136      343.32066    
   5860000   9.2614518      213.07061      359.19986    
   5870000   26.508781      196.55689      331.36062    
   5880000   26.404775      205.32862      346.14823    
   5890000   43.057206      197.70046      333.28848    
   5900000   13.010639      222.01902      374.28533    
   5910000   35.590032      203.16311      342.49755    
   5920000   35.242422      196.48888      331.24596    
   5930000   59.41542       199.09988      335.64766    
   5940000   60.072544      209.34506      352.91924    
   5950000   40.018524      219.57736      370.16911    
   5960000   54.740127      200.24304      337.57483    
   5970000   31.792869      220.89885      372.39692    
   5980000   1.3677453      227.20987      383.03619    
   5990000   19.801532      202.44736      341.29092    
   6000000   19.849889      213.03736      359.14382    
   6010000   61.05778       212.88874      358.89326    
   6020000   66.832756      217.17945      366.12667    
   6030000   64.218804      193.26127      325.80479    
   6040000   53.517571      214.7494       362.03001    
   6050000   26.919993      199.04619      335.55715    
   6060000   22.158301      181.44798      305.88964    
   6070000   8.9774414      221.30736      373.0856     
   6080000   8.6634374      216.64994      365.23399    
   6090000   10.005574      199.09459      335.63873    
   6100000   10.151071      200.70027      338.34563    
   6110000   15.236733      222.00965      374.26953    
   6120000   31.437249      206.69976      348.45973    
   6130000   3.6903688      211.52039      356.58648    
   6140000   26.134116      208.68418      351.80512    
   6150000   17.188663      209.95538      353.94813    
   6160000   38.608048      219.45028      369.95488    
   6170000   63.017785      185.58551      312.86479    
   6180000   63.318937      217.30368      366.33609    
   6190000   49.683317      218.25777      367.94452    
   6200000   34.39788       207.82429      350.35548    
   6210000   25.493969      199.94248      337.06813    
   6220000   42.716771      197.48696      332.92856    
   6230000   44.831772      208.17505      350.94681    
   6240000   63.357058      229.8337       387.45951    
   6250000   71.033765      234.07316      394.6065     
   6260000   55.236827      204.21366      344.26859    
   6270000   29.192398      225.07479      379.43683    
   6280000   25.263074      209.89423      353.84504    
   6290000   28.297461      225.61644      380.34995    
   6300000   49.244712      211.35076      356.3005     
   6310000   39.561126      216.82721      365.53284    
   6320000   43.956601      226.45529      381.76411    
   6330000   29.138971      204.01319      343.93064    
   6340000   34.707919      212.20243      357.73626    
   6350000   32.62767       214.83155      362.1685     
   6360000   34.936003      227.84426      384.10566    
   6370000   53.567356      215.89086      363.95432    
   6380000   52.671657      202.14451      340.78037    
   6390000   38.360845      209.6312       353.40163    
   6400000   52.337346      224.47891      378.43227    
   6410000   67.042797      192.20544      324.02483    
   6420000   43.428752      209.20227      352.67853    
   6430000   14.135994      219.96046      370.81496    
   6440000   9.122816       217.2038       366.16772    
   6450000   36.647907      210.15945      354.29217    
   6460000   38.930811      193.15831      325.63121    
   6470000   31.828501      221.82494      373.95814    
   6480000   25.039459      207.52631      349.85314    
   6490000   53.181793      216.00313      364.14358    
   6500000   30.684675      214.91398      362.30746    
   6510000   36.445191      219.06168      369.29977    
   6520000   39.549113      208.09847      350.8177     
   6530000   20.169876      222.53997      375.16355    
   6540000   35.254164      226.99336      382.6712     
   6550000   31.432461      223.058        376.03686    
   6560000   43.967223      209.42232      353.04949    
   6570000   39.28085       201.58989      339.84538    
   6580000   50.682931      196.0569       330.51773    
   6590000   30.777025      194.37706      327.6858     
   6600000   30.248954      228.97999      386.0203     
   6610000   39.41985       224.98034      379.27759    
   6620000   44.310459      209.92732      353.90083    
   6630000   71.441829      219.87535      370.67147    
   6640000   58.619319      219.17271      369.48694    
   6650000   59.769591      219.46933      369.987      
   6660000   67.184696      226.42555      381.71397    
   6670000   54.029781      197.02261      332.14574    
   6680000   49.821168      200.25683      337.59807    
   6690000   60.7806        195.53699      329.64124    
   6700000   58.886196      227.04098      382.75148    
   6710000   76.600506      214.8182       362.14601    
   6720000   75.108542      235.41151      396.86274    
   6730000   82.258588      215.42945      363.17647    
   6740000   88.706709      199.60149      336.49328    
   6750000   86.232329      222.37436      374.88437    
   6760000   89.846583      247.46151      417.17693    
   6770000   83.082626      241.61085      407.31373    
   6780000   64.552288      250.34958      422.04571    
   6790000   52.313118      226.56758      381.95341    
   6800000   94.075677      228.65702      385.47583    
   6810000   71.610533      248.43071      418.81083    
   6820000   89.536551      209.0871       352.48437    
   6830000   52.245552      223.58178      376.91988    
   6840000   53.244315      238.52895      402.11818    
   6850000   70.604415      228.66946      385.49681    
   6860000   57.185481      232.17297      391.40312    
   6870000   35.322218      209.25345      352.7648     
   6880000   13.579548      228.19018      384.68883    
   6890000   31.333342      215.37812      363.08993    
   6900000   33.045727      227.37672      383.31747    
   6910000   55.623056      212.11318      357.58581    
   6920000   44.579697      214.47848      361.5733     
   6930000   40.722598      203.54407      343.13978    
   6940000   54.738255      207.96727      350.59653    
   6950000   30.44641       229.52376      386.93702    
   6960000   53.032187      212.41097      358.08784    
   6970000   47.875697      231.28099      389.8994     
   6980000   68.879471      227.64083      383.76271    
   6990000   60.898812      223.57735      376.9124     
   7000000   41.836353      235.86275      397.62344    
   7010000   53.823179      226.70982      382.19321    
   7020000   42.109456      216.85387      365.57778    
   7030000   68.465774      210.27275      354.48317    
   7040000   49.026487      219.19596      369.52615    
   7050000   62.355082      243.55404      410.58961    
   7060000   59.522279      237.09318      399.69773    
   7070000   86.956915      208.47926      351.45966    
   7080000   85.301466      234.06682      394.59582    
   7090000   113.42963      239.04046      402.98051    
   7100000   122.00666      225.87181      380.78046    
   7110000   125.83841      225.96807      380.94274    
   7120000   97.414387      227.43657      383.41837    
   7130000   115.39534      236.47434      398.65448    
   7140000   118.60754      230.21321      388.0993     
   7150000   127.88169      260.32184      438.85719    
   7160000   133.11342      221.92228      374.12223    
   7170000   91.499231      236.60245      398.87044    
   7180000   82.645703      216.33253      364.69889    
   7190000   66.905469      219.89445      370.70367    
   7200000   70.537453      228.83823      385.78133    
   7210000   107.91155      212.0859       357.53982    
   7220000   121.9302       218.43282      368.23962    
   7230000   105.78064      247.58335      417.38233    
   7240000   105.57988      237.56094      400.4863     
   7250000   104.45496      225.37789      379.9478     
   7260000   100.3047       218.53407      368.41032    
   7270000   99.74649       232.64066      392.19156    
   7280000   92.21622       230.51621      388.61011    
   7290000   89.480385      244.71195      412.54165    
   7300000   124.84871      228.37782      385.00515    
   7310000   106.69131      223.77017      377.23746    
   7320000   108.34747      224.8239       379.01387    
   7330000   102.09157      219.14327      369.43731    
   7340000   107.25264      230.45442      388.50594    
   7350000   94.532913      235.56242      397.11713    
   7360000   100.62641      230.40125      388.4163     
   7370000   125.34993      244.78526      412.66524    
   7380000   139.46442      247.72485      417.62087    
   7390000   116.23465      244.61623      412.38027    
   7400000   123.27841      230.33095      388.2978     
   7410000   106.04649      206.87714      348.75877    
   7420000   86.763207      219.07242      369.31787    
   7430000   83.87111       217.39322      366.48704    
   7440000   83.345044      240.10493      404.77501    
   7450000   78.12099       223.49421      376.77224    
   7460000   111.34926      201.56985      339.8116     
   7470000   85.987315      215.99059      364.12244    
   7480000   94.233646      230.73044      388.97126    
   7490000   79.616853      202.9209       342.08924    
   7500000   75.953372      217.34511      366.40593    
   7510000   79.802007      240.45282      405.36149    
   7520000   115.01604      221.04003      372.63491    
   7530000   107.28793      238.59189      402.22429    
   7540000   111.63306      250.59476      422.45904    
   7550000   77.343317      224.66323      378.743      
   7560000   92.592696      204.748        345.16941    
   7570000   128.55463      219.70463      370.38368    
   7580000   77.37531       245.58529      414.01394    
   7590000   103.67077      238.24251      401.6353     
   7600000   115.76406      225.54051      380.22195    
   7610000   90.389638      258.87701      436.42147    
   7620000   88.989417      240.28626      405.0807     
   7630000   110.96004      207.49315      349.79725    
   7640000   98.487361      230.8466       389.16709    
   7650000   129.45714      249.81427      421.14327    
   7660000   129.37648      262.0161       441.71343    
   7670000   129.49224      247.86543      417.85787    
   7680000   140.20809      244.8317       412.74353    
   7690000   121.25424      227.62925      383.74319    
   7700000   106.70107      238.94678      402.82258    
   7710000   115.52641      232.66734      392.23654    
   7720000   121.44417      237.85216      400.97724    
   7730000   122.11369      254.61636      429.23875    
   7740000   146.5769       239.08331      403.05274    
   7750000   122.21023      245.48423      413.84358    
   7760000   121.10178      250.58006      422.43425    
   7770000   117.30295      244.35098      411.93311    
   7780000   114.58384      235.04559      396.24585    
   7790000   125.57654      230.32301      388.2844     
   7800000   143.16174      238.45249      401.98929    
   7810000   128.71251      226.49227      381.82645    
   7820000   103.29145      225.19842      379.64524    
   7830000   89.252948      226.10077      381.16644    
   7840000   108.69366      213.9181       360.62859    
   7850000   102.34697      247.0032       416.4043     
   7860000   92.812937      220.0353       370.94113    
   7870000   115.54796      223.67719      377.08072    
   7880000   86.315068      239.21239      403.27034    
   7890000   95.20355       230.65152      388.83822    
   7900000   74.84709       260.08759      438.4623     
   7910000   90.898641      242.23278      408.36219    
   7920000   106.52135      245.63522      414.09812    
   7930000   119.17281      229.93602      387.63201    
   7940000   146.4186       231.04909      389.50845    
   7950000   129.55842      232.71063      392.30952    
   7960000   105.13603      218.87925      368.99222    
   7970000   100.54856      238.88321      402.7154     
   7980000   102.04375      247.63149      417.46348    
   7990000   83.688489      229.70609      387.24439    
   8000000   105.89365      227.61018      383.71105    
   8010000   102.43915      238.76002      402.50774    
   8020000   81.170529      243.7128       410.85726    
   8030000   117.18582      247.83482      417.80627    
   8040000   111.08796      242.46028      408.74572    
   8050000   106.60352      231.79635      390.7682     
   8060000   105.30964      237.1466       399.78779    
   8070000   128.02909      231.35147      390.0182     
   8080000   123.59011      215.15201      362.70875    
   8090000   110.81525      223.56297      376.88817    
   8100000   95.984882      223.79196      377.27419    
   8110000   114.19077      254.20373      428.54313    
   8120000   109.02935      244.08575      411.48598    
   8130000   108.94317      229.74282      387.3063     
   8140000   108.48129      224.41753      378.3288     
   8150000   119.14883      242.32243      408.51334    
   8160000   121.0205       232.35255      391.70585    
   8170000   92.468991      242.72897      409.19869    
   8180000   107.29756      230.35856      388.34435    
   8190000   115.88571      226.60148      382.01055    
   8200000   107.98429      248.36195      418.69491    
   8210000   113.77512      212.40451      358.07695    
   8220000   103.85918      227.41812      383.38727    
   8230000   87.051226      233.4841       393.61346    
   8240000   125.71314      261.63239      441.06655    
   8250000   134.75794      231.47638      390.22879    
   8260000   181.11886      246.35795      415.31651    
   8270000   156.68446      244.50606      412.19456    
   8280000   140.25741      250.87481      422.93116    
   8290000   151.08727      255.49526      430.72042    
   8300000   143.60954      230.7089       388.93495    
   8310000   135.74802      236.54387      398.77169    
   8320000   108.57763      250.10647      421.63588    
   8330000   121.15239      271.17036      457.14591    
   8340000   123.10608      261.71678      441.20883    
   8350000   114.41625      242.06754      408.08364    
   8360000   131.00154      267.67906      451.26019    
   8370000   96.180896      252.56573      425.78176    
   8380000   102.78391      235.11777      396.36754    
   8390000   104.10349      244.21886      411.71039    
   8400000   96.46432       235.37581      396.80255    
   8410000   118.21985      227.5456       383.60217    
   8420000   146.66094      221.09033      372.71972    
   8430000   102.42602      256.22402      431.94899    
   8440000   115.35817      231.31599      389.9584     
   8450000   131.62047      230.66446      388.86004    
   8460000   105.48693      239.3626       403.52358    
   8470000   88.387711      246.104        414.88839    
   8480000   105.41966      230.0255       387.78286    
   8490000   85.750337      257.03883      433.32262    
   8500000   92.339113      262.65149      442.78459    
   8510000   114.32927      236.22685      398.23725    
   8520000   118.39656      244.74539      412.59801    
   8530000   109.07706      245.63794      414.1027     
   8540000   132.36109      231.01975      389.45899    
   8550000   112.42372      269.47885      454.29431    
   8560000   153.89079      248.08034      418.22017    
   8570000   145.37742      251.90613      424.66977    
   8580000   143.80138      261.20142      440.34001    
   8590000   151.07309      252.4144       425.52663    
   8600000   107.97981      253.54217      427.42785    
   8610000   110.60584      246.80738      416.07418    
   8620000   131.26896      246.60521      415.73336    
   8630000   147.01284      221.70626      373.75807    
   8640000   126.05545      238.44926      401.98384    
   8650000   133.57022      260.87487      439.7895     
   8660000   135.94476      244.0282       411.38897    
   8670000   143.73392      242.95689      409.58292    
   8680000   156.94605      255.96231      431.50778    
   8690000   139.57552      248.06549      418.19514    
   8700000   150.39989      245.87217      414.49758    
   8710000   155.79908      261.94715      441.59718    
   8720000   159.48746      271.1537       457.11783    
   8730000   143.59528      278.8941       470.16678    
   8740000   142.12091      264.22249      445.43302    
   8750000   157.24369      259.63739      437.70333    
   8760000   137.02547      259.15934      436.89743    
   8770000   197.86535      263.8143       444.74487    
   8780000   153.3759       257.4654       434.04174    
   8790000   140.5642       249.15606      420.03365    
   8800000   170.92215      237.3521       400.13423    
   8810000   148.44493      259.11229      436.81811    
   8820000   143.50629      270.20233      455.51398    
   8830000   182.98765      245.50457      413.87786    
   8840000   170.21765      243.35847      410.25992    
   8850000   172.37711      262.46183      442.46486    
   8860000   151.54626      237.88657      401.03525    
   8870000   166.58645      263.61039      444.40112    
   8880000   154.27338      267.75182      451.38285    
   8890000   157.35257      261.99735      441.68182    
   8900000   150.99412      245.93991      414.61177    
   8910000   163.08647      245.19891      413.36258    
   8920000   150.46981      270.49518      456.00767    
   8930000   169.53659      266.18669      448.74431    
   8940000   186.40473      265.39961      447.41743    
   8950000   175.5619       234.9964       396.16292    
   8960000   172.52262      251.40169      423.81937    
   8970000   170.5386       235.90969      397.70258    
   8980000   139.36133      250.92279      423.01204    
   8990000   149.94646      247.45916      417.17296    
   9000000   162.82688      246.92115      416.26597    
   9010000   149.76467      261.4865       440.82061    
   9020000   163.2552       249.04969      419.85431    
   9030000   165.25012      251.16914      423.42734    
   9040000   152.00217      271.68212      458.00865    
   9050000   165.41289      256.36574      432.1879     
   9060000   158.43722      236.30604      398.37076    
   9070000   144.53379      264.72463      446.27954    
   9080000   140.51892      266.62788      449.48809    
   9090000   117.46552      270.22943      455.55967    
   9100000   146.3672       248.85858      419.53215    
   9110000   165.41617      255.56766      430.84248    
   9120000   137.55529      270.30848      455.69293    
   9130000   177.33153      263.89748      444.8851     
   9140000   138.69696      261.59425      441.00226    
   9150000   186.96814      233.40951      393.4877     
   9160000   156.23229      235.92881      397.73481    
   9170000   159.36695      230.56537      388.69298    
   9180000   139.14112      259.26537      437.07618    
   9190000   127.91784      235.39296      396.83145    
   9200000   154.929        223.64749      377.03064    
   9210000   165.82623      226.2838       381.475      
   9220000   155.7494       252.0272       424.87389    
   9230000   144.89487      232.33546      391.67705    
   9240000   142.17323      277.21949      467.34369    
   9250000   149.44877      262.58946      442.68002    
   9260000   142.43609      263.53935      444.28136    
   9270000   158.23721      246.60903      415.73979    
   9280000   162.79048      277.66879      468.10113    
   9290000   156.30778      258.97278      436.58292    
   9300000   137.18378      266.24953      448.85025    
   9310000   156.6906       243.90141      411.17522    
   9320000   148.24667      236.88315      399.34366    
   9330000   157.61756      231.37215      390.05307    
   9340000   146.0144       276.43026      466.01318    
   9350000   167.72577      272.69737      459.72019    
   9360000   156.43234      263.62958      444.43347    
   9370000   168.51995      270.21033      455.52746    
   9380000   152.28441      256.40401      432.25242    
   9390000   153.54153      267.66578      451.23779    
   9400000   156.99476      276.00047      465.28864    
   9410000   148.07369      240.35078      405.18948    
   9420000   139.33815      241.96632      407.91299    
   9430000   126.38315      240.84468      406.0221     
   9440000   144.11635      250.11705      421.65371    
   9450000   141.80228      271.21946      457.22868    
   9460000   139.60047      264.15951      445.32685    
   9470000   134.5223       250.28978      421.94489    
   9480000   143.95846      262.70467      442.87424    
   9490000   147.2874       258.14868      435.19363    
   9500000   134.56451      245.20604      413.3746     
   9510000   149.69129      251.34361      423.72147    
   9520000   146.65297      268.25242      452.22677    
   9530000   139.81743      259.20613      436.9763     
   9540000   157.88193      247.36999      417.02264    
   9550000   138.93361      239.37911      403.55141    
   9560000   171.79265      253.48188      427.32621    
   9570000   143.22635      251.48202      423.95481    
   9580000   152.4377       254.2352       428.59618    
   9590000   153.8496       242.60744      408.99381    
   9600000   155.61488      246.70484      415.90131    
   9610000   124.24531      267.35241      450.70952    
   9620000   123.69125      250.84738      422.88492    
   9630000   127.18899      273.88159      461.71657    
   9640000   118.5448       254.91894      429.74885    
   9650000   150.98418      254.35461      428.79749    
   9660000   145.64963      268.58319      452.78439    
   9670000   147.47475      274.21885      462.28513    
   9680000   143.56237      263.28772      443.85716    
   9690000   126.77533      272.87613      460.02153    
   9700000   97.852145      256.46716      432.35889    
   9710000   118.46614      255.0584       429.98396    
   9720000   118.05118      236.1508       398.10905    
   9730000   162.93392      246.85757      416.15879    
   9740000   122.18939      255.34956      430.4748     
   9750000   139.67048      248.75682      419.36059    
   9760000   139.4519       248.21381      418.44517    
   9770000   127.42696      280.94568      473.62539    
   9780000   155.10211      265.23355      447.13748    
   9790000   161.80937      284.54434      479.6921     
   9800000   158.45153      256.0689       431.68748    
   9810000   151.92187      275.26297      464.04534    
   9820000   151.35912      256.06919      431.68798    
   9830000   151.76709      259.57679      437.60117    
   9840000   163.5921       281.58922      474.71029    
   9850000   177.27589      264.31239      445.58457    
   9860000   191.35083      246.16125      414.98491    
   9870000   153.5366       245.30971      413.54937    
   9880000   139.69166      257.65411      434.35988    
   9890000   141.15945      234.67151      395.61523    
   9900000   163.2668       257.32798      433.81007    
   9910000   161.56987      269.00116      453.48901    
   9920000   153.9902       259.56039      437.57352    
   9930000   154.41068      256.72502      432.79359    
   9940000   162.74635      262.99485      443.36343    
   9950000   170.58894      268.60174      452.81566    
   9960000   195.58607      260.47258      439.11132    
   9970000   152.78914      263.09875      443.53858    
   9980000   160.87542      269.97295      455.12728    
   9990000   178.61108      276.79078      466.62096    
  10000000   161.31432      231.50778      390.28172    
  10010000   150.56603      276.8126       466.65775    
  10020000   167.69495      248.28478      418.56481    
  10030000   144.59082      265.53725      447.64946    
  10040000   139.52409      286.28231      482.62202    
  10050000   134.77006      270.02131      455.20882    
  10060000   121.12375      270.82259      456.55963    
  10070000   113.83137      273.94         461.81504    
  10080000   149.29558      282.83396      476.8087     
  10090000   152.95334      298.83601      503.78538    
  10100000   180.21306      244.19988      411.67839    
  10110000   162.24614      270.53793      456.07974    
  10120000   141.79475      266.75385      449.70045    
  10130000   150.29622      288.12996      485.73683    
  10140000   189.32152      250.60634      422.47855    
  10150000   192.83912      281.78715      475.04396    
  10160000   134.00084      272.38814      459.19888    
  10170000   167.02615      290.28254      489.36571    
  10180000   161.32113      298.67705      503.51739    
  10190000   183.94638      280.5906       473.02679    
  10200000   192.19873      269.41639      454.18902    
  10210000   181.08947      275.03621      463.66306    
  10220000   189.07376      275.56441      464.55351    
  10230000   179.85327      282.62105      476.44978    
  10240000   168.87386      289.6517       488.30223    
  10250000   170.96316      271.86434      458.31584    
  10260000   184.34867      266.26784      448.88111    
  10270000   182.2673       262.44971      442.44442    
  10280000   169.46639      273.11222      460.41955    
  10290000   183.54826      282.96618      477.03161    
  10300000   173.1296       282.72663      476.62777    
  10310000   177.0582       258.31778      435.4787     
  10320000   146.1296       269.49253      454.31738    
  10330000   162.17776      278.95726      470.27327    
  10340000   144.06908      262.90322      443.20896    
  10350000   179.33974      285.31245      480.98701    
  10360000   175.08164      240.01146      404.61745    
  10370000   187.67115      256.93127      433.14129    
  10380000   161.26032      289.24069      487.60933    
  10390000   149.71043      300.19875      506.08271    
  10400000   157.52871      252.43878      425.56774    
  10410000   167.46529      271.58505      457.845      
  10420000   178.46134      298.42129      503.08623    
  10430000   165.87195      276.76512      466.57771    
  10440000   157.3782       282.57131      476.36592    
  10450000   170.28708      296.76321      500.29099    
  10460000   165.05357      278.26215      469.10144    
  10470000   176.96158      260.7706       439.61373    
  10480000   165.25229      283.52405      477.97208    
  10490000   176.47444      267.53046      451.00967    
  10500000   168.19532      231.9917       391.09753    
  10510000   175.69925      266.31323      448.95764    
  10520000   177.46432      306.17191      516.15241    
  10530000   173.83104      289.09094      487.35687    
  10540000   174.67903      278.96537      470.28693    
  10550000   166.86459      268.45506      452.56839    
  10560000   153.13857      251.08382      423.2835     
  10570000   154.46735      255.84894      431.31667    
  10580000   179.70254      282.08815      475.55141    
  10590000   173.2974       261.70989      441.19721    
  10600000   155.47259      282.64186      476.48485    
  10610000   180.58118      298.48577      503.19492    
  10620000   188.75193      279.39497      471.01116    
  10630000   179.25472      288.68961      486.68032    
  10640000   183.34866      266.81579      449.80486    
  10650000   185.61846      272.66012      459.65738    
  10660000   150.7936       292.12478      492.47141    
  10670000   173.23344      273.79654      461.5732     
  10680000   163.9851       273.13103      460.45126    
  10690000   173.57976      275.01519      463.62762    
  10700000   189.51195      264.41298      445.75415    
  10710000   166.72243      281.32689      474.26804    
  10720000   157.44492      262.117        441.88353    
  10730000   161.72758      283.93371      478.6627     
  10740000   183.40506      272.76504      459.83426    
  10750000   174.92697      270.07909      455.30623    
  10760000   173.80635      281.91487      475.25928    
  10770000   177.00275      263.33261      443.93283    
  10780000   155.73995      276.82338      466.67591    
  10790000   177.73037      268.65972      452.9134     
  10800000   193.43881      276.49099      466.11556    
  10810000   158.13566      287.64373      484.91714    
  10820000   176.22782      261.79872      441.34696    
  10830000   174.59476      283.25548      477.51931    
  10840000   179.05523      269.93316      455.0602     
  10850000   189.68049      265.44603      447.4957     
  10860000   186.93813      269.06109      453.59005    
  10870000   182.97171      295.76726      498.61199    
  10880000   169.8123       287.99571      485.51051    
  10890000   172.16827      316.65311      533.8219     
  10900000   199.87928      297.26339      501.13421    
  10910000   177.48419      293.29968      494.45208    
  10920000   190.65074      262.97915      443.33696    
  10930000   141.36103      301.88225      508.92079    
  10940000   156.53816      279.63902      471.4226     
  10950000   173.89778      274.99701      463.59697    
  10960000   161.51014      285.10494      480.63718    
  10970000   191.98702      253.75735      427.79062    
  10980000   159.75253      320.16716      539.74597    
  10990000   187.72384      278.47518      469.46057    
  11000000   193.44954      296.36792      499.6246     
  11010000   194.39091      290.53563      489.79238    
  11020000   175.62772      270.16964      455.45887    
  11030000   191.20413      290.69919      490.06811    
  11040000   153.02128      302.86551      510.5784     
  11050000   210.41546      302.07463      509.24511    
  11060000   207.14166      305.4183       514.88195    
  11070000   173.4767       293.60339      494.96409    
  11080000   159.17811      303.28912      511.29254    
  11090000   162.19096      273.46542      461.01498    
  11100000   181.80275      281.32503      474.26492    
  11110000   177.36706      267.79817      451.46099    
  11120000   172.58078      281.48978      474.54265    
  11130000   190.18857      292.19675      492.59274    
  11140000   192.44099      276.303        465.79864    
  11150000   191.50443      261.84783      441.42975    
  11160000   205.46586      296.39923      499.67738    
  11170000   179.55263      291.45967      491.35015    
  11180000   179.47505      283.1483       477.33862    
  11190000   157.26406      295.77654      498.62763    
  11200000   163.2539       291.96111      492.19549    
  11210000   189.08875      276.1598       465.55723    
  11220000   180.77034      278.75509      469.93244    
  11230000   185.20764      312.4565       526.74714    
  11240000   178.30451      301.05836      507.53186    
  11250000   182.40738      292.39541      492.92764    
  11260000   199.97204      286.77956      483.4603     
  11270000   184.64298      298.14655      502.62306    
  11280000   179.15444      284.15027      479.02777    
  11290000   170.41335      289.70794      488.39704    
  11300000   195.62532      272.64335      459.62912    
  11310000   174.518        285.23323      480.85346    
  11320000   182.68991      306.11613      516.05839    
  11330000   198.83434      290.74859      490.15138    
  11340000   183.02108      295.34022      497.89208    
  11350000   194.22728      303.00617      510.81553    
  11360000   172.88958      281.29808      474.21948    
  11370000   168.22408      309.10213      521.09225    
  11380000   201.75068      291.69222      491.74219    
  11390000   176.13346      293.09618      494.10902    
  11400000   170.88785      288.55789      486.45825    
  11410000   207.99603      289.84093      488.62124    
  11420000   206.35285      297.75996      501.97133    
  11430000   174.34381      286.65704      483.25376    
  11440000   190.5118       260.22382      438.69195    
  11450000   194.98578      304.01211      512.51136    
  11460000   161.39756      316.36949      533.34375    
  11470000   161.50547      308.38495      519.88321    
  11480000   167.48473      289.34506      487.78528    
  11490000   193.78562      303.02585      510.84871    
  11500000   193.02476      306.77105      517.16247    
  11510000   177.48374      283.1109       477.27558    
  11520000   178.27005      303.73471      512.04373    
  11530000   207.51607      274.79333      463.2536     
  11540000   158.91747      296.06604      499.11569    
  11550000   179.66866      276.90433      466.81238    
  11560000   158.45283      284.14862      479.025      
  11570000   197.57612      284.12651      478.98771    
  11580000   180.64008      282.60287      476.41912    
  11590000   185.29199      288.27492      485.98121    
  11600000   193.85887      331.79304      559.34517    
  11610000   180.43608      305.43474      514.90967    
  11620000   148.42043      314.12566      529.56106    
  11630000   183.43242      293.88124      495.43249    
  11640000   199.8447       309.20595      521.26727    
  11650000   183.3928       281.17837      474.01767    
  11660000   160.64966      280.44071      472.77411    
  11670000   177.95515      309.41515      521.61995    
  11680000   200.71514      284.14884      479.02537    
  11690000   195.24971      283.11463      477.28186    
  11700000   200.11786      280.29382      472.52647    
  11710000   159.89805      298.82584      503.76823    
  11720000   180.10282      289.71041      488.4012     
  11730000   194.10446      297.50266      501.53758    
  11740000   169.32621      297.02393      500.73052    
  11750000   184.62448      260.29442      438.81097    
  11760000   159.18541      277.48032      467.7834     
  11770000   168.83258      277.70497      468.16213    
  11780000   159.68281      308.19268      519.55908    
  11790000   172.5101       315.53721      531.94068    
  11800000   175.52178      303.39437      511.46997    
  11810000   193.12324      311.21608      524.65601    
  11820000   192.83736      280.08216      472.16966    
  11830000   176.16079      301.50294      508.28135    
  11840000   203.05956      298.94609      503.97095    
  11850000   199.7247       288.22822      485.90248    
  11860000   187.89591      288.06619      485.62934    
  11870000   185.03181      263.29254      443.86529    
  11880000   185.04605      272.67494      459.68236    
  11890000   179.42401      268.50125      452.64626    
  11900000   180.9576       322.73435      544.0738     
  11910000   174.40572      302.26098      509.55927    
  11920000   208.5821       316.59447      533.72303    
  11930000   190.55863      317.37257      535.03478    
  11940000   191.20027      277.2825       467.44992    
  11950000   196.8088       291.36819      491.19593    
  11960000   174.83716      275.63067      464.66521    
  11970000   194.01329      287.25847      484.26766    
  11980000   198.10253      314.21019      529.70356    
  11990000   213.11395      308.58407      520.2189     
  12000000   233.03459      291.89737      492.08803    
Loop time of 848.596 on 1 procs for 8000000 steps with 200 atoms

Performance: 8145.219 ns/day, 0.003 hours/ns, 9427.337 timesteps/s, 1.885 Matom-step/s
99.3% CPU use with 1 MPI tasks x 1 OpenMP threads

MPI task timing breakdown:
Section |  min time  |  avg time  |  max time  |%varavg| %total
---------------------------------------------------------------
Pair    | 668.47     | 668.47     | 668.47     |   0.0 | 78.77
Bond    | 77.52      | 77.52      | 77.52      |   0.0 |  9.14
Neigh   | 42.725     | 42.725     | 42.725     |   0.0 |  5.03
Comm    | 26.014     | 26.014     | 26.014     |   0.0 |  3.07
Output  | 0.26578    | 0.26578    | 0.26578    |   0.0 |  0.03
Modify  | 31.913     | 31.913     | 31.913     |   0.0 |  3.76
Other   |            | 1.686      |            |       |  0.20

Nlocal:            200 ave         200 max         200 min
Histogram: 1 0 0 0 0 0 0 0 0 0
Nghost:              0 ave           0 max           0 min
Histogram: 1 0 0 0 0 0 0 0 0 0
Neighs:            653 ave         653 max         653 min
Histogram: 1 0 0 0 0 0 0 0 0 0

Total # of neighbors = 653
Ave neighs/atom = 3.265
Ave special neighs/atom = 5.94
Neighbor list builds = 25014
Dangerous builds = 0
Generated 0 of 6 mixed pair_coeff terms from geometric mixing rule
Setting up Verlet run ...
  Unit style    : real
  Current step  : 12000000
  Time step     : 10
Per MPI rank memory allocation (min/avg/max) = 19.32 | 19.32 | 19.32 Mbytes
   Step         PotEng         KinEng          Temp     
  12000000   233.03459      291.89737      492.08803    
  12010000   182.36831      309.791        522.25356    
  12020000   180.84425      326.98706      551.24313    
  12030000   178.58344      319.95024      539.38028    
  12040000   204.80488      309.68917      522.08191    
  12050000   188.18122      295.3015       497.8268     
  12060000   184.469        301.79189      508.76847    
  12070000   209.33226      288.70685      486.70937    
  12080000   188.13263      307.52755      518.43778    
  12090000   185.42474      287.67497      484.96981    
  12100000   208.13226      271.37917      457.49793    
  12110000   175.3447       283.12116      477.29287    
  12120000   153.57502      295.60216      498.33366    
  12130000   171.14237      275.4228       464.31478    
  12140000   199.31507      284.608        479.79943    
  12150000   206.08494      321.14121      541.38804    
  12160000   190.79414      328.70286      554.13567    
  12170000   210.0469       319.36902      538.40044    
  12180000   224.0992       261.57989      440.97806    
  12190000   186.78089      300.49461      506.58148    
  12200000   180.59586      268.87201      453.27129    
  12210000   180.85194      279.37082      470.97046    
  12220000   201.0764       289.91695      488.74939    
  12230000   237.62849      303.04514      510.88123    
  12240000   219.1881       284.47752      479.57946    
  12250000   180.32956      307.91196      519.08585    
  12260000   201.3686       319.82588      539.17063    
  12270000   189.60307      289.65702      488.31119    
  12280000   185.14298      294.20634      495.98056    
  12290000   200.33055      265.47111      447.53798    
  12300000   194.28987      300.43306      506.47771    
  12310000   191.03767      294.9864       497.29561    
  12320000   208.23906      274.74804      463.17725    
  12330000   177.51158      308.71116      520.43315    
  12340000   188.20604      303.07276      510.92779    
  12350000   181.17617      300.11303      505.93821    
  12360000   181.36405      273.08785      460.37846    
  12370000   196.12549      325.79752      549.23776    
  12380000   195.13961      299.21342      504.42162    
  12390000   187.43309      307.22079      517.92064    
  12400000   192.79749      308.85118      520.6692     
  12410000   205.49499      290.04779      488.96997    
  12420000   200.75973      262.2161       442.0506     
  12430000   193.32399      302.46823      509.90866    
  12440000   181.0708       292.97788      493.90959    
  12450000   190.10431      317.54383      535.32348    
  12460000   211.08057      254.79747      429.54407    
  12470000   198.25666      302.82535      510.5107     
  12480000   175.84742      280.97656      473.67745    
  12490000   183.06645      293.70724      495.13915    
  12500000   170.0112       351.94405      593.31627    
  12510000   186.5458       291.59571      491.57949    
  12520000   182.77724      289.44978      487.96183    
  12530000   190.95055      289.79317      488.54072    
  12540000   221.22937      304.13186      512.71324    
  12550000   196.47088      309.46864      521.71013    
  12560000   192.4323       287.09597      483.99371    
  12570000   206.11276      298.70337      503.56176    
  12580000   206.05931      282.1898       475.72276    
  12590000   200.95916      299.70956      505.25802    
  12600000   169.58909      257.4466       434.01005    
  12610000   162.07153      306.00198      515.86594    
  12620000   176.80984      309.45282      521.68346    
  12630000   219.61383      294.70577      496.82251    
  12640000   214.06732      296.09507      499.16462    
  12650000   201.15722      341.70327      576.05209    
  12660000   194.59467      302.60629      510.14141    
  12670000   189.47436      288.50759      486.37345    
  12680000   181.60809      316.4235       533.43481    
  12690000   189.11818      279.57843      471.32046    
  12700000   195.52322      287.4803       484.64162    
  12710000   189.544        315.97797      532.68373    
  12720000   207.62365      310.4376       523.34362    
  12730000   202.4397       276.18579      465.60106    
  12740000   195.69292      291.89221      492.07934    
  12750000   175.15999      281.7643       475.00545    
  12760000   183.12609      281.24224      474.12534    
  12770000   178.86834      254.87125      429.66845    
  12780000   204.84917      288.86393      486.97419    
  12790000   191.98763      274.47759      462.72132    
  12800000   174.10107      295.21713      497.68457    
  12810000   185.52525      298.99986      504.06159    
  12820000   176.99859      271.91037      458.39343    
  12830000   187.3662       272.51199      459.40766    
  12840000   192.1635       323.6838       545.67441    
  12850000   204.46018      314.67413      530.48567    
  12860000   198.19053      304.13744      512.72265    
  12870000   208.68797      308.50021      520.07752    
  12880000   230.56228      302.51093      509.98065    
  12890000   163.83071      311.36927      524.91426    
  12900000   172.63947      313.6103       528.69225    
  12910000   196.14798      289.28779      487.68873    
  12920000   174.25661      292.27301      492.7213     
  12930000   192.14996      249.25489      420.20026    
  12940000   179.37776      278.46762      469.44781    
  12950000   196.84754      289.41256      487.89908    
  12960000   251.99607      289.91265      488.74214    
  12970000   186.05505      279.98187      472.00058    
  12980000   182.94888      286.24786      482.56394    
  12990000   196.38963      316.80703      534.08137    
  13000000   187.73343      306.83851      517.27618    
  13010000   192.36209      288.11735      485.71558    
  13020000   181.36454      311.24801      524.70984    
  13030000   196.00758      294.52874      496.52407    
  13040000   193.51865      325.07184      548.01439    
  13050000   177.68543      275.72899      464.83097    
  13060000   176.27286      267.77391      451.4201     
[...]
 404740000  -60.763417      169.06423      285.01279    
 404750000  -64.949558      182.38553      307.47017    
 404760000  -73.62655       181.53386      306.03441    
 404770000  -75.848263      180.54611      304.36924    
 404780000  -62.22064       193.45471      326.13088    
 404790000  -51.05133       163.6116       275.82061    
 404800000  -71.27894       175.61611      296.05812    
 404810000  -82.220077      184.11414      310.38432    
 404820000  -73.37947       172.22689      290.34449    
 404830000  -86.713412      180.4903       304.27515    
 404840000  -82.735614      168.0363       283.27989    
 404850000  -72.397614      177.11716      298.58862    
 404860000  -70.769675      170.90556      288.11696    
 404870000  -88.632398      176.48365      297.52063    
 404880000  -66.317791      181.40918      305.82422    
 404890000  -69.37793       181.38825      305.78894    
 404900000  -61.197348      181.06222      305.23931    
 404910000  -65.311426      188.38401      317.58257    
 404920000  -55.501075      185.02271      311.916      
 404930000  -72.733071      170.25131      287.01401    
 404940000  -81.324896      166.48519      280.66498    
 404950000  -70.49097       165.04748      278.24125    
 404960000  -83.782314      164.83096      277.87623    
 404970000  -76.682947      177.9405       299.97664    
 404980000  -77.970271      168.87757      284.69812    
 404990000  -72.96313       180.02069      303.48347    
 405000000  -47.821119      175.42943      295.7434     
 405010000  -60.914411      181.69406      306.30449    
 405020000  -58.816109      175.74509      296.27556    
 405030000  -72.28704       178.4984       300.91715    
 405040000  -40.51532       166.00755      279.85977    
 405050000  -64.096068      205.3821       346.23839    
 405060000  -51.311286      169.82103      286.28863    
 405070000  -67.564045      176.70457      297.89308    
 405080000  -70.254646      174.51235      294.19737    
 405090000  -61.057283      176.16206      296.9785     
 405100000  -62.691517      187.96794      316.88114    
 405110000  -75.896956      183.01692      308.53459    
 405120000  -79.393853      183.33958      309.07853    
 405130000  -65.248175      169.51499      285.77269    
 405140000  -95.724507      167.63594      282.60495    
 405150000  -79.353698      166.50676      280.70134    
 405160000  -66.706027      156.00457      262.99649    
 405170000  -63.360444      166.51018      280.7071     
 405180000  -56.597294      195.76118      330.01919    
 405190000  -69.994756      169.75066      286.16999    
 405200000  -95.583233      173.68174      292.79711    
 405210000  -52.252205      166.19277      280.17202    
 405220000  -48.922139      178.87773      301.55664    
 405230000  -70.014763      190.57556      321.27714    
 405240000  -84.329492      170.67542      287.72898    
 405250000  -78.431882      169.23746      285.30483    
 405260000  -83.282727      195.61876      329.7791     
 405270000  -92.923798      182.88778      308.31689    
 405280000  -84.265844      181.20662      305.48275    
 405290000  -67.894384      160.99345      271.40686    
 405300000  -68.717693      172.76108      291.24503    
 405310000  -65.154226      194.76926      328.34698    
 405320000  -63.922304      180.94522      305.04208    
 405330000  -73.492133      183.35602      309.10626    
 405340000  -70.711563      163.67068      275.9202     
 405350000  -44.142843      168.31156      283.74393    
 405360000  -52.76822       180.77921      304.7622     
 405370000  -58.672631      186.22743      313.94696    
 405380000  -45.045289      176.52702      297.59375    
 405390000  -52.816697      179.76645      303.05487    
 405400000  -75.597492      191.48446      322.80938    
 405410000  -63.475882      176.15573      296.96782    
 405420000  -81.072576      194.60474      328.06963    
 405430000  -60.531468      179.54884      302.68802    
 405440000  -58.914479      167.84555      282.95831    
 405450000  -79.102524      196.55869      331.36365    
 405460000  -58.317423      173.90371      293.17131    
 405470000  -46.45          168.75418      284.4901     
 405480000  -77.505034      195.85074      330.17018    
 405490000  -90.171774      211.76364      356.99654    
 405500000  -69.982129      182.34644      307.40428    
 405510000  -83.902165      184.12659      310.40531    
 405520000  -84.053195      177.06082      298.49364    
 405530000  -85.56434       183.23718      308.90591    
 405540000  -88.120986      177.047        298.47035    
 405550000  -70.674163      172.21816      290.32976    
 405560000  -94.552354      180.20742      303.79826    
 405570000  -83.238289      159.08312      268.18638    
 405580000  -54.218814      179.61316      302.79644    
 405590000  -75.946407      205.00747      345.60682    
 405600000  -62.967223      198.2964       334.29313    
 405610000  -67.829685      183.03633      308.56731    
 405620000  -78.156773      173.89242      293.15227    
 405630000  -106.41372      184.60897      311.21851    
 405640000  -71.255934      164.34945      277.06449    
 405650000  -89.996931      181.93805      306.7158     
 405660000  -98.638756      175.71457      296.2241     
 405670000  -98.338494      146.4827       246.94428    
 405680000  -103.12373      168.25161      283.64286    
 405690000  -96.312825      170.00403      286.59712    
 405700000  -90.451067      176.64172      297.78711    
 405710000  -82.226038      197.61952      333.15203    
 405720000  -67.003789      192.74059      324.927      
 405730000  -46.201099      173.26609      292.09639    
 405740000  -78.034857      196.08703      330.56852    
 405750000  -74.576083      180.21886      303.81755    
 405760000  -74.895849      179.35138      302.35513    
 405770000  -56.395757      177.92202      299.94549    
 405780000  -49.09666       182.82051      308.20349    
 405790000  -69.6596        176.86932      298.17081    
 405800000  -61.293587      183.74945      309.76952    
 405810000  -63.363515      189.8783       320.10169    
 405820000  -55.820041      183.93504      310.08238    
 405830000  -46.717822      193.59512      326.3676     
 405840000  -48.055512      173.66451      292.76807    
 405850000  -61.407247      170.15562      286.85269    
 405860000  -40.555507      173.10004      291.81646    
 405870000  -58.236927      179.2739       302.22452    
 405880000  -78.608455      184.28355      310.66991    
 405890000  -66.586193      173.29038      292.13735    
 405900000  -82.870568      187.36091      315.8578     
 405910000  -86.076993      181.29693      305.63499    
 405920000  -69.319306      169.71642      286.11227    
 405930000  -79.526329      192.40734      324.3652     
 405940000  -68.141981      172.8478       291.39123    
 405950000  -74.648195      196.20485      330.76715    
 405960000  -75.377769      176.15527      296.96704    
 405970000  -105.6856       180.53375      304.3484     
 405980000  -97.502059      177.44802      299.1464     
 405990000  -91.016076      155.84277      262.72372    
 406000000  -107.75805      166.80306      281.20085    
 406010000  -95.70156       178.77306      301.38019    
 406020000  -85.314379      167.02669      281.57786    
 406030000  -79.296949      175.79102      296.35298    
 406040000  -72.628084      180.40003      304.12297    
 406050000  -55.895188      165.30028      278.66744    
 406060000  -68.119452      170.07004      286.70842    
 406070000  -70.64307       164.53157      277.37152    
 406080000  -92.042524      171.90935      289.80917    
 406090000  -93.958938      179.95618      303.37472    
 406100000  -71.48471       178.38862      300.73209    
 406110000  -64.894398      173.09857      291.81399    
 406120000  -77.668938      172.74701      291.22132    
 406130000  -66.21846       178.59272      301.07617    
 406140000  -83.477338      177.72108      299.60674    
 406150000  -79.186605      181.83575      306.54335    
 406160000  -88.248932      169.3679       285.52473    
 406170000  -68.865448      161.99655      273.09792    
 406180000  -81.857596      170.78335      287.91093    
 406190000  -75.588574      180.23246      303.84048    
 406200000  -78.717266      172.25892      290.39848    
 406210000  -82.444056      170.4205       287.29923    
 406220000  -59.125936      164.31715      277.01004    
 406230000  -69.065597      199.52402      336.36268    
 406240000  -57.534708      184.24455      310.60416    
 406250000  -50.414698      176.04457      296.78042    
 406260000  -60.720121      193.35032      325.95491    
 406270000  -68.848543      190.46221      321.08605    
 406280000  -28.577289      170.74227      287.84167    
 406290000  -48.359326      199.87598      336.95603    
 406300000  -59.043437      192.47385      324.47732    
 406310000  -64.478513      184.43962      310.93302    
 406320000  -57.213216      181.41567      305.83517    
 406330000  -69.438797      179.9431       303.35267    
 406340000  -57.15387       163.51383      275.65578    
 406350000  -63.876019      198.41683      334.49615    
 406360000  -71.346161      176.38546      297.35511    
 406370000  -61.433352      165.04744      278.24118    
 406380000  -54.968482      177.17198      298.68105    
 406390000  -70.902146      183.88034      309.99018    
 406400000  -54.409376      187.22535      315.62928    
 406410000  -74.604577      192.21335      324.03817    
 406420000  -69.260492      168.43332      283.94919    
 406430000  -90.459914      189.93873      320.20356    
 406440000  -62.519827      161.22137      271.7911     
 406450000  -61.838268      167.46814      282.32206    
 406460000  -56.97277       176.02502      296.74747    
 406470000  -86.218164      178.66982      301.20614    
 406480000  -81.93725       177.91129      299.92739    
 406490000  -64.76372       163.93366      276.36355    
 406500000  -80.286541      165.17599      278.4579     
 406510000  -92.684487      186.27979      314.03522    
 406520000  -87.349326      168.09118      283.3724     
 406530000  -65.476684      173.35539      292.24694    
 406540000  -60.90852       185.12503      312.08851    
 406550000  -72.048866      201.29026      339.34026    
 406560000  -81.934832      190.51875      321.18137    
 406570000  -77.58131       176.93136      298.2754     
 406580000  -76.694599      194.48929      327.87501    
 406590000  -60.491111      178.93702      301.65659    
 406600000  -77.435127      188.11294      317.12559    
 406610000  -67.490725      172.57465      290.93074    
 406620000  -65.425085      162.02017      273.13774    
 406630000  -80.429128      175.15763      295.2852     
 406640000  -66.24939       159.08563      268.19062    
 406650000  -71.374831      178.68862      301.23784    
 406660000  -68.250954      193.82035      326.74729    
 406670000  -56.407458      189.67632      319.76118    
 406680000  -52.604478      169.80268      286.25769    
 406690000  -50.522614      181.55359      306.06768    
 406700000  -47.349856      169.02065      284.93932    
 406710000  -32.678533      180.13337      303.67343    
 406720000  -30.670958      177.6584       299.50106    
 406730000  -28.072732      193.37328      325.99362    
 406740000  -48.484826      171.31214      288.80237    
 406750000  -38.64967       181.71989      306.34803    
 406760000  -38.187782      170.10335      286.76456    
 406770000  -60.79111       182.87494      308.29525    
 406780000  -97.09494       163.70111      275.97151    
 406790000  -88.581926      174.22949      293.72052    
 406800000  -56.737636      166.88594      281.34058    
 406810000  -52.798129      182.18405      307.13051    
 406820000  -47.258092      162.9419       274.69161    
 406830000  -43.791049      154.96284      261.24031    
 406840000  -78.090065      179.461        302.53993    
 406850000  -80.391184      152.68422      257.39895    
 406860000  -71.867158      169.69298      286.07275    
 406870000  -78.874704      163.74538      276.04614    
 406880000  -103.32233      173.76664      292.94023    
 406890000  -84.829867      169.92029      286.45596    
 406900000  -60.681307      169.84312      286.32586    
 406910000  -68.504632      184.60918      311.21887    
 406920000  -53.28901       172.23419      290.3568     
 406930000  -89.952484      179.17322      302.05478    
 406940000  -71.737123      166.4717       280.64224    
 406950000  -80.461166      171.40022      288.95087    
 406960000  -73.211652      171.5761       289.24737    
 406970000  -80.441542      178.47667      300.88053    
 406980000  -62.520624      162.24012      273.50853    
 406990000  -78.066942      162.6704       274.23392    
 407000000  -66.856372      180.14616      303.695      
 407010000  -60.61704       194.6479       328.1424     
 407020000  -44.346307      180.36947      304.07145    
 407030000  -42.881798      176.50304      297.55333    
 407040000  -56.132029      179.45012      302.5216     
 407050000  -62.079359      172.80562      291.32013    
 407060000  -96.100262      166.50628      280.70053    
 407070000  -81.630889      170.98552      288.25174    
 407080000  -64.23255       175.96172      296.64075    
 407090000  -81.911265      196.83292      331.82597    
 407100000  -55.867864      185.94519      313.47115    
 407110000  -35.827304      177.99669      300.07136    
 407120000  -39.376251      163.27334      275.25036    
 407130000  -39.416621      177.69674      299.5657     
 407140000  -46.865996      180.41569      304.14937    
 407150000  -46.482933      179.85538      303.20479    
 407160000  -46.406584      185.83073      313.27818    
 407170000  -41.488717      169.41793      285.60908    
 407180000  -52.765611      189.4109       319.31373    
 407190000  -60.901488      180.77216      304.75033    
 407200000  -73.982088      179.57731      302.73601    
 407210000  -70.094137      174.15286      293.59133    
 407220000  -65.595898      176.40212      297.3832     
 407230000  -52.524084      160.91552      271.27549    
 407240000  -73.650861      173.57285      292.61353    
 407250000  -69.520655      191.15591      322.2555     
 407260000  -49.688059      184.99452      311.86847    
 407270000  -53.911012      176.49709      297.54331    
 407280000  -61.919605      197.10573      332.28586    
 407290000  -61.173301      182.76535      308.11049    
 407300000  -60.345668      182.91928      308.36998    
 407310000  -57.066568      182.51794      307.69341    
 407320000  -44.989434      177.28085      298.86458    
 407330000  -52.041883      173.68406      292.80102    
 407340000  -63.362771      169.50693      285.75911    
 407350000  -65.749454      179.60496      302.78263    
 407360000  -74.310328      176.45839      297.47805    
 407370000  -107.16676      174.28067      293.80679    
 407380000  -78.200099      163.64061      275.86951    
 407390000  -91.297523      186.07672      313.69288    
 407400000  -108.28961      190.10125      320.47753    
 407410000  -106.27759      178.35934      300.68273    
 407420000  -68.713328      186.63954      314.6417     
 407430000  -57.801996      180.08187      303.58662    
 407440000  -65.920367      179.56751      302.71948    
 407450000  -79.505958      203.85076      343.65681    
 407460000  -55.477756      179.95266      303.36879    
 407470000  -71.133823      179.31221      302.2891     
 407480000  -70.830863      172.99749      291.64359    
 407490000  -77.759653      168.2043       283.5631     
 407500000  -57.183135      180.71653      304.65653    
 407510000  -70.330353      186.22287      313.93927    
 407520000  -73.533806      180.77013      304.7469     
 407530000  -78.993271      182.37818      307.45779    
 407540000  -67.365885      179.20149      302.10245    
 407550000  -88.754446      187.93548      316.82643    
 407560000  -84.487392      176.42611      297.42365    
 407570000  -111.34887      171.51226      289.13974    
 407580000  -81.585064      164.71064      277.67341    
 407590000  -72.804018      176.81464      298.07863    
 407600000  -98.15072       198.99372      335.46869    
 407610000  -95.003016      171.68607      289.43275    
 407620000  -86.147876      192.0972       323.84236    
 407630000  -64.590057      166.08268      279.98643    
 407640000  -95.339117      188.5262       317.82227    
 407650000  -82.14409       179.19276      302.08773    
 407660000  -89.328363      181.34351      305.71352    
 407670000  -63.958883      191.64589      323.08153    
 407680000  -85.049175      187.31924      315.78756    
 407690000  -86.23684       192.2253       324.05831    
 407700000  -85.33419       167.31546      282.06467    
 407710000  -78.863201      172.86665      291.423      
 407720000  -68.885741      165.52278      279.04253    
 407730000  -82.503797      165.1806       278.46567    
 407740000  -77.064454      169.37297      285.53327    
 407750000  -87.797408      178.36314      300.68912    
 407760000  -88.370117      190.60741      321.33083    
 407770000  -87.058202      172.36441      290.57632    
 407780000  -82.004961      192.8209       325.0624     
 407790000  -77.51916       191.18706      322.30803    
 407800000  -58.368541      174.95487      294.94338    
 407810000  -85.613519      184.13181      310.41411    
 407820000  -71.180508      168.46289      283.99904    
 407830000  -78.042466      174.09764      293.49825    
 407840000  -95.174502      185.64997      312.97345    
 407850000  -93.196797      187.21872      315.6181     
 407860000  -105.37724      173.40291      292.32705    
 407870000  -95.124981      161.88879      272.91625    
 407880000  -89.481959      174.61637      294.37274    
 407890000  -85.434313      179.33253      302.32336    
 407900000  -77.705664      186.42204      314.27503    
 407910000  -61.638589      192.42157      324.38919    
 407920000  -81.935492      189.32674      319.17186    
 407930000  -76.656512      183.62855      309.56569    
 407940000  -59.139777      183.3098       309.02833    
 407950000  -97.782619      172.7772       291.2722     
 407960000  -87.939201      177.33743      298.95996    
 407970000  -83.161989      172.56959      290.92222    
 407980000  -91.271342      156.46024      263.76466    
 407990000  -106.0892       169.15859      285.17186    
 408000000  -109.14802      166.12307      280.0545     
Loop time of 720.528 on 1 procs for 4000000 steps with 200 atoms

Performance: 4796.481 ns/day, 0.005 hours/ns, 5551.483 timesteps/s, 1.110 Matom-step/s
99.3% CPU use with 1 MPI tasks x 1 OpenMP threads

MPI task timing breakdown:
Section |  min time  |  avg time  |  max time  |%varavg| %total
---------------------------------------------------------------
Pair    | 628.94     | 628.94     | 628.94     |   0.0 | 87.29
Bond    | 40.585     | 40.585     | 40.585     |   0.0 |  5.63
Neigh   | 17.882     | 17.882     | 17.882     |   0.0 |  2.48
Comm    | 15.039     | 15.039     | 15.039     |   0.0 |  2.09
Output  | 0.13933    | 0.13933    | 0.13933    |   0.0 |  0.02
Modify  | 16.594     | 16.594     | 16.594     |   0.0 |  2.30
Other   |            | 1.351      |            |       |  0.19

Nlocal:            200 ave         200 max         200 min
Histogram: 1 0 0 0 0 0 0 0 0 0
Nghost:              0 ave           0 max           0 min
Histogram: 1 0 0 0 0 0 0 0 0 0
Neighs:           2049 ave        2049 max        2049 min
Histogram: 1 0 0 0 0 0 0 0 0 0

Total # of neighbors = 2049
Ave neighs/atom = 10.245
Ave special neighs/atom = 5.94
Neighbor list builds = 9371
Dangerous builds = 0
System init for write_data ...
Generated 0 of 6 mixed pair_coeff terms from geometric mixing rule
Total wall time: 12:40:36
