LAMMPS (29 Aug 2024)
  using 1 OpenMP thread(s) per MPI task
  using 1 OpenMP thread(s) per MPI task
Reading data file ...
  orthogonal box = (-500.6 -500.6 -500.6) to (500.6 500.6 500.6)
  1 by 1 by 1 MPI processor grid
  reading atoms ...
  100 atoms
  scanning bonds ...
  1 = max bonds/atom
  scanning angles ...
  1 = max angles/atom
  orthogonal box = (-500.6 -500.6 -500.6) to (500.6 500.6 500.6)
  1 by 1 by 1 MPI processor grid
  reading bonds ...
  99 bonds
  reading angles ...
  98 angles
Finding 1-2 1-3 1-4 neighbors ...
  special bond factors lj:    0        0        0       
  special bond factors coul:  0        0        0       
     2 = max # of 1-2 neighbors
     2 = max # of 1-3 neighbors
     4 = max # of 1-4 neighbors
     6 = max # of special neighbors
  special bonds CPU = 0.000 seconds
  read_data CPU = 0.026 seconds
Finding 1-2 1-3 1-4 neighbors ...
  special bond factors lj:    0        0        1       
  special bond factors coul:  0        0        0       
     2 = max # of 1-2 neighbors
     2 = max # of 1-3 neighbors
     4 = max # of 1-4 neighbors
     6 = max # of special neighbors
  special bonds CPU = 0.000 seconds

CITE-CITE-CITE-CITE-CITE-CITE-CITE-CITE-CITE-CITE-CITE-CITE-CITE

Your simulation uses code contributions which should be cited:
- Type Label Framework: https://doi.org/10.1021/acs.jpcb.3c08419
The log file lists these citations in BibTeX format.

CITE-CITE-CITE-CITE-CITE-CITE-CITE-CITE-CITE-CITE-CITE-CITE-CITE

Generated 0 of 6 mixed pair_coeff terms from geometric mixing rule
Neighbor list info ...
  update: every = 10 steps, delay = 0 steps, check = yes
  max neighbors/atom: 2000, page size: 100000
  master list distance cutoff = 33
  ghost atom cutoff = 33
  binsize = 16.5, bins = 61 61 61
  2 neighbor lists, perpetual/occasional/extra = 2 0 0
  (1) pair lj/cut, perpetual, trim from (2)
      attributes: half, newton on, cut 25
      pair build: trim
      stencil: none
      bin: none
  (2) pair base/rna, perpetual
      attributes: half, newton on
      pair build: half/bin/newton
      stencil: half/bin/3d
      bin: standard
Setting up Verlet run ...
  Unit style    : real
  Current step  : 0
  Time step     : 10
Per MPI rank memory allocation (min/avg/max) = 8.37 | 8.37 | 8.37 Mbytes
   Step         PotEng         KinEng          Temp     
         0   134.33628      0              0            
     10000   53.035037      87.410671      296.20676    
     20000   56.611229      84.68179       286.95945    
     30000   60.309382      81.266004      275.38445    
     40000   65.102325      86.582033      293.39877    
     50000   51.98418       104.11569      352.8147     
     60000   37.278999      102.39665      346.98942    
     70000   32.381741      78.301841      265.33985    
     80000   26.858079      94.96789       321.81575    
     90000   45.846908      88.598686      300.23256    
    100000   38.657452      84.72519       287.10652    
    110000   26.821853      85.098504      288.37156    
    120000   24.71993       89.197496      302.26173    
    130000   13.362119      92.929469      314.90819    
    140000   19.758267      73.992863      250.7381     
    150000   8.6267763      89.867899      304.53351    
    160000   29.106736      83.052344      281.43778    
    170000   25.517351      104.5116       354.15631    
    180000   12.531308      91.72649       310.83168    
    190000   8.2257111      92.771332      314.37232    
    200000   12.927511      94.963756      321.80174    
    210000   0.50021898     94.596148      320.55603    
    220000  -7.5490319      97.258418      329.57761    
    230000   4.2898791      82.541653      279.70721    
    240000  -11.439979      90.471098      306.57756    
    250000  -21.781816      89.594314      303.60642    
    260000  -11.833635      87.984601      298.15162    
    270000  -6.9514543      105.31294      356.87181    
    280000  -12.589014      92.402342      313.12193    
    290000  -17.23318       88.589012      300.19977    
    300000  -5.2565652      92.579592      313.72257    
    310000   1.6052667      83.119608      281.66572    
    320000  -2.0993726      89.813445      304.34899    
    330000  -1.2942949      81.064013      274.69997    
    340000  -6.8644426      101.47116      343.85324    
    350000   6.7563377      85.042509      288.18181    
    360000   0.063135115    85.047425      288.19847    
    370000   10.797107      79.777846      270.34156    
    380000   10.250765      84.839434      287.49366    
    390000  -5.8392057      94.041893      318.67784    
    400000  -17.50664       82.437378      279.35386    
    410000  -15.474069      89.848808      304.46882    
    420000   2.0460045      90.646402      307.17161    
    430000   3.2518614      82.948505      281.0859     
    440000   10.162442      87.108019      295.18116    
    450000   11.995694      94.501655      320.23583    
    460000   9.9746614      90.032571      305.09153    
    470000  -12.720626      93.870201      318.09603    
    480000   7.3829172      83.201209      281.94224    
    490000  -6.5410719      94.464844      320.11109    
    500000  -0.70205341     82.233994      278.66465    
    510000  -15.688908      97.707606      331.09977    
    520000  -8.4953849      103.15223      349.54984    
    530000  -11.556363      83.067729      281.48991    
    540000  -26.276652      92.040048      311.89423    
    550000  -14.587433      89.704458      303.97967    
    560000  -15.813472      80.461629      272.65868    
    570000  -19.301874      81.658647      276.71499    
    580000  -10.630749      82.930398      281.02454    
    590000  -4.0544425      83.158066      281.79604    
    600000  -9.0030061      89.653337      303.80643    
    610000   12.300605      93.640963      317.31922    
    620000   11.267456      83.338855      282.40867    
    630000   14.490163      90.921819      308.10491    
    640000   13.569611      100.31578      339.93804    
    650000   6.1169731      80.687468      273.42397    
    660000   0.63002561     82.069274      278.10647    
    670000   10.995447      83.292945      282.2531     
    680000   9.4744358      86.629237      293.55873    
    690000  -15.544424      94.411801      319.93134    
    700000  -2.3519233      79.067986      267.93607    
    710000   13.60598       86.358644      292.64177    
    720000   15.702989      90.462028      306.54683    
    730000   12.913716      85.751919      290.58578    
    740000  -4.5610208      102.70517      348.03493    
    750000   4.3705894      83.002754      281.26974    
    760000   8.4945301      81.406279      275.85979    
    770000   4.125134       95.019115      321.98933    
    780000   6.9174638      84.127678      285.08174    
    790000   5.8764709      86.623634      293.53974    
    800000   5.3946697      84.507466      286.36872    
    810000   0.25154653     85.327148      289.14636    
    820000  -8.5407795      91.063364      308.58456    
    830000  -8.6993279      99.563095      337.38743    
    840000  -10.602242      99.196681      336.14576    
    850000  -9.0894913      93.048454      315.3114     
    860000  -3.2421739      79.492853      269.37581    
    870000   0.65214777     112.08558      379.82212    
    880000   15.639658      84.18176       285.26501    
    890000   2.1762367      81.265708      275.38344    
    900000  -8.4044721      85.196116      288.70234    
    910000   8.813112       83.89542       284.2947     
    920000   1.2460121      94.19345       319.19142    
    930000   1.8695632      84.195405      285.31125    
    940000  -2.4553679      76.096848      257.86783    
    950000  -14.943084      73.520816      249.13849    
    960000  -14.678652      80.618874      273.19153    
    970000  -10.139466      80.829937      273.90676    
    980000  -3.9778742      82.972566      281.16744    
    990000  -4.0515853      84.730542      287.12466    
   1000000  -7.5006749      87.675943      297.10568    
   1010000  -26.88632       101.8924       345.28069    
   1020000  -15.666514      94.765737      321.13072    
   1030000  -25.947913      92.019595      311.82492    
   1040000  -0.029491939    81.827382      277.28678    
   1050000   2.2226401      75.434307      255.62269    
   1060000  -16.740329      87.989698      298.16889    
   1070000   8.5202611      94.58347       320.51307    
   1080000   3.8050101      85.137465      288.50359    
   1090000  -15.967531      104.83448      355.25047    
   1100000  -2.8608671      78.395057      265.65573    
   1110000   0.57906361     80.460867      272.6561     
   1120000  -5.9695837      83.003469      281.27216    
   1130000  -11.48532       87.4825        296.45016    
   1140000  -9.9984626      85.201086      288.71918    
   1150000  -2.9023747      86.292471      292.41753    
   1160000  -7.5834108      94.899292      321.58329    
   1170000  -10.261954      96.309272      326.36126    
   1180000  -6.3940212      92.248927      312.60205    
   1190000  -17.702794      77.246788      261.76461    
   1200000  -9.0749247      90.429858      306.43781    
   1210000   2.8033502      86.5893        293.42339    
   1220000  -5.8759907      91.130735      308.81286    
   1230000  -11.111073      93.809977      317.89195    
   1240000  -19.588752      95.580921      323.89311    
   1250000  -7.1413558      81.978296      277.79818    
   1260000  -9.6733605      75.25758       255.02382    
   1270000  -17.225552      84.426423      286.0941     
   1280000  -30.272815      91.440604      309.8629     
   1290000  -5.3957888      90.414781      306.38672    
   1300000  -21.361034      82.539537      279.70004    
   1310000  -9.9990539      87.921647      297.93829    
   1320000  -10.583846      86.488704      293.0825     
   1330000   0.98344402     95.936861      325.09928    
   1340000   3.572261       85.911033      291.12496    
   1350000  -2.8349303      93.903535      318.20899    
   1360000   0.14785884     87.261457      295.70111    
   1370000  -4.7152899      92.17175       312.34052    
   1380000   7.4630103      84.974489      287.95131    
   1390000   3.9459327      83.514704      283.00457    
   1400000   3.1412303      79.272117      268.6278     
   1410000  -4.3076194      88.908123      301.28114    
   1420000  -10.194746      85.437613      289.52069    
   1430000  -15.129544      82.347923      279.05072    
   1440000  -6.0002667      84.771981      287.26508    
   1450000   3.3372633      95.39476       323.26228    
   1460000  -11.54984       81.428368      275.93465    
   1470000  -18.315411      89.548143      303.44996    
   1480000  -17.143586      85.608761      290.10066    
   1490000  -24.195335      101.00872      342.2862     
   1500000   3.8112097      91.482306      310.00422    
   1510000   3.2821483      95.830904      324.74023    
   1520000   1.2838446      95.810322      324.67048    
   1530000   15.144433      85.012271      288.07934    
   1540000   0.51273915     86.221928      292.17849    
   1550000  -6.2816779      87.977112      298.12624    
   1560000  -10.819699      94.704967      320.92479    
   1570000  -15.463122      98.211461      332.80717    
   1580000  -12.883421      91.962993      311.63311    
   1590000  -3.8812319      89.139266      302.06441    
   1600000  -3.9814685      89.926788      304.73307    
   1610000  -1.7529813      93.470209      316.74059    
   1620000  -3.7361477      93.545131      316.99448    
   1630000  -13.596003      97.38893       330.01988    
   1640000  -10.568922      77.72559       263.38712    
   1650000  -4.3353733      87.436954      296.29582    
   1660000   5.9722656      90.443979      306.48566    
   1670000   15.237996      88.182795      298.82324    
   1680000   18.620857      97.945123      331.90464    
   1690000   28.377047      94.20626       319.23483    
   1700000   4.2545666      96.48597       326.96003    
   1710000   9.8110016      92.671586      314.03431    
   1720000   1.5285443      96.436359      326.79192    
   1730000   2.6165254      98.504998      333.80187    
   1740000  -10.296287      89.364125      302.82638    
   1750000   1.977816       82.552857      279.74518    
   1760000   8.6858656      81.962534      277.74476    
   1770000  -15.725069      84.188285      285.28712    
   1780000  -17.700319      73.868885      250.31798    
   1790000  -27.103267      86.135409      291.8853     
   1800000  -8.3733628      80.136671      271.5575     
   1810000  -13.563863      75.134472      254.60665    
   1820000  -24.210599      83.657493      283.48844    
   1830000  -26.940088      85.853709      290.93071    
   1840000  -27.544095      91.502873      310.07392    
   1850000  -15.205063      88.039922      298.33908    
   1860000  -18.116211      92.050442      311.92945    
   1870000  -35.411016      102.06742      345.87379    
   1880000  -8.6930751      80.887004      274.10014    
   1890000   4.0575204      82.814667      280.63237    
   1900000   17.575977      96.750221      327.8555     
   1910000  -9.8845291      101.91563      345.35943    
   1920000   11.986992      100.39613      340.21031    
   1930000   3.8320325      93.218885      315.88893    
   1940000   0.21274662     97.527513      330.48949    
   1950000   3.895818       90.58002       306.94666    
   1960000  -14.52134       92.112592      312.14006    
   1970000  -13.304703      83.240358      282.0749     
   1980000  -13.995156      82.4177        279.28717    
   1990000  -30.223224      85.535715      289.85313    
   2000000  -40.769259      92.484368      313.39989    
   2010000  -26.471831      90.718386      307.41554    
   2020000  -15.711887      73.247515      248.21236    
   2030000  -23.800798      69.764878      236.41082    
   2040000  -24.67557       77.401496      262.28887    
   2050000  -16.744138      89.449966      303.11727    
   2060000  -11.425173      90.366794      306.22411    
   2070000  -9.6628454      81.141463      274.96242    
   2080000  -9.3814238      90.019777      305.04818    
   2090000  -6.3499636      95.56768       323.84824    
   2100000  -2.1778928      93.093488      315.464      
   2110000  -14.898333      89.45022       303.11813    
   2120000  -13.117183      106.18984      359.84336    
   2130000  -5.4866356      103.00096      349.03723    
   2140000   0.22197349     104.8995       355.4708     
   2150000   2.223281       84.828056      287.4551     
   2160000  -5.0530817      85.417928      289.45399    
   2170000  -28.842694      86.067556      291.65537    
   2180000  -0.86921236     79.712918      270.12154    
   2190000   0.75336356     91.775112      310.99645    
   2200000  -21.167442      102.48195      347.27848    
   2210000  -8.1558315      101.93753      345.43363    
   2220000  -19.920123      96.383175      326.6117     
   2230000  -15.55587       93.833205      317.97066    
   2240000  -2.1548985      93.986347      318.48961    
   2250000  -8.8848445      87.018186      294.87675    
   2260000  -26.240114      94.052013      318.71214    
   2270000  -13.806991      82.726177      280.3325     
   2280000  -16.826591      87.661854      297.05793    
   2290000  -0.95159202     89.994834      304.96366    
   2300000  -1.7146027      90.341077      306.13696    
   2310000  -19.459457      80.473394      272.69855    
   2320000  -8.1676659      100.50668      340.58494    
   2330000   2.4224704      87.734349      297.3036     
   2340000  -11.525436      86.963801      294.69246    
   2350000  -23.689296      102.50571      347.359      
   2360000  -20.935711      97.77351       331.32309    
   2370000  -25.243275      84.043247      284.79563    
   2380000  -29.052336      74.636099      252.91782    
   2390000  -30.245303      89.468371      303.17964    
   2400000  -10.049613      79.581267      269.67541    
   2410000  -6.9002203      76.025018      257.62442    
   2420000  -16.118088      99.113707      335.86459    
   2430000   10.092791      87.076685      295.07498    
   2440000   0.90742725     87.185224      295.44279    
   2450000  -13.642018      90.437046      306.46217    
   2460000  -7.8782144      83.489716      282.91989    
   2470000   5.3770119      88.377114      299.48172    
   2480000  -14.417778      100.53526      340.68178    
   2490000  -12.046113      90.924054      308.11248    
   2500000   1.0452197      88.234715      298.99917    
   2510000  -0.92968561     97.812782      331.45617    
   2520000  -12.905134      89.414808      302.99813    
   2530000   9.56614        76.003424      257.55125    
   2540000  -19.648009      107.27965      363.53637    
   2550000  -6.1577913      79.270624      268.62274    
   2560000  -18.583018      89.68372       303.90939    
   2570000   14.102346      92.412697      313.15702    
   2580000   10.556501      92.747011      314.2899     
   2590000   4.0363159      75.779606      256.7928     
   2600000  -10.937059      86.265372      292.3257     
   2610000  -3.3585515      87.860091      297.72969    
   2620000   8.2933696      78.694439      266.67024    
   2630000  -13.546529      84.085469      284.93871    
   2640000  -11.863337      90.161325      305.52784    
   2650000  -25.300048      89.527117      303.37871    
   2660000  -26.109677      96.892105      328.3363     
   2670000  -33.241232      89.981379      304.91806    
   2680000  -22.196071      82.578638      279.83254    
   2690000  -21.371572      89.281361      302.54592    
   2700000  -13.175005      89.603254      303.63671    
   2710000  -0.93584204     83.556824      283.1473     
   2720000  -10.499209      94.154314      319.0588     
   2730000  -18.693416      96.342663      326.47441    
   2740000   2.4633157      88.025685      298.29084    
   2750000  -16.016714      97.763677      331.28977    
   2760000   4.0672406      86.353002      292.62265    
   2770000  -13.935681      90.59216       306.9878     
   2780000  -17.978015      84.138074      285.11697    
   2790000   0.31501312     86.681756      293.73669    
   2800000   3.2832566      86.157154      291.95899    
   2810000  -16.109109      101.61824      344.35164    
   2820000  -7.3559962      95.062083      322.13494    
   2830000  -23.30609       96.160872      325.85838    
   2840000  -15.337096      95.527564      323.7123     
   2850000   8.2462444      93.286525      316.11814    
   2860000  -1.0972441      92.726679      314.221      
   2870000  -2.2641618      97.763148      331.28798    
   2880000  -7.3539959      80.620795      273.19804    
   2890000  -11.415043      85.75222       290.5868     
   2900000  -21.595879      91.288228      309.34655    
   2910000  -19.222147      84.518653      286.40663    
   2920000  -8.613115       80.586521      273.0819     
   2930000  -16.926191      88.546034      300.05413    
   2940000  -21.369222      85.072338      288.28289    
   2950000  -13.594017      93.582702      317.12179    
   2960000  -13.412367      94.476563      320.1508     
   2970000   2.3316488      85.627         290.16246    
   2980000   4.3474238      78.782094      266.96727    
   2990000  -2.0363629      79.181193      268.31969    
   3000000   1.6860223      79.967952      270.98577    
   3010000  -14.460421      93.943727      318.34519    
   3020000  -21.37866       84.606809      286.70536    
   3030000  -11.231412      83.566843      283.18125    
   3040000  -22.858637      81.457375      276.03294    
   3050000  -25.42333       83.279422      282.20728    
   3060000  -28.329675      71.606012      242.64983    
   3070000  -20.661703      86.982279      294.75507    
   3080000  -30.495379      83.952898      284.48947    
   3090000  -20.46486       77.404623      262.29946    
   3100000  -20.906836      78.203437      265.00639    
   3110000  -8.7134648      89.454668      303.1332     
   3120000  -8.1337858      87.468524      296.4028     
   3130000  -15.308066      85.655069      290.25758    
   3140000  -15.199641      92.197753      312.42864    
   3150000  -7.0083035      86.576222      293.37907    
   3160000  -5.8343347      94.185411      319.16418    
   3170000  -16.082595      94.75728       321.10206    
   3180000  -2.4837347      88.795723      300.90025    
   3190000  -6.3419688      87.588669      296.80993    
   3200000   6.6695456      97.160872      329.24706    
   3210000   5.9669289      90.491394      306.64634    
   3220000  -7.3965527      95.348071      323.10406    
   3230000  -9.5084435      94.789324      321.21065    
   3240000  -7.5281743      93.23519       315.94418    
   3250000  -25.212979      91.049323      308.53698    
   3260000  -5.923608       84.732389      287.13092    
   3270000  -5.9382477      85.982384      291.36675    
   3280000  -27.281129      91.469049      309.9593     
   3290000  -12.57858       89.208871      302.30028    
   3300000  -15.953617      82.040658      278.0095     
   3310000  -16.897775      84.593971      286.66186    
   3320000  -25.329667      93.286965      316.11963    
   3330000  -15.472274      80.742175      273.60936    
   3340000  -22.471363      88.808581      300.94382    
   3350000  -10.576992      89.10511       301.94867    
   3360000  -9.5334714      94.447911      320.0537     
   3370000  -8.5362168      90.562339      306.88675    
   3380000  -8.2417173      99.151027      335.99106    
   3390000  -6.0614944      86.732215      293.90768    
   3400000  -14.999422      92.106576      312.11967    
   3410000  -11.345115      89.06682       301.81891    
   3420000  -10.778676      101.87961      345.23734    
   3430000  -2.8645817      94.136636      318.9989     
   3440000  -2.6987089      76.941212      260.72911    
   3450000  -9.1854524      89.97951       304.91173    
   3460000  -17.552995      93.594441      317.16157    
   3470000  -12.68468       79.530415      269.50309    
   3480000  -22.911773      110.08977      373.05896    
   3490000  -4.9560775      83.677428      283.55599    
   3500000  -1.9616346      98.224234      332.85045    
   3510000   1.3960276      84.38447       285.95193    
   3520000  -9.9224574      88.338656      299.3514     
   3530000  -7.3871452      71.852627      243.48553    
   3540000  -23.566678      92.322718      312.85211    
   3550000  -21.018693      84.91662       287.75522    
   3560000  -24.776411      91.947343      311.58008    
   3570000  -7.5142636      100.13318      339.31927    
   3580000  -7.4950565      83.782081      283.91063    
   3590000  -21.067706      91.772765      310.98849    
   3600000  -13.926784      104.41055      353.8139     
   3610000  -1.9177934      90.719675      307.41991    
   3620000  -8.0600291      86.300426      292.44449    
   3630000  -6.6066972      89.580307      303.55896    
   3640000  -7.4036989      93.249594      315.99299    
   3650000  -18.190276      89.369486      302.84455    
   3660000  -5.4021358      88.994477      301.57377    
   3670000  -4.7348298      89.826169      304.3921     
   3680000  -0.20957755     84.693018      286.9975     
   3690000  -7.3506162      99.147097      335.97774    
   3700000  -14.686351      83.84928       284.13834    
   3710000  -24.446956      87.998564      298.19894    
   3720000  -3.18727        89.49725       303.2775     
   3730000  -5.8983047      94.924484      321.66866    
   3740000  -1.6544617      100.34076      340.02267    
   3750000  -12.974453      93.371466      316.40598    
   3760000  -0.82703397     85.837603      290.87613    
   3770000   1.5182186      82.610199      279.93949    
   3780000  -19.343981      86.679326      293.72846    
   3790000  -23.357847      83.864899      284.19127    
   3800000  -31.786756      86.399343      292.77969    
   3810000  -17.109019      84.07574       284.90574    
   3820000  -9.9069644      88.893459      301.23145    
   3830000  -13.599201      89.514855      303.33716    
   3840000  -19.959341      92.825224      314.55494    
   3850000  -7.6621008      84.894634      287.68071    
   3860000  -18.457416      94.995136      321.90808    
   3870000  -10.579368      78.083788      264.60094    
   3880000  -13.752095      90.955951      308.22057    
   3890000  -11.336542      84.238886      285.45859    
   3900000  -10.291572      86.700748      293.80105    
   3910000  -3.064136       84.512511      286.38582    
   3920000  -3.9152486      83.833711      284.08558    
   3930000  -11.203         104.62876      354.55335    
   3940000  -2.6730522      97.994         332.07026    
   3950000  -6.1100434      93.866287      318.08277    
   3960000   9.2141775      84.62171       286.75586    
   3970000   0.96616324     98.151181      332.6029     
   3980000  -16.400365      87.837416      297.65286    
   3990000  -21.388063      99.905241      338.54685    
   4000000  -18.658734      85.976937      291.34829    
Loop time of 257.999 on 1 procs for 4000000 steps with 100 atoms

Performance: 13395.410 ns/day, 0.002 hours/ns, 15503.947 timesteps/s, 1.550 Matom-step/s
99.3% CPU use with 1 MPI tasks x 1 OpenMP threads

MPI task timing breakdown:
Section |  min time  |  avg time  |  max time  |%varavg| %total
---------------------------------------------------------------
Pair    | 225.95     | 225.95     | 225.95     |   0.0 | 87.58
Bond    | 19.356     | 19.356     | 19.356     |   0.0 |  7.50
Neigh   | 1.7009     | 1.7009     | 1.7009     |   0.0 |  0.66
Comm    | 1.6741     | 1.6741     | 1.6741     |   0.0 |  0.65
Output  | 0.10104    | 0.10104    | 0.10104    |   0.0 |  0.04
Modify  | 8.5106     | 8.5106     | 8.5106     |   0.0 |  3.30
Other   |            | 0.7042     |            |       |  0.27

Nlocal:            100 ave         100 max         100 min
Histogram: 1 0 0 0 0 0 0 0 0 0
Nghost:              0 ave           0 max           0 min
Histogram: 1 0 0 0 0 0 0 0 0 0
Neighs:            975 ave         975 max         975 min
Histogram: 1 0 0 0 0 0 0 0 0 0

Total # of neighbors = 975
Ave neighs/atom = 9.75
Ave special neighs/atom = 5.88
Neighbor list builds = 9156
Dangerous builds = 0
Generated 0 of 6 mixed pair_coeff terms from geometric mixing rule
Setting up Verlet run ...
  Unit style    : real
  Current step  : 4000000
  Time step     : 10
Per MPI rank memory allocation (min/avg/max) = 9.632 | 9.632 | 9.632 Mbytes
   Step         PotEng         KinEng          Temp     
   4000000  -18.658734      85.976937      291.34829    
   4010000  -25.835652      85.336283      289.17732    
   4020000  -27.548512      95.542461      323.76278    
   4030000  -19.729691      77.798899      263.63554    
   4040000  -5.5662136      91.217976      309.10849    
   4050000  -8.9336395      96.654606      327.53149    
   4060000  -3.9891881      92.937446      314.93522    
   4070000  -13.259591      89.726274      304.05359    
   4080000  -28.505563      92.614484      313.84081    
   4090000  -17.347835      78.733375      266.80218    
   4100000  -10.205168      89.461014      303.15471    
   4110000  -16.891255      89.640044      303.76138    
   4120000  -22.179538      91.870521      311.31976    
   4130000   4.9065076      78.351488      265.50809    
   4140000  -4.798245       92.77428       314.38231    
   4150000   3.4130343      96.159995      325.85541    
   4160000  -6.4906483      86.985443      294.76579    
   4170000   4.6389072      87.66375       297.06436    
   4180000  -4.2726001      93.832704      317.96897    
   4190000  -1.9473313      94.66451       320.78769    
   4200000  -2.0532616      79.502607      269.40886    
   4210000  -14.191714      85.511101      289.76972    
   4220000  -19.626451      90.519051      306.74006    
   4230000  -4.973367       94.225096      319.29866    
   4240000  -15.572217      91.973324      311.66812    
   4250000  -14.832816      87.254153      295.67636    
   4260000  -11.693658      89.006608      301.61487    
   4270000  -9.1206728      84.066876      284.87571    
   4280000   3.2828642      94.121922      318.94903    
   4290000   0.35605078     95.578121      323.88362    
   4300000  -3.1981311      79.595739      269.72445    
   4310000  -10.917588      95.1518        322.43896    
   4320000  -8.3553563      92.311966      312.81567    
   4330000  -30.623905      101.70231      344.63653    
   4340000  -16.284988      86.456785      292.97434    
   4350000  -9.9085414      96.830661      328.12808    
   4360000  -4.0379031      95.341875      323.08306    
   4370000   2.8450847      93.004213      315.16147    
   4380000  -21.426471      90.079283      305.24982    
   4390000  -2.2468651      83.203267      281.94921    
   4400000  -14.090904      90.510198      306.71006    
   4410000  -18.73562       87.782356      297.46628    
   4420000  -9.6182616      89.525338      303.37268    
   4430000  -13.095825      85.925055      291.17248    
   4440000  -22.840645      94.210859      319.25041    
   4450000  -16.968791      92.269682      312.67239    
   4460000  -3.9750717      87.373906      296.08217    
   4470000  -14.125504      95.883881      324.91975    
   4480000  -15.723534      88.688743      300.53773    
   4490000  -23.680226      92.385092      313.06347    
   4500000  -8.1385931      86.789442      294.10161    
   4510000   2.1153967      93.840665      317.99594    
   4520000   13.427681      100.75384      341.42248    
   4530000  -17.673352      96.826825      328.11508    
   4540000  -8.3801462      88.382993      299.50164    
   4550000   1.4756247      85.57391       289.98256    
   4560000  -11.971325      85.388148      289.35307    
   4570000  -1.7162295      94.193524      319.19167    
   4580000  -9.1253064      103.79531      351.72903    
   4590000   3.9400515      109.37018      370.62049    
   4600000  -1.7754879      97.580411      330.66875    
   4610000  -4.6888647      87.512768      296.55273    
   4620000  -19.479085      89.177817      302.19505    
   4630000  -19.961016      69.930171      236.97094    
   4640000  -25.56422       75.96798       257.43114    
   4650000  -16.021307      83.543457      283.102      
   4660000   4.3078         84.329902      285.76702    
   4670000  -15.213877      93.790318      317.82534    
   4680000   3.2858237      83.767022      283.8596     
   4690000   10.592074      88.714348      300.6245     
   4700000  -6.413099       91.985857      311.7106     
   4710000  -0.072132547    91.005844      308.38964    
   4720000  -14.035026      94.216711      319.27024    
   4730000  -4.6265357      88.810075      300.94889    
   4740000  -11.116172      85.914174      291.13561    
   4750000   0.061240378    88.337606      299.34784    
   4760000   5.7713887      92.842799      314.6145     
   4770000   8.8032348      89.825316      304.38921    
   4780000   0.32341614     97.659099      330.93539    
   4790000  -5.6273573      99.76863       338.08392    
   4800000  -2.18466        104.51535      354.16904    
   4810000  -12.274669      105.27734      356.75117    
   4820000  -8.7048117      95.286348      322.8949     
   4830000  -5.8833433      95.716822      324.35364    
   4840000   5.0888674      101.52206      344.02573    
   4850000   21.375929      102.74968      348.18576    
   4860000   19.783544      88.896781      301.24271    
   4870000   8.6315699      110.5296       374.54941    
   4880000   11.810877      89.095964      301.91767    
   4890000   16.948652      90.30137       306.00241    
   4900000   7.5258412      96.493452      326.98539    
   4910000   10.878799      109.89474      372.39805    
   4920000   1.352195       103.15075      349.54484    
   4930000   14.909072      100.76094      341.44654    
   4940000   18.505013      109.82543      372.1632     
   4950000   20.901902      103.86446      351.96339    
   4960000   25.745428      112.36201      380.75883    
   4970000   41.871804      95.320582      323.01091    
   4980000   37.703783      95.249045      322.76849    
   4990000   40.384826      96.836389      328.14749    
   5000000   23.038802      111.21998      376.88887    
   5010000   28.267003      96.627362      327.43917    
   5020000   35.55982       75.430248      255.60894    
   5030000   20.529573      109.62623      371.48817    
   5040000   43.450758      89.049667      301.76079    
   5050000   26.000121      109.74886      371.90373    
   5060000   18.858614      98.424807      333.53013    
   5070000   8.9397128      89.740566      304.10202    
   5080000   1.1937144      83.192739      281.91354    
   5090000   9.9734867      95.848124      324.79858    
   5100000   5.4405941      99.70769       337.87741    
   5110000   5.8832516      88.017663      298.26366    
   5120000   9.3397774      101.09478      342.5778     
   5130000   20.242011      103.58481      351.01573    
   5140000   18.727807      97.06603       328.92567    
   5150000   15.857404      87.836721      297.6505     
   5160000   19.640624      90.486183      306.62868    
   5170000   4.0933325      111.76577      378.73838    
   5180000   16.922871      90.133055      305.43204    
   5190000   3.629577       102.32716      346.75396    
   5200000   11.029544      95.43358       323.39382    
   5210000   14.060314      89.100667      301.93361    
   5220000  -1.6193785      106.52226      360.96981    
   5230000   21.699724      99.229416      336.25669    
   5240000   23.800598      92.486711      313.40783    
   5250000   32.757396      92.933841      314.92301    
   5260000   22.160423      107.75054      365.13204    
   5270000   35.045964      113.70112      385.29665    
   5280000   12.655735      128.17901      434.35758    
   5290000   15.793655      90.734624      307.47057    
   5300000   13.363032      94.421476      319.96413    
   5310000   12.063511      91.635913      310.52474    
   5320000  -5.4368659      101.50196      343.95762    
   5330000   5.8843258      92.554719      313.63829    
   5340000   24.026439      109.03778      369.49408    
   5350000   9.9662087      97.657502      330.92998    
   5360000   14.646917      93.988194      318.49587    
   5370000   23.432896      93.910253      318.23175    
   5380000   13.633373      100.74624      341.39671    
   5390000  -6.8430156      95.521482      323.6917     
   5400000  -9.5970328      107.04004      362.7244     
   5410000   12.748278      84.958843      287.89829    
   5420000   1.7911356      91.865045      311.3012     
   5430000  -9.6076274      105.54121      357.64536    
   5440000   0.36808468     92.436661      313.23823    
   5450000  -1.348813       94.777362      321.17011    
   5460000   12.627888      94.793503      321.22481    
   5470000   5.6244139      85.273938      288.96605    
   5480000   5.0311248      98.506401      333.80663    
   5490000   4.6593743      103.83649      351.8686     
   5500000   10.097658      107.14467      363.07896    
   5510000   7.067707       94.231024      319.31874    
   5520000   12.778739      84.461999      286.21465    
   5530000   6.6193024      88.320277      299.28912    
   5540000   6.1486333      95.119853      322.3307     
   5550000   11.420154      80.666485      273.35287    
   5560000   24.623765      90.138448      305.45032    
   5570000   44.667876      98.765887      334.68594    
   5580000   6.8980914      104.73247      354.9048     
   5590000   28.194853      89.383317      302.89142    
   5600000   19.355464      90.080605      305.2543     
   5610000   34.199329      109.19472      370.0259     
   5620000   19.687835      115.29507      390.69805    
   5630000   28.801002      96.891246      328.33338    
   5640000   28.808009      99.875408      338.44575    
   5650000   34.123511      114.52668      388.09422    
   5660000   31.927864      91.142879      308.85401    
   5670000   6.1263073      89.583267      303.56899    
   5680000   8.5154119      103.29053      350.01851    
   5690000   28.974002      88.838954      301.04675    
   5700000   27.47824       97.806748      331.43573    
   5710000   27.989513      108.42965      367.43333    
   5720000   31.420526      100.07114      339.10902    
   5730000   47.503424      84.063211      284.86328    
   5740000   34.634347      94.661251      320.77665    
   5750000   29.955273      99.676717      337.77245    
   5760000   51.828485      96.165427      325.87382    
   5770000   28.974018      99.698652      337.84679    
   5780000   25.104903      98.520714      333.85513    
   5790000   25.892551      105.2871       356.78424    
   5800000   29.689428      95.588554      323.91898    
   5810000   25.879683      102.23382      346.43766    
   5820000   22.996306      99.830256      338.29275    
   5830000   31.673492      103.0738       349.28409    
   5840000   38.825285      89.096136      301.91825    
   5850000   29.45767       99.911243      338.56719    
   5860000   27.601635      109.37415      370.63395    
   5870000   29.716317      103.09897      349.36937    
   5880000   37.046761      113.99092      386.2787     
   5890000   35.217221      106.32475      360.30051    
   5900000   40.978698      95.71656       324.35275    
   5910000   25.646348      111.30353      377.17199    
   5920000   41.206394      90.697455      307.34461    
   5930000   38.609719      115.75661      392.26205    
   5940000   41.76576       93.242512      315.969      
   5950000   48.880745      110.02564      372.84164    
   5960000   45.22594       104.98674      355.76644    
   5970000   44.164232      108.00524      365.99515    
   5980000   36.888719      114.8822       389.29898    
   5990000   42.78142       93.05877       315.34635    
   6000000   38.843135      90.820794      307.76257    
   6010000   31.440904      104.01459      352.47211    
   6020000   33.837627      106.55425      361.0782     
   6030000   47.331693      118.29322      400.85781    
   6040000   49.98192       103.88593      352.03611    
   6050000   43.053704      97.908332      331.77997    
   6060000   45.892108      92.451677      313.28911    
   6070000   40.295722      100.25988      339.74862    
   6080000   29.27998       109.83066      372.18091    
   6090000   44.588063      120.30596      407.67834    
   6100000   47.239466      113.65753      385.14893    
   6110000   49.277689      94.491332      320.20085    
   6120000   30.234527      99.337471      336.62286    
   6130000   33.028953      96.376068      326.58761    
   6140000   41.60484       94.515686      320.28337    
   6150000   47.355297      92.8973        314.79918    
   6160000   34.935177      112.84629      382.39993    
   6170000   46.72913       107.48528      364.23316    
   6180000   39.493582      98.746912      334.62164    
   6190000   35.906884      95.998727      325.30892    
   6200000   29.485157      110.61632      374.84326    
   6210000   49.894669      105.38765      357.12499    
   6220000   50.461789      101.46087      343.81837    
   6230000   62.950156      95.663156      324.17178    
   6240000   54.319049      109.0063       369.38741    
   6250000   70.336214      107.7594       365.16207    
   6260000   58.810682      119.92851      406.3993     
   6270000   62.637169      113.47984      384.54682    
   6280000   53.448193      98.324455      333.19007    
   6290000   49.797571      111.75755      378.71052    
   6300000   44.997724      109.82299      372.15493    
   6310000   44.019819      98.715729      334.51597    
   6320000   38.216253      105.37643      357.08696    
   6330000   27.626137      127.05878      430.56149    
   6340000   49.436625      110.90719      375.82894    
   6350000   43.605228      116.42659      394.5324     
   6360000   47.023721      106.99669      362.5775     
   6370000   52.821109      114.36661      387.55179    
   6380000   62.269295      111.33654      377.28385    
   6390000   51.618341      92.270005      312.67348    
   6400000   64.784783      99.751147      338.02467    
   6410000   60.567344      119.11495      403.64241    
   6420000   61.629182      103.66116      351.27445    
   6430000   75.926915      102.12232      346.05982    
   6440000   74.046825      111.11427      376.53066    
   6450000   69.265155      92.224986      312.52093    
   6460000   73.813498      106.44356      360.70312    
   6470000   60.559879      107.56164      364.49193    
   6480000   50.329742      117.94558      399.67978    
   6490000   50.732007      108.28493      366.94292    
   6500000   49.391161      102.50255      347.3483     
   6510000   60.303866      107.14522      363.08082    
   6520000   58.010759      115.4838       391.33759    
   6530000   48.711948      120.42329      408.07594    
   6540000   61.197714      107.50033      364.28419    
   6550000   47.198269      108.74855      368.51398    
   6560000   60.201015      113.46741      384.5047     
   6570000   60.529006      111.27923      377.08967    
   6580000   63.282109      109.35606      370.57265    
   6590000   71.389634      98.418982      333.51039    
   6600000   52.420115      105.64496      357.99691    
   6610000   32.154388      113.38327      384.21957    
   6620000   37.047794      105.68702      358.13943    
   6630000   55.694075      109.91962      372.48237    
   6640000   64.97754       106.77172      361.81514    
   6650000   43.783999      105.30803      356.85517    
   6660000   41.766295      113.48142      384.55217    
   6670000   43.177614      105.35854      357.02633    
   6680000   33.486358      102.88874      348.65698    
   6690000   40.941682      111.41727      377.55741    
   6700000   49.225236      123.87338      419.7672     
   6710000   46.654994      100.95767      342.1132     
   6720000   39.359353      112.35333      380.72943    
   6730000   22.541417      100.95281      342.09673    
   6740000   22.153849      106.03267      359.31075    
   6750000   27.8838        101.66841      344.52166    
   6760000   47.306437      107.04497      362.74109    
   6770000   48.072417      115.10957      390.06945    
   6780000   47.130781      113.31201      383.97808    
   6790000   46.691438      118.16808      400.43377    
   6800000   69.883187      103.53718      350.85431    
   6810000   45.367335      112.40188      380.89397    
   6820000   50.990139      102.44964      347.16899    
   6830000   42.258855      98.924911      335.22483    
   6840000   24.766383      96.191928      325.96362    
   6850000   28.168451      94.005104      318.55317    
   6860000   22.482291      103.98595      352.37508    
   6870000   31.739366      91.071506      308.61215    
   6880000   30.809986      102.92543      348.78132    
   6890000   49.964731      127.5835       432.33959    
   6900000   63.70114       105.11948      356.21625    
   6910000   41.440404      98.408312      333.47424    
   6920000   54.020526      100.47495      340.47741    
   6930000   42.165402      117.55775      398.36554    
   6940000   35.863305      111.57896      378.10535    
   6950000   37.032978      109.03933      369.49935    
   6960000   35.0797        114.06397      386.52623    
   6970000   43.982828      109.9731       372.6636     
   6980000   52.323984      108.58536      367.96098    
   6990000   53.776799      107.44642      364.1015     
   7000000   45.985461      116.75415      395.64239    
   7010000   52.967465      110.26034      373.63696    
   7020000   55.760276      106.77302      361.81957    
   7030000   52.263814      103.45515      350.57635    
   7040000   54.494765      111.98571      379.48368    
   7050000   46.2833        103.67161      351.30986    
   7060000   45.082837      116.73345      395.57225    
   7070000   54.131814      99.085921      335.77043    
   7080000   66.6541        108.71556      368.40221    
   7090000   44.031638      109.80151      372.08214    
   7100000   30.817448      108.52852      367.76838    
   7110000   35.254091      111.6103       378.21153    
   7120000   14.510526      118.43081      401.32406    
   7130000   32.435584      106.58524      361.18321    
   7140000   32.226944      115.3569       390.90758    
   7150000   58.949005      107.98008      365.9099     
   7160000   46.274919      122.19313      414.07337    
   7170000   52.811831      135.04004      457.60741    
   7180000   41.646715      111.33254      377.27029    
   7190000   51.985198      109.16066      369.91049    
   7200000   54.714939      95.550085      323.78862    
   7210000   58.034334      103.11595      349.4269     
   7220000   65.109485      111.12212      376.55727    
   7230000   62.02919       119.75369      405.8069     
   7240000   72.063783      108.95158      369.20198    
   7250000   54.871382      98.768881      334.69609    
   7260000   53.653229      117.38139      397.7679     
   7270000   40.80307       121.053        410.20984    
   7280000   50.351429      106.79565      361.89623    
   7290000   53.322786      108.58326      367.95389    
   7300000   49.998343      101.1264       342.68497    
   7310000   45.79781       107.68309      364.90349    
   7320000   48.297373      116.49564      394.7664     
   7330000   55.936112      117.01513      396.52677    
   7340000   41.287298      110.87682      375.72603    
   7350000   45.891185      119.22341      404.00993    
   7360000   65.295824      130.14087      441.00572    
   7370000   64.975118      130.7734       443.14915    
   7380000   62.991285      115.78261      392.35015    
   7390000   65.43814       103.07849      349.29998    
   7400000   61.391399      115.36216      390.92539    
   7410000   62.09695       118.72687      402.32732    
   7420000   69.622716      106.2543       360.06176    
   7430000   77.254965      120.82241      409.42844    
   7440000   71.836329      112.88119      382.51818    
   7450000   68.533884      113.44324      384.42281    
   7460000   79.477696      123.66991      419.0777     
   7470000   61.792133      109.67548      371.65505    
   7480000   41.71619       104.70359      354.80692    
   7490000   56.220735      118.84286      402.72039    
   7500000   52.426208      115.55982      391.5952     
   7510000   63.461183      102.14158      346.1251     
   7520000   50.42808       98.521562      333.858      
   7530000   20.515263      112.62184      381.63932    
   7540000   40.2601        99.280538      336.42993    
   7550000   22.836358      129.0127       437.18271    
   7560000   60.868539      114.84372      389.16858    
   7570000   50.528884      98.880566      335.07455    
   7580000   52.026275      92.661694      314.00079    
   7590000   51.728953      108.33979      367.12883    
   7600000   53.749454      120.12251      407.05671    
   7610000   56.521098      119.91873      406.36614    
   7620000   59.610891      127.77691      432.99502    
   7630000   62.706463      113.20681      383.62162    
   7640000   68.895743      128.04856      433.91553    
   7650000   78.261772      112.23492      380.32817    
   7660000   80.703716      122.96875      416.70169    
   7670000   75.250149      105.26137      356.69706    
   7680000   87.497192      108.19103      366.62472    
   7690000   76.974088      126.97363      430.27294    
   7700000   85.873094      115.53096      391.49739    
   7710000   65.551423      122.81868      416.19316    
   7720000   93.103802      109.23308      370.15592    
   7730000   62.632189      106.79729      361.90178    
   7740000   64.479288      120.6331       408.78691    
   7750000   76.798246      117.68242      398.788      
   7760000   68.818965      114.34101      387.46504    
   7770000   75.513692      103.67846      351.33309    
   7780000   72.124886      115.74895      392.23609    
   7790000   69.44192       113.14293      383.40512    
   7800000   72.648027      121.92687      413.17109    
   7810000   66.000789      120.88924      409.6549     
   7820000   74.507827      117.45921      398.03163    
   7830000   78.310529      120.70958      409.0461     
   7840000   82.015355      125.28828      424.56185    
   7850000   71.291468      130.66479      442.7811     
   7860000   79.992526      107.41908      364.00883    
   7870000   67.359782      109.17518      369.9597     
   7880000   76.15053       128.13274      434.20079    
   7890000   63.286736      119.79295      405.93992    
   7900000   63.29834       118.79313      402.55184    
   7910000   71.304368      120.07323      406.88971    
   7920000   72.374046      112.81644      382.29876    
   7930000   57.455708      98.781798      334.73986    
   7940000   81.298898      107.82768      365.39347    
   7950000   90.128696      101.83368      345.08169    
   7960000   64.692856      123.70933      419.21127    
   7970000   83.993887      108.40117      367.33682    
   7980000   65.332793      117.23981      397.28816    
   7990000   55.766711      135.19658      458.13789    
   8000000   51.841517      129.15441      437.66289    
   8010000   78.775758      119.23627      404.0535     
   8020000   82.989493      140.62782      476.54263    
   8030000   71.625148      135.58554      459.45594    
   8040000   64.114786      112.78646      382.19716    
   8050000   73.812421      122.88303      416.4112     
   8060000   78.053423      107.65801      364.81849    
   8070000   73.582407      118.19114      400.51188    
   8080000   74.503362      107.22013      363.33467    
   8090000   70.553965      131.97766      447.22999    
   8100000   71.95867       124.27219      421.11863    
   8110000   78.385496      114.87212      389.26481    
   8120000   70.151722      106.99316      362.56552    
   8130000   59.818598      112.90993      382.61557    
   8140000   68.383372      131.63616      446.07277    
   8150000   87.07789       140.43301      475.88247    
   8160000   76.505458      129.38353      438.43931    
   8170000   73.930169      128.17619      434.34802    
   8180000   84.5125        123.06303      417.02118    
   8190000   69.374143      122.73169      415.89836    
   8200000   75.588173      114.96944      389.59458    
   8210000   75.125314      114.00389      386.32264    
   8220000   86.430313      124.93019      423.34838    
   8230000   77.047048      117.3327       397.60293    
   8240000   91.260071      116.7471       395.61852    
   8250000   73.336932      124.18942      420.83814    
   8260000   91.385692      112.62208      381.64016    
   8270000   77.976996      128.48784      435.40411    
   8280000   79.746501      112.58871      381.52705    
   8290000   75.988906      134.75635      456.6461     
   8300000   84.182872      121.95064      413.25165    
   8310000   79.191918      111.14877      376.64755    
   8320000   85.527186      102.89885      348.69124    
   8330000   76.593002      122.18038      414.03015    
   8340000   85.611976      111.69906      378.51232    
   8350000   77.686947      117.42759      397.92446    
   8360000   88.038938      133.28877      451.67292    
   8370000   88.487284      120.77164      409.25639    
   8380000   72.777785      121.54712      411.88426    
   8390000   78.166171      129.71552      439.56435    
   8400000   88.261382      120.59813      408.66841    
   8410000   84.578919      119.94551      406.45689    
   8420000   79.414864      120.78564      409.30384    
   8430000   57.795356      114.6993       388.67916    
   8440000   70.62543       109.64062      371.53693    
   8450000   58.282177      122.91589      416.52257    
   8460000   75.717007      115.69955      392.0687     
   8470000   85.554663      112.02537      379.61807    
   8480000   74.070372      120.33558      407.77872    
   8490000   65.187143      136.57454      462.80735    
   8500000   82.058049      135.29001      458.4545     
   8510000   74.363332      123.84566      419.67324    
   8520000   78.721317      125.97055      426.87383    
   8530000   79.809535      115.07206      389.94233    
   8540000   65.478235      120.8234       409.4318     
   8550000   80.556249      115.33663      390.83887    
   8560000   89.286805      113.11759      383.31928    
   8570000   78.435086      135.16353      458.0259     
   8580000   79.989955      142.38967      482.51296    
   8590000   80.995838      131.60718      445.97455    
   8600000   86.845379      130.42777      441.97792    
   8610000   71.420322      146.44182      496.2444     
   8620000   82.049903      135.33611      458.6107     
   8630000   98.500319      125.26091      424.4691     
   8640000   87.076091      132.09425      447.6251     
   8650000   78.169436      123.00963      416.84023    
   8660000   77.528474      124.62716      422.32152    
   8670000   99.023151      115.0633       389.91266    
   8680000   85.82765       118.35107      401.05384    
   8690000   78.92784       123.99509      420.17962    
   8700000   69.054628      134.52281      455.8547     
   8710000   86.15157       125.28384      424.54679    
   8720000   74.571399      138.7486       470.17454    
   8730000   82.165798      136.12851      461.29589    
   8740000   90.836748      135.99222      460.83405    
   8750000   78.163485      152.4184       516.49711    
   8760000   78.013989      122.79788      416.12266    
   8770000   85.685716      115.52543      391.47868    
   8780000   69.641819      118.41065      401.25576    
   8790000   65.060743      122.1894       414.06071    
   8800000   68.109439      127.35436      431.5631     
   8810000   86.320386      114.80422      389.03471    
   8820000   81.096169      135.37103      458.72904    
   8830000   67.584199      116.9888       396.43757    
   8840000   85.1924        124.84692      423.06622    
   8850000   72.567689      115.14841      390.20106    
   8860000   65.841368      123.35972      418.02657    
   8870000   79.625522      122.05267      413.59739    
   8880000   68.857147      131.43328      445.38527    
   8890000   68.01627       115.69834      392.06459    
   8900000   59.837406      132.75738      449.87223    
   8910000   74.462343      102.64409      347.82792    
   8920000   71.961264      121.34935      411.21406    
   8930000   77.723912      105.16774      356.37978    
   8940000   87.524117      138.15698      468.16974    
   8950000   79.872826      135.71194      459.88427    
   8960000   81.19708       134.0318       454.19082    
   8970000   78.539911      127.3388       431.51041    
   8980000   66.922892      123.96453      420.07607    
   8990000   77.174251      116.72458      395.54221    
   9000000   73.155799      137.35346      465.44685    
   9010000   89.845518      151.53701      513.51037    
   9020000   90.549762      152.21276      515.80028    
   9030000   79.39309       145.58486      493.34044    
   9040000   91.951074      138.10128      467.98098    
   9050000   81.114371      133.15132      451.20715    
   9060000   87.424903      140.78262      477.06717    
   9070000   92.18277       120.16274      407.19303    
   9080000   74.597057      140.40944      475.8026     
   9090000   72.18379       128.53497      435.56384    
   9100000   76.574314      118.60745      401.92265    
   9110000   77.400454      133.10254      451.04184    
   9120000   69.78936       150.3015       509.32363    
   9130000   76.39012       124.86165      423.11613    
   9140000   78.082701      128.4674       435.33485    
   9150000   100.42616      124.72846      422.66477    
   9160000   97.039206      138.7164       470.06544    
   9170000   66.999661      134.65002      456.28576    
   9180000   73.620169      120.07277      406.88814    
   9190000   86.136896      123.58566      418.79219    
   9200000   77.280625      135.19217      458.12294    
   9210000   85.700847      137.67162      466.52499    
   9220000   86.939044      122.99872      416.80325    
   9230000   96.66737       126.57934      428.93681    
   9240000   83.583663      143.57394      486.52608    
   9250000   76.516739      133.44584      452.20519    
   9260000   90.621906      125.76713      426.18451    
   9270000   71.730537      139.93776      474.20424    
   9280000   86.430814      129.50436      438.84879    
   9290000   83.193261      133.02388      450.77531    
   9300000   72.225015      135.5293       459.26537    
   9310000   73.070748      126.26075      427.85722    
   9320000   72.957035      134.42359      455.51847    
   9330000   63.659407      138.79671      470.33756    
   9340000   87.474367      119.22493      404.01507    
   9350000   81.998663      120.31976      407.72513    
   9360000   80.993997      122.81036      416.16496    
   9370000   94.173117      128.14004      434.22554    
   9380000   77.884946      125.3522       424.77844    
   9390000   83.933073      118.33359      400.99463    
   9400000   61.308433      120.70411      409.02756    
   9410000   84.462516      125.19505      424.24591    
   9420000   78.793885      144.40091      489.32843    
   9430000   69.470073      121.58312      412.00624    
   9440000   86.756205      128.45141      435.28067    
   9450000   93.786016      137.52857      466.04025    
   9460000   87.53543       144.0275       488.06303    
   9470000   87.535975      162.16011      549.50866    
   9480000   86.462638      157.78285      534.67552    
   9490000   82.455745      115.23077      390.48014    
   9500000   80.446975      128.12929      434.18912    
   9510000   78.649497      110.15677      373.28601    
   9520000   80.442181      110.82716      375.55774    
   9530000   66.626755      110.6399       374.92317    
   9540000   94.571242      135.20668      458.17212    
   9550000   101.32132      136.01385      460.90736    
   9560000   88.961359      153.04201      518.61035    
   9570000   84.46389       156.77313      531.25391    
   9580000   101.97575      150.17587      508.89789    
   9590000   87.527794      134.69526      456.43906    
   9600000   85.923951      128.20688      434.45204    
   9610000   80.300234      135.24354      458.297      
   9620000   78.807959      121.55441      411.90896    
   9630000   79.439538      128.53984      435.58033    
   9640000   74.547202      126.14349      427.45986    
   9650000   93.628526      138.41418      469.04131    
   9660000   89.394723      132.88199      450.29447    
   9670000   79.047248      146.34714      495.92355    
   9680000   88.03181       132.82774      450.11065    
   9690000   74.354412      145.59189      493.36428    
   9700000   90.250705      121.32406      411.12838    
   9710000   87.179985      133.42432      452.13226    
   9720000   83.385753      136.92432      463.99266    
   9730000   101.26214      137.30623      465.2868     
   9740000   82.801311      122.61842      415.51453    
   9750000   91.354143      132.12877      447.74208    
   9760000   82.796081      163.19786      553.02526    
   9770000   59.03314       135.966        460.74519    
   9780000   78.721817      119.53641      405.07059    
   9790000   93.191668      136.14965      461.36753    
   9800000   71.981561      125.21722      424.32105    
   9810000   86.577104      134.71378      456.50182    
   9820000   80.680594      151.26809      512.59908    
   9830000   79.304535      151.19135      512.33905    
   9840000   94.398341      123.81141      419.5572     
   9850000   88.247538      129.97582      440.4464     
   9860000   91.521042      136.45184      462.39156    
   9870000   91.774985      140.14821      474.91737    
   9880000   86.92062       125.93583      426.75619    
   9890000   75.09456       138.1111       468.01426    
   9900000   66.258454      139.69699      473.38835    
   9910000   75.853753      140.97513      477.71956    
   9920000   80.503778      160.50658      543.90538    
   9930000   94.226003      138.78978      470.3141     
   9940000   86.881035      142.44         482.68353    
   9950000   94.181932      128.27866      434.69528    
   9960000   80.328704      138.16606      468.2005     
   9970000   92.041517      135.09376      457.78945    
   9980000   82.689777      130.81014      443.27365    
   9990000   79.099606      120.40376      408.00978    
  10000000   99.67556       123.69039      419.1471     
  10010000   80.792267      121.91931      413.14547    
  10020000   69.51027       119.81069      406.00004    
  10030000   83.974067      127.6152       432.44701    
  10040000   109.78502      140.67432      476.7002     
  10050000   96.824229      147.60291      500.17898    
  10060000   103.22395      139.32352      472.12277    
  10070000   83.479013      147.61092      500.20611    
  10080000   83.879448      131.48036      445.5448     
  10090000   84.588199      148.60785      503.58439    
  10100000   85.164207      154.24104      522.67347    
  10110000   80.688393      132.3291       448.42091    
  10120000   91.522709      131.22908      444.6933     
  10130000   82.876389      134.64237      456.25984    
  10140000   101.30287      122.63339      415.56525    
  10150000   92.101399      141.46721      479.38703    
  10160000   85.603689      150.38749      509.615      
  10170000   82.448066      129.01222      437.18108    
  10180000   73.943107      130.1213       440.9394     
  10190000   75.533155      137.76347      466.83624    
  10200000   67.410295      131.12978      444.35682    
  10210000   80.066628      129.43004      438.59693    
  10220000   80.711795      152.17273      515.66462    
  10230000   99.758482      119.91804      406.36381    
  10240000   95.37745       161.10753      545.9418     
  10250000   86.601445      148.04749      501.6855     
  10260000   87.800746      128.50294      435.45528    
  10270000   83.885604      143.60555      486.63319    
  10280000   82.338553      113.92834      386.06665    
  10290000   90.390803      127.4735       431.96684    
  10300000   80.387505      139.26601      471.92788    
  10310000   108.57542      164.27829      556.68648    
  10320000   86.244068      137.24216      465.06972    
  10330000   85.254611      121.70147      412.40728    
  10340000   88.80778       131.46353      445.48778    
  10350000   81.421697      125.23054      424.36617    
  10360000   76.355136      118.99904      403.24962    
  10370000   83.427405      122.3322       414.54463    
  10380000   70.607213      129.92653      440.27938    
  10390000   67.776875      127.48462      432.00454    
  10400000   73.168123      146.90371      497.80961    
  10410000   82.465655      147.81551      500.8994     
  10420000   90.701763      144.34645      489.14387    
  10430000   96.336313      133.51024      452.42343    
  10440000   79.105439      131.01433      443.9656     
  10450000   94.963929      138.98187      470.96503    
  10460000   79.630071      128.34226      434.91079    
  10470000   74.272025      127.52844      432.15301    
  10480000   85.499827      148.97973      504.84456    
  10490000   94.456753      135.58629      459.4585     
  10500000   95.175682      127.1026       430.71       
  10510000   96.41336       156.81764      531.40474    
  10520000   76.86408       156.2235       529.39137    
  10530000   79.785396      132.50503      449.01708    
  10540000   80.268587      144.32983      489.08753    
  10550000   89.702284      157.16292      532.57479    
  10560000   95.370138      141.96882      481.08684    
  10570000   88.912001      139.49667      472.7095     
  10580000   87.661586      129.60449      439.18808    
  10590000   104.51692      130.79006      443.2056     
  10600000   101.47267      128.50859      435.47445    
  10610000   83.075199      151.4438       513.19451    
  10620000   96.815952      136.80635      463.59289    
  10630000   79.258959      130.17407      441.11821    
  10640000   94.288427      141.01032      477.83881    
  10650000   75.161805      161.69384      547.92862    
  10660000   112.80564      129.80607      439.87118    
  10670000   95.321637      147.9825       501.46529    
  10680000   95.247564      166.9862       565.86272    
  10690000   74.385288      156.02133      528.7063     
  10700000   93.334253      133.78776      453.36384    
  10710000   78.825555      142.9712       484.48358    
  10720000   79.176717      138.28577      468.60617    
  10730000   85.451308      170.6259       578.19648    
  10740000   86.007313      143.61126      486.65253    
  10750000   81.524083      125.66159      425.82686    
  10760000   100.20821      128.75149      436.29756    
  10770000   81.088666      142.20032      481.87132    
  10780000   84.882381      140.83255      477.23638    
  10790000   89.48117       135.57535      459.42142    
  10800000   95.26125       142.51413      482.93473    
  10810000   88.629203      128.50063      435.44746    
  10820000   102.42264      149.15355      505.43359    
  10830000   105.44033      121.23011      410.80999    
  10840000   87.068277      127.43543      431.83784    
  10850000   98.659399      123.81158      419.55778    
  10860000   104.86571      124.6937       422.54698    
  10870000   87.164712      153.13464      518.92424    
  10880000   111.60185      135.8557       460.37145    
  10890000   88.635562      159.72742      541.26504    
  10900000   88.193179      154.72159      524.30187    
  10910000   77.232933      142.97222      484.48703    
  10920000   95.765195      155.0601       525.44898    
  10930000   97.772758      128.51856      435.5082     
  10940000   88.193298      152.34301      516.24163    
  10950000   102.47103      128.43203      435.21499    
  10960000   106.95539      144.83224      490.79007    
  10970000   86.00406       131.97077      447.20665    
  10980000   80.906912      150.6382       510.46458    
  10990000   95.323452      151.49244      513.35934    
  11000000   95.587527      143.32581      485.68523    
  11010000   67.852994      141.20176      478.4875     
  11020000   84.229633      137.18083      464.86189    
  11030000   74.039052      147.45658      499.6831     
  11040000   80.914315      113.72408      385.37445    
  11050000   90.637531      146.27892      495.69237    
  11060000   84.65326       138.37861      468.92076    
  11070000   96.604486      145.97591      494.66558    
  11080000   89.703675      155.9388       528.42661    
  11090000   83.570669      149.33468      506.04737    
  11100000   95.476969      141.20631      478.50292    
  11110000   106.28365      144.53479      489.78209    
  11120000   87.051912      154.11758      522.25508    
  11130000   88.316932      144.39818      489.31917    
  11140000   85.957793      133.26809      451.60285    
  11150000   98.943109      152.50903      516.80424    
  11160000   106.09056      162.53454      550.77748    
  11170000   90.105459      166.89029      565.53772    
  11180000   101.5935       139.64705      473.21911    
  11190000   98.576175      143.3321       485.70655    
  11200000   96.562104      146.07987      495.01787    
  11210000   85.546071      137.31052      465.30136    
  11220000   81.670004      118.63213      402.00627    
  11230000   70.61888       157.73993      534.53006    
  11240000   83.624361      155.03326      525.35805    
  11250000   92.515367      138.93389      470.80242    
  11260000   84.155594      126.16688      427.53913    
  11270000   85.710241      138.37434      468.90631    
  11280000   93.77437       144.0539       488.15249    
  11290000   87.239217      134.69196      456.4279     
  11300000   84.715492      144.90505      491.03677    
  11310000   87.443251      129.6512       439.34639    
  11320000   87.655367      136.39071      462.18441    
  11330000   87.635361      135.51482      459.21631    
  11340000   87.053193      142.913        484.28637    
  11350000   101.74345      133.48768      452.34698    
  11360000   76.708106      157.99734      535.40237    
  11370000   75.863729      139.38748      472.33949    
  11380000   81.044231      147.53061      499.93395    
  11390000   77.018604      142.45603      482.73784    
  11400000   87.539496      145.53681      493.1776     
  11410000   72.51889       160.28989      543.17107    
  11420000   95.84512       155.22755      526.01641    
  11430000   87.080675      173.74885      588.77917    
  11440000   95.043624      162.39222      550.29521    
  11450000   88.202087      144.05511      488.15661    
  11460000   84.487258      156.27886      529.57898    
  11470000   95.348556      123.99145      420.1673     
  11480000   103.38545      142.11557      481.58412    
  11490000   97.329122      139.35058      472.21447    
  11500000   87.578986      136.48121      462.49107    
  11510000   82.088904      147.95586      501.375      
  11520000   93.021664      142.46983      482.78461    
  11530000   85.578573      129.01226      437.18121    
  11540000   79.631867      145.28774      492.33361    
  11550000   95.9674        149.62192      507.02074    
  11560000   89.281435      147.84069      500.98474    
  11570000   90.222721      146.70534      497.13737    
  11580000   90.672248      145.75993      493.93369    
  11590000   69.71002       137.89983      467.29834    
  11600000   77.705458      112.56917      381.46086    
  11610000   99.806292      148.82796      504.33027    
  11620000   96.414808      168.13172      569.74454    
  11630000   90.30115       158.13505      535.86903    
  11640000   101.37251      153.45058      519.99485    
  11650000   101.99071      142.182        481.80923    
  11660000   77.120621      142.58469      483.17382    
  11670000   85.683635      125.07595      423.84233    
  11680000   107.02305      136.30016      461.87757    
  11690000   88.511297      147.03475      498.25366    
  11700000   83.320252      133.86078      453.61127    
  11710000   96.512002      132.10716      447.66884    
  11720000   102.79318      146.40844      496.13128    
  11730000   102.22896      148.46627      503.1046     
  11740000   102.4288       143.42689      486.02777    
  11750000   91.499929      151.919        514.80482    
  11760000   79.713065      144.11243      488.35084    
  11770000   94.499173      136.03339      460.97358    
  11780000   108.26051      126.55207      428.84442    
  11790000   100.90726      154.12389      522.27648    
  11800000   94.603468      142.81909      483.96812    
  11810000   83.580149      128.11572      434.14314    
  11820000   115.65122      136.72629      463.3216     
  11830000   91.422167      150.39712      509.64764    
  11840000   84.660246      144.96726      491.24759    
  11850000   81.253144      139.22737      471.79693    
  11860000   105.51921      161.14777      546.07816    
  11870000   98.392743      152.39409      516.41474    
  11880000   73.938356      154.29496      522.85619    
  11890000   106.38425      143.69797      486.94639    
  11900000   72.925945      142.23037      481.97316    
  11910000   91.208813      160.46202      543.75437    
  11920000   100.42768      174.52055      591.39423    
  11930000   93.41886       139.12792      471.45995    
  11940000   90.038578      154.42054      523.28174    
  11950000   93.599559      166.62516      564.63928    
  11960000   87.912524      159.93169      541.95724    
  11970000   98.909965      134.47755      455.70132    
  11980000   91.605966      168.54345      571.13976    
  11990000   81.473749      128.5904       435.75166    
  12000000   93.23774       129.67651      439.43215    
Loop time of 297.754 on 1 procs for 8000000 steps with 100 atoms

Performance: 23213.812 ns/day, 0.001 hours/ns, 26867.838 timesteps/s, 2.687 Matom-step/s
99.1% CPU use with 1 MPI tasks x 1 OpenMP threads

MPI task timing breakdown:
Section |  min time  |  avg time  |  max time  |%varavg| %total
---------------------------------------------------------------
Pair    | 232.81     | 232.81     | 232.81     |   0.0 | 78.19
Bond    | 38.32      | 38.32      | 38.32      |   0.0 | 12.87
Neigh   | 3.9004     | 3.9004     | 3.9004     |   0.0 |  1.31
Comm    | 3.6952     | 3.6952     | 3.6952     |   0.0 |  1.24
Output  | 0.77814    | 0.77814    | 0.77814    |   0.0 |  0.26
Modify  | 16.863     | 16.863     | 16.863     |   0.0 |  5.66
Other   |            | 1.388      |            |       |  0.47

Nlocal:            100 ave         100 max         100 min
Histogram: 1 0 0 0 0 0 0 0 0 0
Nghost:              0 ave           0 max           0 min
Histogram: 1 0 0 0 0 0 0 0 0 0
Neighs:            268 ave         268 max         268 min
Histogram: 1 0 0 0 0 0 0 0 0 0

Total # of neighbors = 268
Ave neighs/atom = 2.68
Ave special neighs/atom = 5.88
Neighbor list builds = 23672
Dangerous builds = 0
Generated 0 of 6 mixed pair_coeff terms from geometric mixing rule
Setting up Verlet run ...
  Unit style    : real
  Current step  : 12000000
  Time step     : 10
Per MPI rank memory allocation (min/avg/max) = 9.633 | 9.633 | 9.633 Mbytes
   Step         PotEng         KinEng          Temp     
  12000000   93.23774       129.67651      439.43215    
  12010000   101.01848      141.22237      478.55737    
  12020000   76.156418      155.57291      527.18676    
  12030000   92.230157      136.49638      462.54248    
  12040000   85.031065      178.01367      603.23128    
  12050000   96.069525      160.52933      543.98246    
  12060000   91.635641      150.54702      510.15563    
  12070000   92.886842      155.67714      527.53994    
  12080000   105.70815      129.19017      437.7841     
  12090000   99.312658      149.15709      505.44559    
  12100000   81.730838      135.63392      459.6199     
  12110000   102.3555       139.73692      473.52366    
  12120000   82.846575      140.90143      477.4698     
  12130000   81.177584      119.82436      406.04635    
  12140000   76.928714      126.22995      427.75284    
  12150000   93.61143       139.92854      474.17298    
  12160000   84.613227      156.65728      530.86131    
  12170000   83.043915      134.34932      455.2668     
  12180000   84.255552      129.38794      438.45426    
  12190000   92.862709      153.67377      520.75116    
  12200000   93.8735        150.19667      508.96839    
  12210000   109.15655      139.23261      471.81472    
  12220000   87.559033      147.75567      500.69661    
  12230000   103.04962      136.0655       461.08237    
  12240000   76.316668      178.74434      605.70731    
  12250000   84.430587      149.92759      508.05655    
  12260000   92.742926      159.51649      540.55027    
  12270000   75.29254       143.30239      485.60589    
  12280000   95.132624      140.20721      475.11732    
  12290000   76.704684      151.46085      513.2523     
  12300000   93.019533      149.57772      506.87096    
  12310000   99.596992      154.60104      523.89339    
  12320000   106.06072      177.29129      600.78336    
  12330000   80.151154      172.3946       584.19007    
  12340000   77.862278      133.35529      451.89834    
  12350000   97.086953      125.55803      425.47594    
  12360000   88.76331       141.90009      480.85393    
  12370000   85.271986      128.80342      436.47352    
  12380000   92.402941      129.92819      440.285      
  12390000   86.162669      146.51255      496.48409    
  12400000   89.846228      137.683        466.56356    
  12410000   98.120896      145.73673      493.85508    
  12420000   99.130725      139.63896      473.1917     
  12430000   88.90038       146.81698      497.5157     
  12440000   90.525343      164.79787      558.44718    
  12450000   96.19301       157.37882      533.30638    
  12460000   102.00686      147.05732      498.33013    
  12470000   112.45655      158.02341      535.49069    
  12480000   88.874042      162.20834      549.67207    
  12490000   116.72423      160.87921      545.16809    
  12500000   89.779002      160.33594      543.32712    
  12510000   109.97173      135.22421      458.23153    
  12520000   125.83234      149.90112      507.96687    
  12530000   93.547472      147.71389      500.55503    
  12540000   86.814465      137.77664      466.8809     
  12550000   83.413563      160.29236      543.17943    
  12560000   78.570573      148.28659      502.49574    
  12570000   81.673019      142.79884      483.89952    
  12580000   112.91811      123.30892      417.85441    
  12590000   116.86043      143.85657      487.48382    
  12600000   86.350964      121.76358      412.61774    
  12610000   77.191167      130.79183      443.21161    
  12620000   101.29433      154.62644      523.97946    
  12630000   92.646119      171.43672      580.94409    
  12640000   81.903683      150.65091      510.50765    
  12650000   100.52331      153.88355      521.46205    
  12660000   115.0958       160.43188      543.65223    
  12670000   114.97166      146.50039      496.44289    
  12680000   103.60541      144.16347      488.52379    
  12690000   112.36701      139.21531      471.75606    
  12700000   103.15872      137.70018      466.62177    
  12710000   101.29679      155.04199      525.38761    
  12720000   92.42269       140.66882      476.68156    
  12730000   101.1917       155.09608      525.57092    
  12740000   111.18124      150.91594      511.40576    
  12750000   98.881472      156.10476      528.98903    
  12760000   102.17346      151.61474      513.77378    
  12770000   106.737        150.99487      511.67324    
  12780000   109.0196       162.66798      551.22965    
  12790000   95.88763       157.42016      533.44647    
  12800000   128.70313      137.48532      465.8937     
  12810000   78.275438      152.64356      517.2601     
  12820000   104.3747       161.77794      548.21358    
  12830000   106.24616      146.94188      497.93895    
  12840000   79.757264      155.07276      525.49191    
  12850000   82.52084       141.2323       478.59102    
  12860000   116.07753      150.00409      508.31579    
  12870000   94.781137      153.46319      520.03759    
  12880000   92.975624      164.16415      556.2997     
  12890000   95.097773      141.01962      477.87031    
  12900000   87.874454      134.38906      455.40145    
  12910000   105.96987      146.35155      495.9385     
  12920000   86.253526      148.22982      502.30335    
  12930000   93.106956      133.57824      452.65385    
  12940000   75.677064      137.47847      465.87048    
  12950000   91.37844       157.60297      534.06597    
  12960000   96.592784      140.85442      477.31049    
  12970000   103.80682      148.79471      504.21759    
  12980000   93.035852      143.31551      485.65034    
  12990000   88.517625      146.49976      496.44075    
  13000000   101.79385      150.25708      509.17309    
  13010000   92.499978      162.46032      550.52598    
  13020000   108.03658      158.3595       536.6296     
  13030000   105.72638      143.79728      487.2829     
  13040000   110.86413      142.11101      481.56867    
  13050000   108.55635      143.74191      487.09529    
  13060000   92.387445      150.29043      509.2861     
[...]
 404740000  -18.016081      90.994034      308.34962    
 404750000  -18.303112      84.026401      284.73855    
 404760000  -18.364513      94.271495      319.45589    
 404770000  -1.6369313      88.648693      300.40201    
 404780000  -13.794313      86.717255      293.85699    
 404790000  -21.751258      88.098053      298.53607    
 404800000  -10.573381      77.958729      264.17715    
 404810000  -14.483891      90.960089      308.23459    
 404820000  -32.824855      96.458165      326.86581    
 404830000  -16.727214      93.254404      316.00929    
 404840000  -9.1850443      89.90033       304.64341    
 404850000  -16.580262      90.052909      305.16045    
 404860000  -17.639232      85.75447       290.59442    
 404870000  -25.367924      88.68724       300.53264    
 404880000  -4.4153689      92.046111      311.91478    
 404890000  -18.409302      98.947641      335.30185    
 404900000  -29.1006        86.955315      294.6637     
 404910000  -19.378314      74.380625      252.0521     
 404920000  -12.677456      76.807894      260.27734    
 404930000  -13.807505      75.36259       255.37967    
 404940000  -1.5074822      78.432981      265.78424    
 404950000  -11.188247      93.045119      315.30009    
 404960000  -12.757437      82.167035      278.43775    
 404970000  -19.994824      95.607589      323.98348    
 404980000  -27.224399      97.537331      330.52276    
 404990000  -20.231463      94.456264      320.08201    
 405000000  -17.770749      86.432181      292.89097    
 405010000  -10.621794      88.368762      299.45342    
 405020000  -24.619966      88.044744      298.35543    
 405030000  -9.7905711      80.745595      273.62095    
 405040000  -10.983728      90.799002      307.68872    
 405050000  -11.052232      93.330848      316.26834    
 405060000   1.5121853      90.172125      305.56444    
 405070000  -5.6428386      92.082985      312.03973    
 405080000  -14.558668      94.350393      319.72325    
 405090000  -11.799776      82.716166      280.29858    
 405100000  -16.126686      96.689964      327.65131    
 405110000  -13.060237      79.82111       270.48816    
 405120000  -20.439957      88.402951      299.56927    
 405130000  -21.720634      90.541816      306.8172     
 405140000  -16.956836      76.47867       259.16171    
 405150000  -23.060578      83.613607      283.33972    
 405160000  -23.749545      96.886953      328.31884    
 405170000  -16.139366      91.972491      311.6653     
 405180000  -20.517057      86.754345      293.98268    
 405190000  -14.627105      85.139585      288.51077    
 405200000  -27.799498      80.446317      272.60679    
 405210000  -36.647881      84.446975      286.16374    
 405220000  -18.275472      80.381118      272.38585    
 405230000  -22.021891      93.705833      317.53904    
 405240000  -24.314553      77.303574      261.95704    
 405250000  -29.574338      80.925596      274.23091    
 405260000  -26.58514       72.882488      246.9754     
 405270000  -36.790866      91.62673       310.49363    
 405280000  -39.284564      89.272413      302.5156     
 405290000  -43.883017      94.025834      318.62342    
 405300000  -32.907198      90.340489      306.13497    
 405310000  -29.367541      77.117327      261.32591    
 405320000  -36.337293      90.077503      305.24379    
 405330000  -38.18012       97.254874      329.5656     
 405340000  -29.281187      89.242854      302.41544    
 405350000  -29.854325      79.543236      269.54654    
 405360000  -27.574562      82.151016      278.38347    
 405370000  -35.143033      88.953309      301.43426    
 405380000  -37.826766      111.05744      376.33807    
 405390000  -16.024112      90.576346      306.93421    
 405400000  -46.119295      104.74631      354.95169    
 405410000  -37.90597       88.613458      300.28261    
 405420000  -27.976678      75.724329      256.60549    
 405430000  -42.991155      96.950361      328.53371    
 405440000  -24.539885      89.234085      302.38572    
 405450000  -25.542807      89.718082      304.02583    
 405460000  -8.1239262      100.46083      340.42957    
 405470000   14.576663      81.484148      276.12367    
 405480000   7.1882943      93.449216      316.66945    
 405490000   9.3919557      97.976131      332.00971    
 405500000   2.6026683      90.877695      307.95539    
 405510000   10.136665      97.777844      331.33778    
 405520000   3.614697       103.49815      350.72206    
 405530000   20.817066      81.124701      274.90562    
 405540000   5.8182509      93.08427       315.43276    
 405550000  -8.6629293      92.396653      313.10265    
 405560000  -8.6901904      91.310111      309.42071    
 405570000  -10.729815      100.13849      339.33726    
 405580000  -5.6269742      88.854408      301.09912    
 405590000  -2.168287       86.797504      294.12893    
 405600000  -17.029277      93.887684      318.15528    
 405610000  -20.86924       79.398926      269.05752    
 405620000  -28.873436      78.919643      267.43338    
 405630000  -25.870374      86.928767      294.57374    
 405640000  -21.155496      86.337016      292.56848    
 405650000  -21.217973      88.026224      298.29266    
 405660000  -35.075057      92.498327      313.44719    
 405670000  -31.709837      83.27813       282.2029     
 405680000  -40.307822      88.280818      299.1554     
 405690000  -28.251537      87.743101      297.33325    
 405700000  -32.044833      80.705747      273.48591    
 405710000  -44.545174      99.700082      337.85163    
 405720000  -30.234101      89.458536      303.14631    
 405730000  -26.920415      86.277818      292.36788    
 405740000  -17.240352      96.869416      328.25941    
 405750000  -22.551256      85.683402      290.35359    
 405760000  -13.038577      84.846466      287.51749    
 405770000  -20.334767      86.606181      293.4806     
 405780000  -32.749162      78.205418      265.0131     
 405790000  -20.090341      80.463673      272.66561    
 405800000  -28.41686       90.103511      305.33193    
 405810000  -13.552008      88.117756      298.60284    
 405820000  -10.025938      81.957574      277.72796    
 405830000  -20.362659      93.51793       316.9023     
 405840000  -14.291789      91.694404      310.72295    
 405850000  -14.011498      98.721999      334.53722    
 405860000  -5.8519402      83.803604      283.98356    
 405870000  -18.962707      89.847035      304.46281    
 405880000  -28.04368       97.246943      329.53873    
 405890000  -27.773576      97.098709      329.03641    
 405900000  -22.825658      88.862232      301.12563    
 405910000  -13.916956      84.664145      286.89966    
 405920000  -9.5053242      86.078446      291.69227    
 405930000  -20.080865      98.407503      333.47149    
 405940000  -19.08331       85.978447      291.35341    
 405950000  -27.037561      82.723056      280.32193    
 405960000  -27.141288      79.974409      271.00764    
 405970000  -20.420992      78.374903      265.58743    
 405980000  -5.6166023      91.304856      309.4029     
 405990000   1.0988982      95.191399      322.57315    
 406000000  -7.612413       90.281694      305.93573    
 406010000  -11.141982      96.340875      326.46835    
 406020000  -4.7795689      81.111492      274.86086    
 406030000  -16.748301      90.549089      306.84185    
 406040000  -14.408063      94.46213       320.10189    
 406050000  -22.054482      91.970402      311.65822    
 406060000  -8.0730832      83.107934      281.62616    
 406070000  -21.488305      85.261809      288.92495    
 406080000  -12.327358      87.264039      295.70987    
 406090000  -16.020538      78.847134      267.18767    
 406100000  -10.555719      82.148413      278.37465    
 406110000  -21.600972      91.356284      309.57717    
 406120000  -22.763255      86.128438      291.86168    
 406130000  -21.982469      82.755523      280.43195    
 406140000  -14.532334      93.976821      318.45733    
 406150000  -0.57440921     98.498088      333.77846    
 406160000  -16.165205      101.27303      343.18183    
 406170000  -17.590626      84.10383       285.00093    
 406180000  -25.013037      76.560807      259.44004    
 406190000  -38.771419      92.662575      314.00377    
 406200000  -25.441901      80.937462      274.27112    
 406210000  -28.79927       85.093958      288.35616    
 406220000  -26.426299      88.520853      299.96881    
 406230000  -22.4698        85.222168      288.79062    
 406240000  -19.886757      80.111872      271.47346    
 406250000  -7.5490385      80.220097      271.8402     
 406260000  -19.809963      98.720014      334.53049    
 406270000  -11.270121      86.780372      294.07087    
 406280000  -7.9106094      86.937395      294.60297    
 406290000   10.525543      88.230249      298.98404    
 406300000  -6.3086447      106.19074      359.84638    
 406310000  -10.839591      73.949595      250.59148    
 406320000  -22.811041      95.604622      323.97343    
 406330000  -22.927894      93.657576      317.37551    
 406340000  -14.584127      89.338446      302.73937    
 406350000  -24.332914      80.412648      272.4927     
 406360000  -23.921783      73.41403       248.77662    
 406370000  -31.692484      75.901416      257.20558    
 406380000  -29.058057      82.500556      279.56795    
 406390000  -41.993566      78.803768      267.04072    
 406400000  -12.55218       72.818167      246.75743    
 406410000  -30.902341      86.248851      292.26972    
 406420000  -12.580719      84.934506      287.81583    
 406430000  -13.529828      84.362952      285.87901    
 406440000  -16.852242      112.06965      379.76812    
 406450000  -4.7098539      91.059465      308.57135    
 406460000  -8.2305693      98.835841      334.92299    
 406470000  -24.580777      98.443099      333.59212    
 406480000  -11.531263      99.176459      336.07724    
 406490000  -19.307223      87.391308      296.14114    
 406500000  -0.90654869     73.861398      250.29261    
 406510000  -27.074412      95.320585      323.01092    
 406520000  -24.613821      94.634807      320.68704    
 406530000  -10.251047      86.05288       291.60563    
 406540000  -7.5926109      87.734826      297.30521    
 406550000  -11.705097      88.394989      299.54229    
 406560000  -7.9890298      85.856922      290.9416     
 406570000  -5.6338733      88.064019      298.42074    
 406580000  -3.9515421      73.939139      250.55605    
 406590000  -24.825313      96.652418      327.52407    
 406600000  -18.704606      87.79457       297.50766    
 406610000  -7.7197415      96.937732      328.49091    
 406620000  -20.729765      92.719733      314.19746    
 406630000  -17.56036       100.90971      341.95068    
 406640000  -16.451856      79.905936      270.77561    
 406650000  -28.90549       95.948961      325.14028    
 406660000  -23.6693        94.734338      321.02432    
 406670000  -16.334763      91.044521      308.52071    
 406680000  -22.669141      90.692844      307.32899    
 406690000  -13.809252      90.556144      306.86575    
 406700000  -11.664147      92.676287      314.05024    
 406710000  -0.40206514     78.900323      267.36791    
 406720000  -13.408917      77.256687      261.79816    
 406730000  -32.82455       88.433385      299.6724     
 406740000  -36.899122      84.314289      285.71411    
 406750000  -17.458696      86.082871      291.70727    
 406760000  -20.555002      77.271113      261.84704    
 406770000  -19.424169      74.82106       253.5446     
 406780000  -26.440525      92.35125       312.94879    
 406790000  -33.337103      75.097065      254.47989    
 406800000  -11.011445      90.057083      305.1746     
 406810000  -8.3782255      84.780075      287.29251    
 406820000  -6.2621785      93.340051      316.29952    
 406830000  -2.8551837      88.24568       299.03633    
 406840000   7.8730185      84.159576      285.18983    
 406850000  -7.6509317      90.524941      306.76002    
 406860000  -17.479751      87.763069      297.40092    
 406870000  -21.208249      85.388264      289.35346    
 406880000  -16.928077      84.188935      285.28932    
 406890000  -14.28468       85.777683      290.67308    
 406900000  -17.666681      88.690949      300.54521    
 406910000  -19.878333      88.705662      300.59506    
 406920000  -25.998181      98.640087      334.25965    
 406930000  -15.709579      89.185952      302.22261    
 406940000  -30.674827      87.755332      297.3747     
 406950000  -23.799043      81.921683      277.60633    
 406960000  -31.41685       97.933423      331.86499    
 406970000  -30.924086      93.829534      317.95822    
 406980000  -7.8994174      86.606547      293.48184    
 406990000  -9.1621414      100.48688      340.51783    
 407000000  -15.321318      79.821768      270.49039    
 407010000  -30.052915      97.260411      329.58437    
 407020000  -10.82809       85.869833      290.98535    
 407030000   3.9705333      97.508405      330.42474    
 407040000  -15.757756      97.231349      329.48588    
 407050000  -15.469997      90.819464      307.75806    
 407060000  -26.149962      97.24064       329.51737    
 407070000  -23.473252      87.39934       296.16836    
 407080000  -24.312686      77.765703      263.52305    
 407090000  -20.658907      95.236188      322.72492    
 407100000  -16.114963      84.307144      285.68989    
 407110000  -8.0109627      89.258919      302.46987    
 407120000  -9.3661013      108.35062      367.16552    
 407130000  -1.7830826      87.491207      296.47966    
 407140000  -16.671581      96.215993      326.04517    
 407150000  -14.712304      88.309112      299.25128    
 407160000  -2.1144886      92.52569       313.53991    
 407170000  -6.9827188      103.53823      350.85789    
 407180000  -9.2760048      92.073921      312.00901    
 407190000  -10.825207      96.864409      328.24244    
 407200000  -27.745446      102.77538      348.27283    
 407210000  -19.433991      89.220739      302.3405     
 407220000  -20.292251      91.272878      309.29454    
 407230000  -26.097192      94.91993       321.65323    
 407240000  -28.984453      96.877352      328.2863     
 407250000  -14.587558      102.36838      346.89365    
 407260000  -23.703506      92.379936      313.046      
 407270000  -18.862321      84.185855      285.27889    
 407280000  -23.468354      101.04596      342.41239    
 407290000  -7.366068       89.481818      303.22521    
 407300000  -12.045615      89.907316      304.66709    
 407310000  -7.12418        94.696196      320.89507    
 407320000  -9.3530689      95.091634      322.23508    
 407330000  -14.136599      82.48493       279.515      
 407340000  -16.769224      94.454541      320.07617    
 407350000  -12.744009      97.813939      331.4601     
 407360000   1.2547253      96.359241      326.53059    
 407370000   4.3259775      87.129058      295.25246    
 407380000  -22.668959      84.866003      287.58369    
 407390000  -17.136205      76.532264      259.34332    
 407400000  -23.685729      81.799601      277.19264    
 407410000  -28.450482      87.647284      297.00856    
 407420000  -22.31569       80.198785      271.76798    
 407430000  -8.0432045      92.71491       314.18112    
 407440000  -30.204837      102.64796      347.84105    
 407450000  -8.913883       86.990764      294.78382    
 407460000  -13.65025       100.92075      341.9881     
 407470000  -9.618864       95.804714      324.65148    
 407480000  -22.090306      89.188933      302.23272    
 407490000  -12.957443      82.357972      279.08478    
 407500000  -10.829891      96.609942      327.38014    
 407510000  -11.684165      91.846989      311.24001    
 407520000  -4.3060928      88.470949      299.7997     
 407530000  -15.540949      91.153714      308.89073    
 407540000  -21.320085      79.547297      269.5603     
 407550000  -28.76144       90.844944      307.8444     
 407560000  -22.208067      82.615527      279.95755    
 407570000  -24.520576      91.632216      310.51222    
 407580000  -15.538279      77.847245      263.79937    
 407590000  -20.420234      91.277547      309.31036    
 407600000   8.0520527      79.061367      267.91364    
 407610000  -21.519483      91.13575       308.82985    
 407620000  -28.846701      91.102198      308.71616    
 407630000  -14.503471      69.166263      234.3823     
 407640000  -23.624296      77.29041       261.91243    
 407650000  -23.867315      75.255933      255.01824    
 407660000  -13.834438      89.884678      304.59037    
 407670000  -28.624119      91.645904      310.5586     
 407680000  -23.631728      87.922356      297.94069    
 407690000  -22.971523      88.805112      300.93207    
 407700000  -16.368317      77.915501      264.03067    
 407710000  -38.838632      94.904254      321.60011    
 407720000  -19.853316      83.611229      283.33166    
 407730000  -17.682542      79.611625      269.77829    
 407740000  -20.832144      91.801328      311.08528    
 407750000  -32.838871      92.066224      311.98293    
 407760000  -4.4201208      89.750395      304.13533    
 407770000  -5.0353201      88.73797       300.70455    
 407780000  -19.545288      81.671285      276.75781    
 407790000  -19.827992      76.266688      258.44337    
 407800000  -5.7100576      93.30573       316.18322    
 407810000   3.9272415      92.502326      313.46074    
 407820000   0.76467657     87.314163      295.87972    
 407830000  -9.646232       93.40113       316.5065     
 407840000   4.3889317      96.077755      325.57673    
 407850000  -1.4627723      89.731873      304.07256    
 407860000  -9.9538987      90.588529      306.9755     
 407870000  -4.177248       90.502239      306.68309    
 407880000  -9.2213561      75.194822      254.81116    
 407890000  -1.4897779      87.422285      296.24611    
 407900000  -12.282418      79.526764      269.49072    
 407910000  -14.691922      77.772341      263.54554    
 407920000  -20.126744      89.19255       302.24497    
 407930000  -15.185156      80.342599      272.25532    
 407940000  -13.713885      91.564261      310.28194    
 407950000  -7.5511541      88.135416      298.66268    
 407960000  -29.141212      83.389161      282.57915    
 407970000  -34.13541       88.644309      300.38716    
 407980000  -13.412872      88.385606      299.5105     
 407990000  -8.2123387      80.820279      273.87403    
 408000000  -22.194934      92.980148      315.07993    
Loop time of 279.167 on 1 procs for 4000000 steps with 100 atoms

Performance: 12379.704 ns/day, 0.002 hours/ns, 14328.361 timesteps/s, 1.433 Matom-step/s
99.3% CPU use with 1 MPI tasks x 1 OpenMP threads

MPI task timing breakdown:
Section |  min time  |  avg time  |  max time  |%varavg| %total
---------------------------------------------------------------
Pair    | 245.62     | 245.62     | 245.62     |   0.0 | 87.98
Bond    | 19.943     | 19.943     | 19.943     |   0.0 |  7.14
Neigh   | 1.74       | 1.74       | 1.74       |   0.0 |  0.62
Comm    | 2.1097     | 2.1097     | 2.1097     |   0.0 |  0.76
Output  | 0.11366    | 0.11366    | 0.11366    |   0.0 |  0.04
Modify  | 8.834      | 8.834      | 8.834      |   0.0 |  3.16
Other   |            | 0.8077     |            |       |  0.29

Nlocal:            100 ave         100 max         100 min
Histogram: 1 0 0 0 0 0 0 0 0 0
Nghost:              0 ave           0 max           0 min
Histogram: 1 0 0 0 0 0 0 0 0 0
Neighs:            849 ave         849 max         849 min
Histogram: 1 0 0 0 0 0 0 0 0 0

Total # of neighbors = 849
Ave neighs/atom = 8.49
Ave special neighs/atom = 5.88
Neighbor list builds = 9007
Dangerous builds = 0
System init for write_data ...
Generated 0 of 6 mixed pair_coeff terms from geometric mixing rule
Total wall time: 4:41:35
