LAMMPS (29 Aug 2024)
  using 1 OpenMP thread(s) per MPI task
  using 1 OpenMP thread(s) per MPI task
Reading data file ...
  orthogonal box = (-1000.6 -1000.6 -1800.6) to (1000.6 1000.6 1000.6)
  1 by 1 by 1 MPI processor grid
  reading atoms ...
  200 atoms
  scanning bonds ...
  1 = max bonds/atom
  scanning angles ...
  1 = max angles/atom
  orthogonal box = (-1000.6 -1000.6 -1800.6) to (1000.6 1000.6 1000.6)
  1 by 1 by 1 MPI processor grid
  reading bonds ...
  199 bonds
  reading angles ...
  198 angles
Finding 1-2 1-3 1-4 neighbors ...
  special bond factors lj:    0        0        0       
  special bond factors coul:  0        0        0       
     2 = max # of 1-2 neighbors
     2 = max # of 1-3 neighbors
     4 = max # of 1-4 neighbors
     6 = max # of special neighbors
  special bonds CPU = 0.000 seconds
  read_data CPU = 0.020 seconds
Finding 1-2 1-3 1-4 neighbors ...
  special bond factors lj:    0        0        1       
  special bond factors coul:  0        0        0       
     2 = max # of 1-2 neighbors
     2 = max # of 1-3 neighbors
     4 = max # of 1-4 neighbors
     6 = max # of special neighbors
  special bonds CPU = 0.000 seconds

CITE-CITE-CITE-CITE-CITE-CITE-CITE-CITE-CITE-CITE-CITE-CITE-CITE

Your simulation uses code contributions which should be cited:
- Type Label Framework: https://doi.org/10.1021/acs.jpcb.3c08419
The log file lists these citations in BibTeX format.

CITE-CITE-CITE-CITE-CITE-CITE-CITE-CITE-CITE-CITE-CITE-CITE-CITE

Generated 0 of 6 mixed pair_coeff terms from geometric mixing rule
Neighbor list info ...
  update: every = 10 steps, delay = 0 steps, check = yes
  max neighbors/atom: 2000, page size: 100000
  master list distance cutoff = 33
  ghost atom cutoff = 33
  binsize = 16.5, bins = 122 122 170
  2 neighbor lists, perpetual/occasional/extra = 2 0 0
  (1) pair lj/cut, perpetual, trim from (2)
      attributes: half, newton on, cut 25
      pair build: trim
      stencil: none
      bin: none
  (2) pair base/rna, perpetual
      attributes: half, newton on
      pair build: half/bin/newton
      stencil: half/bin/3d
      bin: standard
Setting up Verlet run ...
  Unit style    : real
  Current step  : 0
  Time step     : 10
Per MPI rank memory allocation (min/avg/max) = 18.05 | 18.05 | 18.05 Mbytes
   Step         PotEng         KinEng          Temp     
         0   271.41412      0              0            
     10000   91.156368      191.5367       322.89746    
     20000   110.29182      177.33139      298.94978    
     30000   108.30975      171.07011      288.39435    
     40000   113.52124      180.30863      303.96889    
     50000   109.94152      174.68473      294.48798    
     60000   120.20099      176.02696      296.75075    
     70000   116.91137      187.70065      316.43055    
     80000   105.81667      200.85323      338.60349    
     90000   107.45185      194.1157       327.24519    
    100000   110.21702      175.21247      295.37766    
    110000   87.146625      185.345        312.45933    
    120000   88.174717      195.09548      328.89693    
    130000   81.616258      180.12219      303.65458    
    140000   77.637874      185.78941      313.20853    
    150000   90.075928      158.69921      267.53917    
    160000   62.542894      187.61561      316.28718    
    170000   58.454296      174.12476      293.54396    
    180000   48.910486      174.12342      293.5417     
    190000   32.174728      205.06874      345.71011    
    200000   42.824503      169.59541      285.90826    
    210000   36.491687      181.86753      306.59692    
    220000   48.626695      165.01685      278.18962    
    230000   55.89906       173.15054      291.9016     
    240000   49.320187      171.50148      289.12158    
    250000   33.102595      172.30617      290.47814    
    260000   19.013461      171.86616      289.73635    
    270000   19.970169      180.01181      303.4685     
    280000   14.62068       164.73669      277.71732    
    290000   23.580429      163.03957      274.85627    
    300000   22.156958      171.02192      288.31311    
    310000   7.0430876      175.97333      296.66033    
    320000   21.636022      172.36594      290.57889    
    330000   13.490319      182.15189      307.0763     
    340000  -19.574042      193.45188      326.12611    
    350000  -5.6343818      175.79107      296.35307    
    360000  -19.221732      178.56225      301.0248     
    370000  -27.668809      185.11871      312.07784    
    380000  -37.980104      169.24223      285.31286    
    390000  -24.955621      174.8501       294.76676    
    400000  -4.2485335      175.40963      295.71003    
    410000  -38.205853      182.16161      307.0927     
    420000  -29.120925      176.84046      298.12216    
    430000  -26.943525      177.81426      299.76382    
    440000  -26.65263       164.52482      277.36013    
    450000  -11.851051      171.79698      289.61973    
    460000  -15.03818       179.51716      302.63461    
    470000  -47.597908      177.48298      299.20534    
    480000  -38.638293      190.41065      320.99914    
    490000  -39.324136      175.44708      295.77317    
    500000  -30.7273        169.54606      285.82508    
    510000  -43.81497       182.97433      308.46279    
    520000  -17.055771      159.8978       269.55979    
    530000  -28.161085      187.36928      315.87192    
    540000  -28.47799       180.80613      304.80759    
    550000  -19.491571      168.22736      283.60197    
    560000  -21.381284      171.25466      288.70548    
    570000  -11.403546      166.67476      280.98457    
    580000  -46.585332      193.13957      325.59962    
    590000  -26.954122      196.42477      331.13789    
    600000  -17.280458      171.21009      288.63034    
    610000  -27.989369      170.64741      287.68176    
    620000  -44.551255      184.50959      311.05097    
    630000  -46.680234      186.18876      313.88177    
    640000  -25.351564      170.06557      286.70087    
    650000  -22.986307      165.83841      279.57462    
    660000  -19.30385       177.37711      299.02686    
    670000  -34.726948      188.71513      318.14077    
    680000  -18.94918       177.6462       299.4805     
    690000   0.92772589     167.65438      282.63603    
    700000   18.26576       171.26628      288.72507    
    710000  -11.501304      169.7869       286.23109    
    720000  -25.112951      174.32269      293.87763    
    730000  -9.8768269      189.26469      319.06724    
    740000  -32.413873      172.82833      291.3584     
    750000  -26.023681      173.86927      293.11326    
    760000  -28.398898      182.08443      306.96258    
    770000  -29.126875      198.10098      333.96369    
    780000  -17.454702      179.93267      303.33509    
    790000  -5.8589388      176.95622      298.31731    
    800000  -25.206287      204.57426      344.87651    
    810000  -3.9863384      186.15583      313.82625    
    820000  -8.0949847      169.64268      285.98796    
    830000  -18.452518      186.01697      313.59215    
    840000  -13.573581      190.91105      321.84272    
    850000  -0.26326348     166.07575      279.97473    
    860000  -26.916894      178.82255      301.46362    
    870000  -7.3187299      169.9448       286.49728    
    880000  -2.7388099      159.5757       269.01679    
    890000  -13.513281      174.73905      294.57955    
    900000  -3.0095996      187.1142       315.44189    
    910000   15.353464      186.41172      314.25763    
    920000   11.090853      185.16778      312.16056    
    930000  -4.5222951      189.74759      319.88133    
    940000   10.739576      169.88044      286.38877    
    950000  -27.523403      168.0056       283.22813    
    960000  -8.3475933      165.45604      278.93002    
    970000  -0.1906117      187.20745      315.5991     
    980000  -2.6534237      195.73086      329.96808    
    990000   9.4589712      193.45911      326.13831    
   1000000  -1.9161706      181.30249      305.64436    
   1010000   2.1644252      178.50933      300.93558    
   1020000  -19.29138       196.83745      331.83359    
   1030000  -5.4901794      178.93206      301.64823    
   1040000  -7.2874387      168.5477       284.14201    
   1050000  -18.964416      179.37302      302.39161    
   1060000  -29.443047      183.19481      308.83448    
   1070000  -24.657913      181.6519       306.2334     
   1080000  -46.44507       189.09269      318.77728    
   1090000  -25.498831      198.98639      335.45634    
   1100000   9.7524572      181.66703      306.25891    
   1110000   6.947689       184.82337      311.57994    
   1120000   6.5666879      196.29469      330.91859    
   1130000  -12.766098      176.36305      297.31732    
   1140000  -22.31523       189.31447      319.15115    
   1150000  -6.2993419      175.2172       295.38563    
   1160000  -15.750785      167.30569      282.0482     
   1170000  -13.373034      162.77859      274.4163     
   1180000  -28.28892       192.698        324.8552     
   1190000  -18.033468      188.0343       316.99302    
   1200000  -5.942811       177.41886      299.09725    
   1210000  -3.2552506      177.4361       299.1263     
   1220000  -32.312531      181.93911      306.7176     
   1230000  -32.214632      185.17314      312.1696     
   1240000  -6.9617928      170.03657      286.65199    
   1250000  -6.3945461      167.2359       281.93055    
   1260000   3.3398669      180.26261      303.8913     
   1270000  -22.019742      191.58965      322.98671    
   1280000  -25.853645      173.71929      292.86041    
   1290000  -40.610032      161.92578      272.9786     
   1300000  -39.821912      179.49101      302.59052    
   1310000  -26.159506      175.933        296.59234    
   1320000  -38.373228      191.54709      322.91497    
   1330000  -19.455222      168.10899      283.40243    
   1340000  -33.269134      176.45425      297.47107    
   1350000  -27.122142      178.68887      301.23826    
   1360000  -35.015581      172.61634      291.00102    
   1370000  -31.810275      175.34915      295.60807    
   1380000  -28.084589      170.9645       288.21631    
   1390000  -5.6030465      188.75845      318.21381    
   1400000  -18.482902      174.78244      294.65269    
   1410000  -26.129198      172.38092      290.60415    
   1420000  -28.419377      152.4966       257.08266    
   1430000  -29.289039      164.63191      277.54067    
   1440000  -43.847515      173.79944      292.99553    
   1450000  -16.379985      179.97818      303.41181    
   1460000  -31.43039       180.22876      303.83425    
   1470000  -64.944642      178.18445      300.3879     
   1480000  -42.137607      187.50763      316.10515    
   1490000  -8.1241815      166.5198       280.72333    
   1500000  -17.706339      179.66319      302.88079    
   1510000  -48.292619      185.56695      312.83349    
   1520000  -11.497742      171.11898      288.47675    
   1530000  -58.554031      196.24286      330.83122    
   1540000  -25.87016       186.57118      314.52646    
   1550000  -22.575837      185.13186      312.10001    
   1560000  -13.8151        168.93934      284.80224    
   1570000  -27.685507      188.86956      318.40112    
   1580000  -10.693485      178.15118      300.3318     
   1590000  -33.89922       170.84831      288.02045    
   1600000  -37.996639      195.49357      329.56805    
   1610000  -39.153152      172.64646      291.05181    
   1620000  -34.991104      171.63091      289.33977    
   1630000  -37.332462      187.90074      316.76787    
   1640000  -36.452342      196.10955      330.60648    
   1650000  -33.18582       175.32968      295.57524    
   1660000  -31.683585      166.38377      280.494      
   1670000  -52.431317      180.61496      304.48531    
   1680000  -37.739784      164.02316      276.51442    
   1690000  -36.174008      166.28564      280.32857    
   1700000  -43.577075      157.24832      265.09323    
   1710000  -64.780272      162.13787      273.33616    
   1720000  -53.750055      176.6434       297.78995    
   1730000  -22.584373      163.21279      275.14829    
   1740000  -29.335231      166.40036      280.52197    
   1750000  -20.114205      146.72702      247.35616    
   1760000  -31.384119      177.78669      299.71733    
   1770000  -4.699833       165.96157      279.78225    
   1780000  -42.420578      197.36106      332.71632    
   1790000  -35.616227      197.42185      332.81879    
   1800000  -27.544384      179.15624      302.02617    
   1810000  -21.205958      176.72748      297.93169    
   1820000  -42.878897      171.4428       289.02265    
   1830000  -40.55997       181.35706      305.73636    
   1840000  -15.289943      171.15058      288.53002    
   1850000  -23.03071       185.39588      312.5451     
   1860000  -27.432957      167.48309      282.34727    
   1870000  -28.983811      184.76991      311.48983    
   1880000  -21.131866      165.27322      278.62181    
   1890000  -30.587267      182.26846      307.27282    
   1900000  -22.700145      166.30904      280.36802    
   1910000  -33.429066      194.93223      328.62173    
   1920000  -33.102945      196.08421      330.56377    
   1930000  -17.012071      185.84123      313.29588    
   1940000  -32.492404      176.89909      298.22099    
   1950000  -16.981028      157.06541      264.78488    
   1960000  -37.143157      167.14589      281.7788     
   1970000  -27.910997      175.10291      295.19296    
   1980000  -32.257114      172.40469      290.64423    
   1990000  -33.040027      171.07948      288.41016    
   2000000  -37.170174      181.89655      306.64585    
   2010000  -17.936746      162.18226      273.41098    
   2020000  -14.112796      181.94227      306.72293    
   2030000  -27.130691      185.34917      312.46636    
   2040000  -21.09415       169.74244      286.15614    
   2050000  -23.420222      172.11592      290.15742    
   2060000  -26.230688      188.22084      317.3075     
   2070000  -34.642708      187.04543      315.32596    
   2080000  -12.841167      162.71359      274.30672    
   2090000  -37.919793      190.73155      321.54011    
   2100000  -32.112652      169.71112      286.10333    
   2110000  -37.438194      172.33412      290.52525    
   2120000  -26.201989      166.37115      280.47272    
   2130000  -48.117817      179.95973      303.3807     
   2140000  -25.297947      183.8392       309.92082    
   2150000  -13.835625      190.03874      320.37215    
   2160000  -6.4224603      184.26464      310.63804    
   2170000   1.4666457      171.87244      289.74694    
   2180000  -22.821061      172.46076      290.73875    
   2190000  -31.978131      169.21034      285.2591     
   2200000  -20.206098      173.06749      291.7616     
   2210000  -13.357888      182.94429      308.41216    
   2220000  -20.023345      188.07274      317.05782    
   2230000  -17.19853       172.52656      290.84967    
   2240000  -9.4193968      170.55393      287.52417    
   2250000  -24.50135       172.45179      290.72363    
   2260000  -37.584215      171.5448       289.1946     
   2270000  -36.686893      176.46414      297.48776    
   2280000  -19.112413      183.39413      309.1705     
   2290000  -44.656436      187.24118      315.65595    
   2300000  -13.530574      178.53101      300.97213    
   2310000  -23.342686      160.44534      270.48285    
   2320000  -59.419449      184.87167      311.66137    
   2330000  -40.690974      177.69752      299.56701    
   2340000  -18.995821      174.07805      293.46521    
   2350000  -26.676225      177.30323      298.90231    
   2360000  -31.658439      176.76534      297.99551    
   2370000  -21.307528      172.30186      290.47088    
   2380000  -2.5141106      175.01775      295.04939    
   2390000   4.5186189      179.83549      303.17125    
   2400000  -8.7044952      183.06038      308.60786    
   2410000   2.612448       160.97185      271.37046    
   2420000  -14.119381      163.77132      276.08986    
   2430000  -1.953832       158.10186      266.53215    
   2440000  -28.774033      162.72103      274.31926    
   2450000  -22.889949      168.12329      283.42652    
   2460000  -32.291284      171.90735      289.8058     
   2470000  -23.101783      182.75266      308.08909    
   2480000  -7.7890613      162.08364      273.24473    
   2490000  -2.3808502      164.75315      277.74506    
   2500000  -5.0270456      178.99754      301.75861    
   2510000  -6.0594354      180.86754      304.91111    
   2520000  -35.79577       186.17905      313.86539    
   2530000  -7.330671       177.56164      299.33794    
   2540000  -28.167537      188.63688      318.00886    
   2550000  -23.025744      173.12987      291.86675    
   2560000  -34.539026      175.78681      296.34589    
   2570000   0.20381775     174.5632       294.28309    
   2580000  -30.161956      179.78259      303.08208    
   2590000  -18.50587       169.78963      286.2357     
   2600000  -25.960166      165.90077      279.67975    
   2610000  -31.685018      167.0351       281.59203    
   2620000  -35.461385      174.42977      294.05816    
   2630000  -47.20037       177.85539      299.83315    
   2640000  -34.17309       165.20765      278.51127    
   2650000  -31.113502      171.99898      289.96027    
   2660000  -36.023458      168.36814      283.83931    
   2670000  -46.992523      179.2756       302.22737    
   2680000  -43.302756      174.32769      293.88606    
   2690000  -52.08481       169.00242      284.90859    
   2700000  -50.506916      174.05428      293.42514    
   2710000  -55.017971      166.3389       280.41836    
   2720000  -41.449691      168.59396      284.22       
   2730000  -46.165512      195.03344      328.79235    
   2740000  -49.569892      170.81295      287.96083    
   2750000  -41.879472      176.92021      298.25661    
   2760000  -37.204191      182.45591      307.58883    
   2770000  -30.882199      179.00554      301.7721     
   2780000  -10.68136       180.04305      303.52117    
   2790000  -19.944395      172.27564      290.42667    
   2800000  -26.292358      170.31349      287.11883    
   2810000  -41.088856      177.85797      299.83751    
   2820000  -39.265734      186.32221      314.10674    
   2830000  -44.431131      184.17761      310.49132    
   2840000  -40.077721      166.67896      280.99165    
   2850000  -37.497538      183.91722      310.05235    
   2860000  -27.879408      177.41127      299.08445    
   2870000  -24.957912      167.65263      282.63308    
   2880000  -30.691632      163.90033      276.30736    
   2890000  -25.628934      193.39146      326.02426    
   2900000  -13.496445      173.89969      293.16453    
   2910000  -16.91422       177.43686      299.12759    
   2920000  -23.401782      187.17667      315.5472     
   2930000  -43.749962      183.4663       309.29217    
   2940000  -45.648797      185.61718      312.91818    
   2950000  -22.611288      190.96921      321.94076    
   2960000   5.8996638      173.21355      292.00783    
   2970000  -24.714625      183.24387      308.91719    
   2980000  -32.712609      198.83067      335.19382    
   2990000   6.8538768      167.18822      281.85017    
   3000000  -41.132436      175.02506      295.0617     
   3010000  -23.504439      171.94431      289.8681     
   3020000  -28.779472      187.73388      316.48657    
   3030000  -30.219762      189.86374      320.07714    
   3040000  -28.792312      168.07265      283.34116    
   3050000  -32.422166      173.65342      292.74936    
   3060000  -20.838021      185.16016      312.14772    
   3070000  -26.191646      170.57582      287.56107    
   3080000  -50.480882      177.95312      299.99791    
   3090000  -29.606522      175.73719      296.26223    
   3100000  -36.772977      170.1936       286.91671    
   3110000  -38.421558      181.51776      306.00726    
   3120000  -10.919571      176.31542      297.23703    
   3130000  -42.643589      172.45954      290.73669    
   3140000  -44.665021      176.3328       297.26634    
   3150000  -22.590056      165.25197      278.58599    
   3160000  -27.061543      191.77623      323.30127    
   3170000  -50.82478       182.39634      307.48841    
   3180000  -38.534886      174.22806      293.71811    
   3190000  -30.609286      178.20308      300.4193     
   3200000  -24.833326      172.75699      291.23815    
   3210000  -7.7340832      171.94676      289.87223    
   3220000  -34.600215      182.09884      306.98687    
   3230000  -12.289687      171.10506      288.45327    
   3240000  -21.921635      158.43121      267.08737    
   3250000  -11.831217      162.74172      274.35415    
   3260000  -12.079235      154.83273      261.02097    
   3270000  -9.4846427      173.00247      291.65198    
   3280000  -24.971378      175.77092      296.31911    
   3290000  -36.082119      201.46947      339.64237    
   3300000  -34.071857      202.93819      342.11838    
   3310000  -20.373796      183.597        309.51251    
   3320000  -0.83011994     182.37961      307.4602     
   3330000  -15.840033      194.37426      327.68108    
   3340000  -19.279641      191.49886      322.83367    
   3350000  -33.415735      172.45738      290.73304    
   3360000  -32.548815      175.25285      295.44572    
   3370000  -30.496367      188.48219      317.74809    
   3380000  -6.2475915      157.2354       265.07145    
   3390000  -55.019914      167.20089      281.87153    
   3400000  -60.044284      188.93637      318.51375    
   3410000  -60.270185      168.20361      283.56194    
   3420000  -38.860558      171.74462      289.53146    
   3430000  -21.859694      186.29982      314.069      
   3440000  -32.384734      168.73406      284.45619    
   3450000  -26.689882      163.70779      275.98276    
   3460000  -34.564492      170.79254      287.92642    
   3470000  -30.240824      168.99138      284.88997    
   3480000  -37.467268      179.70352      302.94878    
   3490000  -38.511348      172.52729      290.8509     
   3500000  -32.76967       179.21442      302.12424    
   3510000  -36.259303      177.23797      298.7923     
   3520000  -34.251915      182.93927      308.40368    
   3530000  -28.324156      167.4392       282.27328    
   3540000  -6.4852008      176.76106      297.9883     
   3550000   13.924544      187.90393      316.77323    
   3560000  -12.338049      186.25218      313.98868    
   3570000  -24.633123      171.60132      289.28988    
   3580000  -32.586874      188.92773      318.49918    
   3590000  -8.0684839      183.15076      308.76022    
   3600000  -11.845912      178.65592      301.18271    
   3610000  -23.683079      176.42139      297.41568    
   3620000  -2.2631617      176.02823      296.75288    
   3630000  -13.991588      169.23274      285.29688    
   3640000  -27.672535      174.6762       294.4736     
   3650000  -11.162874      194.79268      328.38646    
   3660000  -24.286171      166.74554      281.10389    
   3670000  -42.470982      177.76541      299.68146    
   3680000  -47.165358      189.70699      319.81289    
   3690000  -30.51062       181.66486      306.25525    
   3700000  -18.818436      159.48558      268.86485    
   3710000  -26.59871       182.88122      308.30583    
   3720000  -37.534745      182.21447      307.18181    
   3730000  -43.751765      175.82848      296.41614    
   3740000  -58.2757        172.88857      291.45997    
   3750000  -25.195481      169.81053      286.27092    
   3760000  -28.694002      173.63851      292.72424    
   3770000  -34.711491      177.54168      299.30429    
   3780000  -47.985752      171.04183      288.34669    
   3790000  -54.798057      190.13993      320.54274    
   3800000   0.25411289     165.81322      279.53216    
   3810000  -16.316676      175.13392      295.24522    
   3820000  -19.769854      187.03922      315.31549    
   3830000  -41.14261       175.7074       296.21202    
   3840000  -35.898338      175.50578      295.87212    
   3850000  -47.361945      186.66107      314.678      
   3860000  -38.239897      197.62771      333.16583    
   3870000  -26.72104       182.80019      308.16923    
   3880000  -53.354416      166.9597       281.46492    
   3890000  -49.943207      185.46144      312.65563    
   3900000  -55.452868      173.14208      291.88734    
   3910000  -48.04119       170.95484      288.20003    
   3920000  -68.384445      200.67953      338.31068    
   3930000  -38.861171      162.42195      273.81507    
   3940000  -53.357913      184.80575      311.55025    
   3950000  -55.997847      173.36797      292.26814    
   3960000  -48.778554      167.12598      281.74525    
   3970000  -27.234109      168.53828      284.12613    
   3980000  -20.691822      189.60698      319.64428    
   3990000  -33.830992      191.15344      322.25134    
   4000000  -17.357886      166.67773      280.98957    
Loop time of 636.106 on 1 procs for 4000000 steps with 200 atoms

Performance: 5433.060 ns/day, 0.004 hours/ns, 6288.264 timesteps/s, 1.258 Matom-step/s
99.3% CPU use with 1 MPI tasks x 1 OpenMP threads

MPI task timing breakdown:
Section |  min time  |  avg time  |  max time  |%varavg| %total
---------------------------------------------------------------
Pair    | 550.06     | 550.06     | 550.06     |   0.0 | 86.47
Bond    | 40.842     | 40.842     | 40.842     |   0.0 |  6.42
Neigh   | 15.147     | 15.147     | 15.147     |   0.0 |  2.38
Comm    | 12.142     | 12.142     | 12.142     |   0.0 |  1.91
Output  | 0.12941    | 0.12941    | 0.12941    |   0.0 |  0.02
Modify  | 16.901     | 16.901     | 16.901     |   0.0 |  2.66
Other   |            | 0.8812     |            |       |  0.14

Nlocal:            200 ave         200 max         200 min
Histogram: 1 0 0 0 0 0 0 0 0 0
Nghost:              0 ave           0 max           0 min
Histogram: 1 0 0 0 0 0 0 0 0 0
Neighs:           1589 ave        1589 max        1589 min
Histogram: 1 0 0 0 0 0 0 0 0 0

Total # of neighbors = 1589
Ave neighs/atom = 7.945
Ave special neighs/atom = 5.94
Neighbor list builds = 9871
Dangerous builds = 0
Generated 0 of 6 mixed pair_coeff terms from geometric mixing rule
Setting up Verlet run ...
  Unit style    : real
  Current step  : 4000000
  Time step     : 10
Per MPI rank memory allocation (min/avg/max) = 19.32 | 19.32 | 19.32 Mbytes
   Step         PotEng         KinEng          Temp     
   4000000  -17.357886      166.67773      280.98957    
   4010000  -32.890676      189.11584      318.81631    
   4020000  -37.334289      156.38345      263.6352     
   4030000  -84.671351      189.73239      319.8557     
   4040000  -57.590494      196.65154      331.52018    
   4050000  -50.47334       176.3828       297.35062    
   4060000  -50.02977       188.86024      318.38541    
   4070000  -28.985488      164.03042      276.52666    
   4080000  -42.559621      192.82643      325.07171    
   4090000  -25.149001      177.59895      299.40084    
   4100000  -9.0449969      171.67878      289.42047    
   4110000  -14.944082      182.15912      307.08849    
   4120000  -13.162901      172.6011       290.97534    
   4130000  -31.217271      189.34993      319.21094    
   4140000  -44.751536      171.51235      289.13989    
   4150000  -28.416551      154.32564      260.16611    
   4160000  -32.441632      160.49553      270.56747    
   4170000  -41.130681      175.55029      295.94716    
   4180000  -42.193664      168.2747       283.68179    
   4190000  -36.007954      187.00223      315.25313    
   4200000  -33.78999       174.33655      293.90101    
   4210000  -57.341362      170.94196      288.17831    
   4220000  -34.630842      173.32337      292.19296    
   4230000  -54.365865      176.73921      297.95147    
   4240000  -41.355691      167.31473      282.06343    
   4250000  -15.196983      185.78784      313.20588    
   4260000  -61.73934       191.33643      322.55984    
   4270000  -50.360009      186.82721      314.95808    
   4280000  -52.790733      157.86145      266.12686    
   4290000  -68.499807      187.70694      316.44114    
   4300000  -39.39737       171.40855      288.96491    
   4310000  -56.444282      179.81462      303.13607    
   4320000  -39.369354      189.23628      319.01934    
   4330000  -45.919864      192.11611      323.87424    
   4340000  -45.218032      196.02243      330.45962    
   4350000  -14.611621      196.22857      330.80712    
   4360000  -17.437698      179.28214      302.2384     
   4370000  -50.522325      194.05581      327.14423    
   4380000  -30.005496      173.81133      293.01558    
   4390000  -49.619291      181.91075      306.66978    
   4400000  -41.135949      200.7894       338.4959     
   4410000  -42.308031      165.17467      278.45567    
   4420000  -38.370299      195.48342      329.55093    
   4430000  -30.144943      186.36183      314.17353    
   4440000  -29.223646      181.59968      306.14538    
   4450000  -8.9368942      177.60077      299.40391    
   4460000  -26.819488      178.43907      300.81714    
   4470000  -31.69133       193.30878      325.88488    
   4480000  -12.051057      195.43267      329.46539    
   4490000  -25.954366      170.73488      287.82921    
   4500000  -45.30587       180.95571      305.05976    
   4510000  -26.134166      179.95889      303.37929    
   4520000  -9.2535721      188.74346      318.18854    
   4530000  -15.545166      178.82022      301.45968    
   4540000  -3.2085458      193.85691      326.80892    
   4550000  -15.722063      194.72841      328.27812    
   4560000  -14.145023      181.08061      305.27031    
   4570000  -28.47341       192.58168      324.65911    
   4580000  -60.697383      173.67617      292.78771    
   4590000  -75.102774      171.39153      288.93621    
   4600000  -55.557604      175.88218      296.50666    
   4610000  -59.77458       178.73209      301.31112    
   4620000  -65.346524      173.40892      292.33719    
   4630000  -35.55422       187.3749       315.88138    
   4640000  -25.614177      166.99732      281.52835    
   4650000  -24.145198      185.35986      312.48438    
   4660000  -28.789327      211.36049      356.3169     
   4670000  -11.786564      186.93533      315.14035    
   4680000  -27.830533      199.76242      336.76458    
   4690000  -24.829247      198.53068      334.68808    
   4700000  -27.494961      208.26798      351.10347    
   4710000   3.7843108      175.52314      295.90139    
   4720000   5.499201       179.6401       302.84186    
   4730000  -0.45218695     189.04326      318.69395    
   4740000   12.764444      181.29253      305.62757    
   4750000   2.0579616      191.50288      322.84044    
   4760000  -2.0497464      192.87379      325.15155    
   4770000   0.97535055     192.26397      324.1235     
   4780000   8.35727        173.86271      293.10219    
   4790000   5.4043088      201.99495      340.52824    
   4800000   17.925632      196.38896      331.07751    
   4810000  -14.054817      182.33049      307.3774     
   4820000   4.1759653      199.01029      335.49662    
   4830000  -10.014567      183.53738      309.412      
   4840000  -39.697075      176.74194      297.95607    
   4850000  -41.275992      188.21934      317.30496    
   4860000  -59.564234      171.73389      289.51338    
   4870000  -81.16718       171.28616      288.75858    
   4880000  -46.749422      184.91395      311.73266    
   4890000  -25.660075      200.94618      338.76019    
   4900000  -17.596814      193.99557      327.04268    
   4910000  -13.566556      191.8045       323.34892    
   4920000  -20.132647      191.105        322.16969    
   4930000  -30.703845      180.97467      305.09172    
   4940000  -18.923438      201.95241      340.45652    
   4950000  -23.090584      202.49638      341.37357    
   4960000  -33.326402      188.94658      318.53096    
   4970000  -21.1902        185.43173      312.60554    
   4980000  -34.478653      202.34134      341.11219    
   4990000  -31.296138      187.94152      316.83661    
   5000000  -40.281619      206.88642      348.7744     
   5010000  -19.243446      196.09991      330.59023    
   5020000  -9.8869544      204.82988      345.30745    
   5030000  -11.611941      209.17812      352.63781    
   5040000  -4.4983714      180.53508      304.35065    
   5050000   5.5644604      190.94276      321.89618    
   5060000  -2.2261148      192.7603       324.96023    
   5070000   2.1551391      186.95395      315.17174    
   5080000  -14.139013      189.72119      319.83682    
   5090000  -22.579361      183.60789      309.53086    
   5100000  -26.624582      191.0231       322.03162    
   5110000  -9.6486537      206.44228      348.02566    
   5120000   6.2485509      202.10736      340.71774    
   5130000   0.6959991      189.50697      319.47568    
   5140000  -3.5796988      199.24174      335.8868     
   5150000  -19.867854      203.62005      343.26787    
   5160000  -6.33042        223.91296      377.47817    
   5170000  -0.52068502     205.39173      346.25462    
   5180000  -5.2958732      195.51818      329.60953    
   5190000   12.179163      202.03226      340.59114    
   5200000   18.293832      197.92168      333.66142    
   5210000  -14.44999       207.94946      350.56651    
   5220000   17.5778        193.74531      326.62079    
   5230000   9.2112193      197.75729      333.38428    
   5240000   1.8147755      194.96731      328.68087    
   5250000   2.0021773      193.45314      326.12824    
   5260000  -10.668625      192.38564      324.32861    
   5270000   12.461981      188.48343      317.75017    
   5280000   10.638621      200.44806      337.92046    
   5290000  -4.8835863      202.05345      340.62687    
   5300000  -5.309066       198.17711      334.09202    
   5310000  -1.9186073      203.09836      342.3884     
   5320000  -1.9474814      180.07804      303.58016    
   5330000   5.032082       199.23206      335.8705     
   5340000  -9.8363195      201.78402      340.17265    
   5350000   4.2953032      184.3009       310.69916    
   5360000   25.983873      202.94492      342.12973    
   5370000   22.082176      204.74662      345.16707    
   5380000   30.353583      180.8587       304.89621    
   5390000   25.77807       190.22542      320.68686    
   5400000   32.055443      176.40924      297.39519    
   5410000   25.330313      197.74994      333.3719     
   5420000   59.679285      205.60107      346.60753    
   5430000   33.705435      229.97416      387.69631    
   5440000   34.757705      198.79377      335.13162    
   5450000   37.368278      204.37229      344.53602    
   5460000   53.490759      192.44604      324.43045    
   5470000   58.514461      200.3136       337.69379    
   5480000   51.321695      201.02408      338.89153    
   5490000   45.257671      194.3136       327.57883    
   5500000   19.482928      191.71373      323.1959     
   5510000   25.996352      209.03405      352.39494    
   5520000   28.147842      208.13994      350.88762    
   5530000   48.497725      225.42792      380.03214    
   5540000   69.198262      196.49745      331.26041    
   5550000   39.825148      190.45552      321.07477    
   5560000   36.203557      166.36725      280.46616    
   5570000   45.450434      195.29365      329.23101    
   5580000   61.24035       191.07979      322.12719    
   5590000   43.750306      201.95431      340.45973    
   5600000   50.140311      195.69794      329.91258    
   5610000   13.719012      210.26778      354.47478    
   5620000   44.215349      191.43582      322.72739    
   5630000   53.431188      191.95319      323.59958    
   5640000   64.618709      204.76718      345.20174    
   5650000   37.885432      194.52074      327.92803    
   5660000   60.923722      192.73454      324.9168     
   5670000   60.082073      205.59449      346.59644    
   5680000   44.963871      187.63972      316.32783    
   5690000   28.914834      218.76588      368.8011     
   5700000   46.184791      211.32287      356.25349    
   5710000   54.044433      219.09246      369.35166    
   5720000   60.733129      207.9384       350.54786    
   5730000   73.453041      200.16469      337.44274    
   5740000   53.076481      223.78612      377.26435    
   5750000   70.777347      212.87301      358.86675    
   5760000   54.758279      190.78376      321.62814    
   5770000   35.427007      213.31621      359.61391    
   5780000   70.406917      203.21254      342.58089    
   5790000   57.248343      212.97955      359.04636    
   5800000   77.834201      208.90578      352.17869    
   5810000   59.986361      217.20628      366.1719     
   5820000   63.016619      211.24396      356.12046    
   5830000   50.968064      226.1424       381.23662    
   5840000   59.77548       208.94282      352.24113    
   5850000   53.826393      214.65945      361.87838    
   5860000   41.279029      201.47901      339.65845    
   5870000   45.603969      230.25813      388.17503    
   5880000   34.370706      199.37854      336.11742    
   5890000   45.064727      190.39834      320.97838    
   5900000   28.366362      198.76042      335.07538    
   5910000   34.632475      205.09432      345.75323    
   5920000   54.073504      208.38125      351.29442    
   5930000   45.036388      206.57699      348.25275    
   5940000   52.587378      194.36409      327.66394    
   5950000   50.268254      218.47055      368.30323    
   5960000   37.582515      230.07481      387.86598    
   5970000   59.217946      209.45951      353.11219    
   5980000   67.500004      200.45643      337.93456    
   5990000   68.115977      190.88336      321.79604    
   6000000   61.500905      206.8869       348.77522    
   6010000   81.701405      198.04869      333.87553    
   6020000   60.673296      212.53784      358.30172    
   6030000   67.788766      214.62215      361.8155     
   6040000   57.022587      224.30043      378.13139    
   6050000   70.987741      190.00197      320.31017    
   6060000   61.090586      220.50799      371.738      
   6070000   53.599584      229.66364      387.17282    
   6080000   77.685805      206.02629      347.32438    
   6090000   72.466339      207.24001      349.3705     
   6100000   73.982342      206.49989      348.12278    
   6110000   56.478911      211.15283      355.96683    
   6120000   59.638676      192.76428      324.96695    
   6130000   38.289481      201.49047      339.67778    
   6140000   47.596636      217.74986      367.08828    
   6150000   56.624474      208.09351      350.80935    
   6160000   37.725949      206.15856      347.54737    
   6170000   29.313408      193.05034      325.44919    
   6180000   32.329199      224.39401      378.28914    
   6190000   43.571578      212.69897      358.57334    
   6200000   60.513579      212.5783       358.36992    
   6210000   63.039964      200.51946      338.04082    
   6220000   38.782487      215.9351       364.02889    
   6230000   60.385663      214.71195      361.96688    
   6240000   63.228662      201.99538      340.52896    
   6250000   80.147363      194.60346      328.06747    
   6260000   66.147919      221.94062      374.15317    
   6270000   47.539926      227.32765      383.23475    
   6280000   37.17817       197.72473      333.3294     
   6290000   40.365442      188.12538      317.14656    
   6300000   12.479289      216.8876       365.63464    
   6310000   53.723713      201.08863      339.00034    
   6320000   66.249351      209.39865      353.00959    
   6330000   52.463727      203.96249      343.84517    
   6340000   64.859895      237.26874      399.99369    
   6350000   53.506682      220.74553      372.13844    
   6360000   48.417448      203.18695      342.53775    
   6370000   38.709225      217.15825      366.09092    
   6380000   18.291157      221.51637      373.43795    
   6390000   58.310617      208.06724      350.76506    
   6400000   44.891053      242.17853      408.27075    
   6410000   62.725603      225.20321      379.65332    
   6420000   64.746443      214.33936      361.33875    
   6430000   68.099184      201.51004      339.71077    
   6440000   42.962562      208.97031      352.28748    
   6450000   41.115669      202.29474      341.03363    
   6460000   48.099433      210.8318       355.42563    
   6470000   43.286364      229.67456      387.19124    
   6480000   70.462468      187.38124      315.89208    
   6490000   65.462366      200.94106      338.75156    
   6500000   68.147097      204.78548      345.23258    
   6510000   44.657107      216.15254      364.39546    
   6520000   64.105594      211.80187      357.061      
   6530000   84.871104      225.19999      379.64789    
   6540000   76.902654      213.78015      360.39603    
   6550000   81.795007      205.41553      346.29475    
   6560000   85.512328      222.32369      374.79894    
   6570000   82.334997      221.46855      373.35733    
   6580000   63.190552      214.8275       362.16168    
   6590000   48.48843       214.93973      362.35088    
   6600000   76.462186      194.17596      327.3468     
   6610000   101.36221      220.05044      370.96665    
   6620000   78.494145      225.44132      380.05473    
   6630000   104.4257       209.51081      353.19867    
   6640000   95.62461       222.36644      374.87102    
   6650000   96.254809      213.55205      360.01149    
   6660000   66.990798      229.62647      387.11016    
   6670000   85.286851      218.23969      367.91403    
   6680000   74.287538      209.90084      353.85618    
   6690000   77.761727      209.3416       352.91342    
   6700000   72.407633      223.93248      377.51109    
   6710000   58.95117       228.91542      385.91146    
   6720000   65.408077      229.97315      387.6946     
   6730000   77.749154      202.63855      341.61323    
   6740000   45.291403      218.47913      368.31768    
   6750000   58.686432      218.95941      369.12736    
   6760000   73.920899      210.39811      354.69449    
   6770000   84.578647      182.39305      307.48286    
   6780000   103.86182      218.61061      368.53934    
   6790000   98.602499      225.98935      380.97862    
   6800000   81.706346      218.43839      368.24902    
   6810000   93.918113      226.04736      381.0764     
   6820000   79.769305      205.7705       346.89316    
   6830000   95.785077      219.15058      369.44964    
   6840000   84.690255      225.64508      380.39824    
   6850000   88.222592      223.30499      376.45325    
   6860000   117.97428      227.212        383.03979    
   6870000   104.75412      203.1173       342.42033    
   6880000   112.20382      205.1468       345.8417     
   6890000   107.8724       206.67021      348.40991    
   6900000   87.359042      227.19368      383.0089     
   6910000   82.776515      219.84669      370.62316    
   6920000   91.199945      213.90307      360.60326    
   6930000   95.073547      204.7407       345.15709    
   6940000   97.321145      222.99295      375.9272     
   6950000   106.4989       214.21462      361.12848    
   6960000   81.80481       219.25629      369.62784    
   6970000   63.670408      258.39822      435.61431    
   6980000   87.893943      235.8723       397.63955    
   6990000   98.744072      242.44102      408.71326    
   7000000   81.378847      201.14303      339.09205    
   7010000   67.014284      210.27205      354.48199    
   7020000   58.520441      227.93037      384.25083    
   7030000   45.929435      208.63081      351.71513    
   7040000   90.959849      214.67483      361.9043     
   7050000   86.498799      224.03113      377.67739    
   7060000   104.119        190.22086      320.67918    
   7070000   76.974286      211.67324      356.84415    
   7080000   80.799576      222.27316      374.71376    
   7090000   78.414169      225.63603      380.38297    
   7100000   84.653818      229.63582      387.12593    
   7110000   106.19714      246.37304      415.34196    
   7120000   97.094702      239.14607      403.15854    
   7130000   106.50825      216.9554       365.74896    
   7140000   117.75439      223.76467      377.22819    
   7150000   106.19161      230.06826      387.85494    
   7160000   105.30883      226.7534       382.26666    
   7170000   104.54054      207.80282      350.31929    
   7180000   97.482595      212.02038      357.42936    
   7190000   96.937027      246.70182      415.89622    
   7200000   92.765614      225.70162      380.49355    
   7210000   99.402405      230.44904      388.49687    
   7220000   139.87438      214.05079      360.85229    
   7230000   99.151808      210.10178      354.19493    
   7240000   108.74615      210.63384      355.09189    
   7250000   108.72492      216.97615      365.78394    
   7260000   115.21356      228.35784      384.97147    
   7270000   107.69646      245.22143      413.40054    
   7280000   108.69282      232.11392      391.30357    
   7290000   106.48063      212.46363      358.1766     
   7300000   90.165754      244.22872      411.727      
   7310000   106.57829      215.94167      364.03998    
   7320000   96.908922      219.5712       370.15873    
   7330000   99.120368      234.46679      395.2701     
   7340000   102.79378      246.58234      415.6948     
   7350000   106.27754      226.53539      381.89914    
   7360000   122.69487      220.1511       371.13634    
   7370000   111.71316      205.75058      346.85958    
   7380000   126.50048      228.99662      386.04835    
   7390000   117.98704      228.34475      384.94941    
   7400000   116.38024      215.68746      363.61142    
   7410000   129.73911      235.84093      397.58665    
   7420000   124.03865      224.08071      377.76098    
   7430000   108.31753      206.50568      348.13254    
   7440000   108.87992      239.38521      403.5617     
   7450000   123.21754      253.55862      427.4556     
   7460000   140.33198      243.58839      410.64752    
   7470000   109.52086      225.86188      380.76373    
   7480000   117.77664      209.27689      352.80432    
   7490000   102.96229      226.46518      381.78078    
   7500000   105.91407      223.10971      376.12403    
   7510000   81.894548      228.27237      384.82739    
   7520000   93.552803      223.95399      377.54736    
   7530000   113.68034      230.31643      388.27331    
   7540000   90.696326      250.88804      422.95346    
   7550000   110.7625       231.9849       391.08607    
   7560000   121.26722      234.93061      396.05202    
   7570000   98.814608      238.25791      401.66126    
   7580000   97.525684      226.27152      381.4543     
   7590000   70.714031      238.43453      401.95902    
   7600000   82.037594      241.92092      407.83645    
   7610000   115.7526       239.59238      403.91094    
   7620000   107.07919      231.68709      390.58401    
   7630000   116.58027      216.76072      365.42075    
   7640000   106.41379      242.85077      409.40403    
   7650000   125.37089      221.78911      373.89775    
   7660000   100.44642      237.23518      399.93712    
   7670000   97.076438      210.54757      354.94646    
   7680000   126.14799      209.99478      354.01456    
   7690000   73.48475       248.87651      419.56237    
   7700000   106.05815      229.21233      386.412      
   7710000   83.079367      236.90881      399.38692    
   7720000   97.233653      237.04023      399.60847    
   7730000   77.349433      240.91603      406.14239    
   7740000   86.466127      231.17495      389.72063    
   7750000   77.529543      223.61614      376.97779    
   7760000   90.083014      227.9474       384.27955    
   7770000   93.238864      222.22552      374.63345    
   7780000   94.936618      261.89736      441.51326    
   7790000   129.01615      224.92741      379.18837    
   7800000   134.96489      208.29798      351.15405    
   7810000   117.15143      232.80626      392.47073    
   7820000   133.17937      224.82078      379.0086     
   7830000   157.317        228.22031      384.73961    
   7840000   133.58998      237.35674      400.14205    
   7850000   117.20093      252.15068      425.08205    
   7860000   138.34286      258.99888      436.62692    
   7870000   118.58047      243.85375      411.09487    
   7880000   127.69151      238.41252      401.9219     
   7890000   130.81518      232.07245      391.23365    
   7900000   121.07029      239.58547      403.89929    
   7910000   123.44326      245.42903      413.75052    
   7920000   127.26722      226.48337      381.81144    
   7930000   107.0947       220.65763      371.99026    
   7940000   104.07545      229.22509      386.43351    
   7950000   120.20287      241.57649      407.25581    
   7960000   135.693        246.84488      416.1374     
   7970000   121.54251      276.76208      466.57258    
   7980000   140.87785      272.73734      459.78757    
   7990000   132.77551      255.91517      431.42832    
   8000000   124.12479      239.48619      403.73193    
   8010000   123.91632      229.92217      387.60867    
   8020000   121.62052      231.94067      391.01151    
   8030000   84.113395      252.68512      425.98301    
   8040000   105.67018      235.55561      397.10566    
   8050000   130.83025      243.82248      411.04215    
   8060000   129.69874      218.00164      367.51272    
   8070000   136.16203      237.3573       400.14299    
   8080000   126.09726      227.184        382.99259    
   8090000   110.50289      247.31174      416.92444    
   8100000   104.40448      242.16571      408.24913    
   8110000   123.58054      232.31123      391.63619    
   8120000   131.44239      260.54225      439.22876    
   8130000   112.26807      257.68674      434.41488    
   8140000   121.19118      239.66572      404.03459    
   8150000   116.78497      257.49707      434.09513    
   8160000   117.767        232.51602      391.98144    
   8170000   112.86278      236.48273      398.66862    
   8180000   103.23379      248.395        418.75063    
   8190000   112.1449       232.95684      392.72459    
   8200000   110.37819      274.3972       462.5858     
   8210000   109.99401      236.27613      398.32033    
   8220000   121.74312      225.43776      380.04872    
   8230000   139.25934      210.45267      354.78649    
   8240000   114.76422      245.00699      413.03903    
   8250000   126.78904      260.67205      439.4476     
   8260000   115.17702      261.35454      440.59816    
   8270000   113.41827      242.25871      408.40592    
   8280000   115.63941      227.56356      383.63246    
   8290000   117.98834      232.76475      392.40075    
   8300000   93.026649      223.36756      376.55874    
   8310000   108.57569      228.7816       385.68586    
   8320000   97.730411      210.59566      355.02753    
   8330000   127.43343      211.32617      356.25905    
   8340000   116.16256      253.92733      428.07718    
   8350000   121.56494      258.59177      435.9406     
   8360000   127.6988       226.01205      381.01688    
   8370000   108.76065      254.67641      429.33998    
   8380000   115.73151      252.5215       425.70718    
   8390000   109.14493      251.61952      424.18661    
   8400000   100.1151       249.29863      420.274      
   8410000   108.7854       235.83049      397.56906    
   8420000   144.32665      219.86682      370.6571     
   8430000   129.33569      247.66558      417.52096    
   8440000   136.7881       234.89001      395.98357    
   8450000   131.8282       255.92482      431.44459    
   8460000   126.27225      271.76848      458.15424    
   8470000   150.17499      248.67637      419.22496    
   8480000   153.98094      264.23701      445.4575     
   8490000   161.47758      244.85123      412.77645    
   8500000   153.05362      243.46087      410.43255    
   8510000   132.80303      238.39194      401.88722    
   8520000   149.70657      246.56703      415.66898    
   8530000   163.56327      218.18256      367.81773    
   8540000   166.65357      249.43214      420.49907    
   8550000   163.08813      246.50446      415.5635     
   8560000   144.86611      252.08259      424.96726    
   8570000   165.67268      254.19717      428.53207    
   8580000   144.26047      266.79847      449.77567    
   8590000   161.28344      240.96001      406.21653    
   8600000   145.7598       272.34369      459.12394    
   8610000   155.87856      231.1574       389.69105    
   8620000   157.55088      230.09379      387.89797    
   8630000   159.77779      236.93973      399.43904    
   8640000   157.78631      270.03837      455.23758    
   8650000   141.10986      273.21498      460.59278    
   8660000   176.60835      255.50663      430.73959    
   8670000   141.58411      265.4133       447.44051    
   8680000   172.16413      239.12807      403.12821    
   8690000   145.83333      242.30055      408.47644    
   8700000   154.39928      222.11221      374.44242    
   8710000   145.9814       256.75489      432.84394    
   8720000   136.04865      251.99989      424.82784    
   8730000   161.67589      227.42474      383.39844    
   8740000   139.88918      274.20588      462.26327    
   8750000   143.33992      240.83805      406.01093    
   8760000   154.78836      245.14768      413.27621    
   8770000   151.25348      246.35471      415.31106    
   8780000   180.09083      260.37738      438.95082    
   8790000   153.30694      253.53993      427.42408    
   8800000   143.44404      245.82159      414.41231    
   8810000   142.64842      258.61421      435.97844    
   8820000   135.70772      247.33058      416.9562     
   8830000   161.93937      238.6731       402.3612     
   8840000   149.74966      256.54062      432.48272    
   8850000   161.84174      242.88408      409.46018    
   8860000   146.48869      237.69695      400.71558    
   8870000   142.31979      256.66942      432.69986    
   8880000   159.41084      250.06998      421.57435    
   8890000   137.6276       245.78313      414.34747    
   8900000   131.27602      245.68141      414.176      
   8910000   133.03162      277.94003      468.5584     
   8920000   129.88195      244.13535      411.5696     
   8930000   153.43169      230.72905      388.96893    
   8940000   158.18653      264.98654      446.72108    
   8950000   156.07524      246.12502      414.92384    
   8960000   159.38085      249.7943       421.1096     
   8970000   165.80588      246.7032       415.89855    
   8980000   138.94396      257.57149      434.22058    
   8990000   145.04098      267.84139      451.53385    
   9000000   155.4479       242.77383      409.27431    
   9010000   146.81477      224.02437      377.666      
   9020000   163.50259      242.56012      408.91404    
   9030000   162.44084      254.38642      428.85112    
   9040000   149.9941       250.12149      421.66119    
   9050000   158.89741      263.76932      444.66904    
   9060000   156.4185       262.68908      442.84795    
   9070000   163.97433      267.82444      451.50528    
   9080000   155.59381      252.04466      424.90331    
   9090000   142.48397      221.93905      374.15051    
   9100000   157.14284      240.37232      405.22579    
   9110000   176.64967      223.02251      375.97704    
   9120000   155.30489      258.37349      435.57261    
   9130000   194.53011      259.83212      438.03162    
   9140000   167.58825      253.20255      426.85532    
   9150000   161.10909      274.90269      463.43797    
   9160000   172.19551      263.70213      444.55578    
   9170000   149.90108      249.83983      421.18635    
   9180000   150.4676       243.33111      410.21379    
   9190000   145.72487      250.14822      421.70626    
   9200000   172.09033      252.54894      425.75344    
   9210000   144.03935      271.99263      458.53212    
   9220000   182.57472      270.25877      455.60913    
   9230000   154.8236       290.08888      489.03923    
   9240000   178.13335      222.92016      375.8045     
   9250000   172.06304      268.99513      453.47885    
   9260000   159.42322      281.74977      474.98095    
   9270000   145.57888      266.99488      450.10679    
   9280000   151.66404      234.44634      395.23562    
   9290000   146.36968      249.67076      420.90134    
   9300000   154.84995      268.32521      452.34949    
   9310000   140.22694      250.88916      422.95535    
   9320000   154.31788      257.84701      434.68507    
   9330000   160.4314       260.6667       439.43857    
   9340000   155.34507      256.68871      432.73238    
   9350000   153.25172      241.39418      406.94847    
   9360000   167.96103      250.40751      422.14337    
   9370000   194.31319      271.85598      458.30175    
   9380000   150.66238      263.03409      443.42958    
   9390000   179.20473      254.12118      428.40397    
   9400000   146.17954      246.11683      414.91004    
   9410000   172.12556      245.54821      413.95144    
   9420000   170.45526      246.10171      414.88454    
   9430000   150.43538      237.72646      400.76533    
   9440000   153.99284      227.48963      383.50783    
   9450000   145.13952      257.2555       433.68788    
   9460000   170.94216      240.12866      404.81502    
   9470000   163.06561      270.39326      455.83585    
   9480000   169.63766      260.11922      438.51562    
   9490000   159.97889      257.28531      433.73814    
   9500000   164.91961      242.08098      408.1063     
   9510000   152.74634      250.48795      422.27897    
   9520000   191.3245       263.0417       443.4424     
   9530000   166.72815      281.59677      474.72302    
   9540000   184.45723      260.32712      438.86609    
   9550000   178.74764      281.01585      473.74368    
   9560000   151.20802      275.87763      465.08154    
   9570000   153.81751      258.61315      435.97665    
   9580000   159.72485      246.75228      415.98129    
   9590000   175.86466      256.14267      431.81185    
   9600000   186.03024      254.75203      429.46747    
   9610000   160.85787      261.19763      440.33363    
   9620000   170.24808      250.39055      422.11478    
   9630000   169.08755      238.30132      401.73444    
   9640000   160.5653       258.61414      435.97832    
   9650000   161.55812      265.81709      448.12124    
   9660000   146.96818      242.86219      409.42328    
   9670000   166.31332      229.99949      387.739      
   9680000   170.53956      259.02237      436.66652    
   9690000   161.91434      273.93452      461.80581    
   9700000   151.23988      272.36639      459.16221    
   9710000   159.09216      247.45673      417.16887    
   9720000   180.07229      253.57438      427.48215    
   9730000   172.36926      294.39238      496.29419    
   9740000   157.39306      283.14957      477.34076    
   9750000   165.76185      258.11735      435.14081    
   9760000   156.92185      253.6247       427.56699    
   9770000   173.94692      259.32494      437.1766     
   9780000   154.3201       277.58437      467.95881    
   9790000   166.65129      270.80035      456.52213    
   9800000   193.05607      276.66535      466.40951    
   9810000   188.59514      269.60007      454.49867    
   9820000   178.93488      253.36525      427.1296     
   9830000   174.83132      286.63477      483.2162     
   9840000   174.0089       270.14859      455.42339    
   9850000   151.22601      263.85906      444.82033    
   9860000   162.85785      219.43375      369.92702    
   9870000   178.28378      254.08032      428.33508    
   9880000   142.19166      258.85936      436.39172    
   9890000   146.55616      260.13385      438.54028    
   9900000   145.58409      255.9625       431.50812    
   9910000   157.64723      264.62175      446.10609    
   9920000   173.47913      261.58139      440.98058    
   9930000   163.37744      251.09102      423.29564    
   9940000   184.56452      243.58329      410.63893    
   9950000   176.65569      257.67042      434.38737    
   9960000   170.00341      265.86272      448.19815    
   9970000   157.78668      266.32901      448.98424    
   9980000   169.22731      243.09907      409.82262    
   9990000   166.9288       264.13767      445.29002    
  10000000   170.8243       260.40812      439.00265    
  10010000   155.78942      248.46385      418.8667     
  10020000   179.2341       287.34535      484.41411    
  10030000   178.90081      259.03028      436.67985    
  10040000   168.36848      277.09162      467.12812    
  10050000   154.75514      286.96851      483.77883    
  10060000   194.26834      265.80013      448.09265    
  10070000   162.10806      270.29425      455.66894    
  10080000   172.95947      263.78288      444.6919     
  10090000   159.37421      271.02773      456.90547    
  10100000   164.5611       289.63624      488.27616    
  10110000   173.685        278.58009      469.63742    
  10120000   169.4542       269.35755      454.08983    
  10130000   179.8591       238.71256      402.42773    
  10140000   177.24517      277.40148      467.65049    
  10150000   169.45713      287.41697      484.53486    
  10160000   167.06467      275.07754      463.73274    
  10170000   175.71584      273.00465      460.23821    
  10180000   173.51584      280.98958      473.69941    
  10190000   173.21763      280.74135      473.28094    
  10200000   147.17665      281.37229      474.34458    
  10210000   159.82154      267.73839      451.36022    
  10220000   165.8191       273.30762      460.74895    
  10230000   166.1153       275.96661      465.23155    
  10240000   171.34093      272.06199      458.64905    
  10250000   165.8218       288.55889      486.45994    
  10260000   188.63437      283.3763       477.72299    
  10270000   173.9052       272.06626      458.65624    
  10280000   177.85707      293.98028      495.59945    
  10290000   161.58686      294.4616       496.41088    
  10300000   182.14597      272.97403      460.18658    
  10310000   186.72337      254.52716      429.08839    
  10320000   187.78602      267.09529      450.27605    
  10330000   169.25204      263.77928      444.68583    
  10340000   159.95575      271.9037       458.38219    
  10350000   179.38236      291.8255       491.96687    
  10360000   178.90357      272.85686      459.98905    
  10370000   177.86199      241.65062      407.38079    
  10380000   181.89845      281.59159      474.71428    
  10390000   192.04047      296.90122      500.52365    
  10400000   191.78661      255.89741      431.39837    
  10410000   207.47505      294.76472      496.92189    
  10420000   164.75423      302.37965      509.75934    
  10430000   168.27496      239.32895      403.46686    
  10440000   156.44858      275.77725      464.91232    
  10450000   180.83165      284.47808      479.5804     
  10460000   182.12886      291.53259      491.47308    
  10470000   169.50396      295.31727      497.85339    
  10480000   190.06376      288.27549      485.98217    
  10490000   179.59999      261.85648      441.44434    
  10500000   216.78599      268.14005      452.03733    
  10510000   178.73111      300.68181      506.89706    
  10520000   179.04951      279.35875      470.9501     
  10530000   174.10925      250.94763      423.05392    
  10540000   173.41107      300.6204       506.79354    
  10550000   160.33488      280.4364       472.76684    
  10560000   161.65981      295.50705      498.17332    
  10570000   171.63382      286.44444      482.89534    
  10580000   160.46074      293.87257      495.41787    
  10590000   166.86981      290.70668      490.08073    
  10600000   164.85088      279.54482      471.2638     
  10610000   161.88086      269.84899      454.91831    
  10620000   161.52429      284.29538      479.2724     
  10630000   170.27603      265.5412       447.65612    
  10640000   165.96398      277.82883      468.37092    
  10650000   159.64561      290.30954      489.41123    
  10660000   172.56555      293.52109      494.82533    
  10670000   155.85813      297.44425      501.43911    
  10680000   183.42359      306.48431      516.67907    
  10690000   187.67268      250.10174      421.6279     
  10700000   184.94224      284.39544      479.44109    
  10710000   189.09065      277.44169      467.71827    
  10720000   179.79139      270.13582      455.40186    
  10730000   178.55389      238.79355      402.56425    
  10740000   168.06885      277.82939      468.37188    
  10750000   157.31845      299.8868       505.55683    
  10760000   207.88141      282.21939      475.77265    
  10770000   172.98895      284.20767      479.12454    
  10780000   166.48371      285.90361      481.9836     
  10790000   175.3448       285.00309      480.46548    
  10800000   179.00717      289.8683       488.66737    
  10810000   177.34532      290.61874      489.93249    
  10820000   196.30088      264.74029      446.30594    
  10830000   175.35824      261.87219      441.47082    
  10840000   161.33299      273.14759      460.47918    
  10850000   173.36248      287.44774      484.58674    
  10860000   161.2588       281.11808      473.91604    
  10870000   184.47936      260.0901       438.46652    
  10880000   175.819        274.63936      462.99405    
  10890000   178.85246      279.72474      471.5671     
  10900000   176.36372      285.35105      481.05209    
  10910000   193.15472      293.49949      494.78892    
  10920000   196.53443      279.4116       471.03921    
  10930000   176.65028      268.94693      453.3976     
  10940000   178.64813      284.17098      479.06269    
  10950000   174.70871      264.59126      446.0547     
  10960000   195.73368      279.07889      470.47831    
  10970000   173.53068      287.73855      485.07699    
  10980000   178.00747      309.69687      522.09489    
  10990000   187.33402      311.4006       524.96708    
  11000000   183.27024      292.81063      493.62764    
  11010000   159.44366      322.48893      543.66006    
  11020000   207.84491      297.06706      500.80322    
  11030000   177.15288      294.98559      497.29423    
  11040000   179.49403      270.14878      455.4237     
  11050000   169.82317      293.84138      495.36529    
  11060000   178.55357      331.35782      558.61147    
  11070000   190.75538      272.01134      458.56366    
  11080000   167.54318      295.12528      497.52972    
  11090000   194.39482      280.56647      472.98611    
  11100000   192.67606      262.94393      443.27759    
  11110000   190.78152      276.05616      465.38251    
  11120000   151.91997      298.63573      503.44774    
  11130000   184.23678      280.21076      472.38645    
  11140000   184.0429       264.96502      446.68479    
  11150000   177.73783      280.39786      472.70187    
  11160000   201.37767      278.21355      469.01951    
  11170000   199.66151      279.52382      471.22838    
  11180000   175.64258      285.97179      482.09854    
  11190000   186.2129       293.49416      494.77994    
  11200000   187.01206      279.96408      471.97058    
  11210000   174.82255      311.06312      524.39814    
  11220000   178.43842      278.24129      469.06626    
  11230000   172.75716      293.87211      495.41709    
  11240000   163.75154      246.86717      416.17498    
  11250000   144.06435      294.72669      496.85777    
  11260000   158.69853      302.29332      509.61379    
  11270000   147.05452      278.35537      469.25858    
  11280000   163.48492      290.16362      489.16523    
  11290000   150.8609       311.70115      525.47375    
  11300000   180.11316      260.73918      439.56077    
  11310000   173.40922      313.31599      528.19609    
  11320000   190.67814      291.93759      492.15584    
  11330000   175.907        286.43712      482.88301    
  11340000   154.87245      283.38551      477.73852    
  11350000   161.18216      303.28801      511.29067    
  11360000   166.97941      286.38645      482.79758    
  11370000   181.12264      294.95154      497.23684    
  11380000   166.31581      304.24041      512.89625    
  11390000   188.66744      291.20332      490.91799    
  11400000   175.7002       290.80466      490.24591    
  11410000   157.24369      315.36902      531.65714    
  11420000   166.68677      312.09862      526.14381    
  11430000   176.68624      310.67869      523.75006    
  11440000   195.55505      296.49871      499.8451     
  11450000   194.07393      285.21257      480.81863    
  11460000   182.78488      294.57492      496.60192    
  11470000   181.98254      290.54639      489.81052    
  11480000   199.13385      278.14132      468.89774    
  11490000   172.71341      289.39301      487.86613    
  11500000   179.33692      304.82263      513.87777    
  11510000   180.98345      275.17911      463.90397    
  11520000   184.33747      303.49529      511.64011    
  11530000   198.26706      277.4829       467.78775    
  11540000   186.81628      259.4527       437.39198    
  11550000   154.08833      280.0671       472.14426    
  11560000   169.54674      270.3186       455.70999    
  11570000   177.04716      285.7581       481.7383     
  11580000   171.52244      312.70591      527.1676     
  11590000   180.72787      289.08811      487.35211    
  11600000   190.86498      272.17135      458.8334     
  11610000   192.28131      293.63544      495.01812    
  11620000   190.5982       297.3355       501.25576    
  11630000   176.43424      306.13841      516.09595    
  11640000   205.14349      288.06493      485.62721    
  11650000   158.45415      289.13023      487.42313    
  11660000   165.58043      253.39231      427.17522    
  11670000   181.32085      272.07012      458.66274    
  11680000   194.30277      326.00757      549.59188    
  11690000   178.45312      303.88598      512.29874    
  11700000   193.5481       285.87465      481.93478    
  11710000   166.59974      295.21682      497.68404    
  11720000   175.98052      291.13274      490.79901    
  11730000   204.13256      260.24165      438.72201    
  11740000   182.98417      285.29216      480.9528     
  11750000   168.91833      271.91787      458.40607    
  11760000   182.17962      288.91841      487.06603    
  11770000   173.51573      283.98114      478.74265    
  11780000   187.45658      280.40766      472.71839    
  11790000   179.24459      289.67842      488.34726    
  11800000   186.71759      326.94469      551.17171    
  11810000   188.28684      286.00871      482.16078    
  11820000   179.19934      325.00672      547.90461    
  11830000   192.69617      302.55564      510.05602    
  11840000   173.8021       305.11313      514.3675     
  11850000   168.50509      293.51543      494.8158     
  11860000   160.11424      287.03789      483.8958     
  11870000   161.5328       300.93359      507.32153    
  11880000   201.64614      311.53657      525.1963     
  11890000   182.75018      303.40046      511.48023    
  11900000   191.69027      314.90279      530.87115    
  11910000   207.20644      300.09742      505.91189    
  11920000   189.7709       320.82705      540.85842    
  11930000   194.36988      306.95444      517.47163    
  11940000   180.74317      303.41296      511.5013     
  11950000   177.58541      269.89443      454.99492    
  11960000   201.25505      297.64237      501.77311    
  11970000   184.21309      324.40235      546.88576    
  11980000   182.69166      274.42819      462.63805    
  11990000   186.90801      295.52749      498.20778    
  12000000   162.22815      302.79059      510.45211    
Loop time of 774.947 on 1 procs for 8000000 steps with 200 atoms

Performance: 8919.315 ns/day, 0.003 hours/ns, 10323.281 timesteps/s, 2.065 Matom-step/s
99.3% CPU use with 1 MPI tasks x 1 OpenMP threads

MPI task timing breakdown:
Section |  min time  |  avg time  |  max time  |%varavg| %total
---------------------------------------------------------------
Pair    | 596.26     | 596.26     | 596.26     |   0.0 | 76.94
Bond    | 80.754     | 80.754     | 80.754     |   0.0 | 10.42
Neigh   | 37.978     | 37.978     | 37.978     |   0.0 |  4.90
Comm    | 24.257     | 24.257     | 24.257     |   0.0 |  3.13
Output  | 0.22224    | 0.22224    | 0.22224    |   0.0 |  0.03
Modify  | 33.736     | 33.736     | 33.736     |   0.0 |  4.35
Other   |            | 1.741      |            |       |  0.22

Nlocal:            200 ave         200 max         200 min
Histogram: 1 0 0 0 0 0 0 0 0 0
Nghost:              0 ave           0 max           0 min
Histogram: 1 0 0 0 0 0 0 0 0 0
Neighs:           1080 ave        1080 max        1080 min
Histogram: 1 0 0 0 0 0 0 0 0 0

Total # of neighbors = 1080
Ave neighs/atom = 5.4
Ave special neighs/atom = 5.94
Neighbor list builds = 25436
Dangerous builds = 0
Generated 0 of 6 mixed pair_coeff terms from geometric mixing rule
Setting up Verlet run ...
  Unit style    : real
  Current step  : 12000000
  Time step     : 10
Per MPI rank memory allocation (min/avg/max) = 19.32 | 19.32 | 19.32 Mbytes
   Step         PotEng         KinEng          Temp     
  12000000   162.22815      302.79059      510.45211    
  12010000   158.45275      272.99585      460.22337    
  12020000   191.92187      285.38482      481.10901    
  12030000   220.01545      274.63107      462.98007    
  12040000   199.83028      273.80268      461.58354    
  12050000   177.525        272.09648      458.70719    
  12060000   173.47757      293.83649      495.35706    
  12070000   199.38828      287.61973      484.87668    
  12080000   218.39678      274.93342      463.48977    
  12090000   184.19906      287.76741      485.12564    
  12100000   184.91909      315.62924      532.09583    
  12110000   187.95898      294.40631      496.31767    
  12120000   185.8404       292.45254      493.02396    
  12130000   206.17738      304.28999      512.97982    
  12140000   184.87626      290.6227       489.93917    
  12150000   183.69918      290.29617      489.3887     
  12160000   189.26315      294.84876      497.06356    
  12170000   188.5794       306.21247      516.22079    
  12180000   176.36496      306.34205      516.43925    
  12190000   207.91136      321.51259      542.01413    
  12200000   182.78562      305.71633      515.38439    
  12210000   172.1477       296.09774      499.16912    
  12220000   164.00543      300.23295      506.14036    
  12230000   167.49582      301.56586      508.38742    
  12240000   174.91879      298.72626      503.60034    
  12250000   204.82789      297.68996      501.85333    
  12260000   154.29623      318.85546      537.53467    
  12270000   182.73359      286.75427      483.41767    
  12280000   161.20849      273.91968      461.78078    
  12290000   202.73843      284.53667      479.67918    
  12300000   192.28072      286.69837      483.32343    
  12310000   187.64049      296.84114      500.42236    
  12320000   202.34843      260.20307      438.65698    
  12330000   178.36078      321.62049      542.19603    
  12340000   178.80163      307.92985      519.116      
  12350000   189.86505      319.63312      538.84567    
  12360000   182.46414      288.65004      486.61361    
  12370000   165.18077      315.20083      531.3736     
  12380000   188.17352      277.36501      467.58901    
  12390000   181.61057      276.93093      466.85723    
  12400000   199.75053      294.85871      497.08034    
  12410000   188.7978       299.08731      504.20902    
  12420000   192.62626      289.85069      488.63768    
  12430000   185.02074      291.52299      491.4569     
  12440000   193.61697      284.33372      479.33704    
  12450000   187.7455       303.11882      511.00545    
  12460000   213.66037      297.99417      502.36617    
  12470000   196.99394      295.41158      498.01237    
  12480000   177.4106       297.71835      501.90118    
  12490000   184.81799      324.04347      546.28074    
  12500000   183.56304      334.48945      563.89084    
  12510000   188.62181      295.0138       497.34179    
  12520000   197.10109      306.42728      516.58292    
  12530000   196.94265      288.43811      486.25632    
  12540000   206.25605      299.16826      504.34549    
  12550000   211.80074      311.59774      525.29942    
  12560000   201.70192      244.44712      412.09519    
  12570000   187.01788      272.9665       460.17389    
  12580000   196.28459      313.44796      528.41856    
  12590000   183.48219      309.93348      522.49377    
  12600000   168.7981       327.55489      552.2004     
  12610000   162.98877      290.34181      489.46564    
  12620000   199.69328      311.38134      524.9346     
  12630000   190.18253      332.05142      559.78076    
  12640000   195.30448      282.17892      475.70441    
  12650000   184.13804      285.92031      482.01175    
  12660000   186.56439      288.70553      486.70715    
  12670000   189.29146      277.25778      467.40823    
  12680000   195.64651      311.22589      524.67254    
  12690000   182.65051      270.71635      456.38054    
  12700000   185.21565      307.02378      517.58853    
  12710000   195.59748      281.50511      474.56849    
  12720000   184.45107      288.26253      485.96032    
  12730000   205.16699      294.62042      496.67862    
  12740000   206.00131      320.73927      540.71044    
  12750000   178.80267      331.54412      558.92554    
  12760000   205.95105      319.67783      538.92104    
  12770000   203.24608      320.41582      540.16516    
  12780000   189.4136       293.96374      495.57157    
  12790000   190.16825      319.51964      538.65435    
  12800000   215.84224      305.42792      514.89817    
  12810000   178.71413      327.89873      552.78005    
  12820000   195.64099      325.25833      548.32879    
  12830000   199.33054      316.58603      533.7088     
  12840000   180.69519      269.40913      454.17679    
  12850000   185.39929      292.74164      493.51133    
  12860000   186.89554      320.4871       540.28534    
  12870000   189.14817      315.42179      531.7461     
  12880000   169.81644      321.03132      541.20279    
  12890000   206.66026      292.22149      492.63444    
  12900000   188.62792      302.12398      509.32831    
  12910000   212.04424      296.75434      500.27603    
  12920000   195.91243      302.78659      510.44536    
  12930000   183.74561      300.68986      506.91064    
  12940000   184.38258      286.30143      482.65425    
  12950000   208.7805       302.25942      509.55664    
  12960000   177.25734      342.43855      577.29164    
  12970000   195.56681      291.37607      491.20921    
  12980000   191.38151      286.89424      483.65363    
  12990000   210.34374      304.88684      513.98602    
  13000000   180.88963      324.92067      547.75955    
  13010000   187.61328      299.10601      504.24055    
  13020000   192.9001       287.36431      484.44609    
  13030000   199.76383      299.62514      505.11571    
  13040000   172.82907      251.34003      423.71543    
  13050000   164.59889      271.9764       458.50476    
  13060000   172.41584      283.70579      478.27846    
[...]
 404740000  -73.472117      184.84847      311.62226    
 404750000  -80.721743      174.75477      294.60605    
 404760000  -78.052468      181.65748      306.24281    
 404770000  -73.199194      177.36865      299.0126     
 404780000  -70.979901      188.87751      318.41453    
 404790000  -73.262641      194.55734      327.98972    
 404800000  -79.036236      178.18833      300.39443    
 404810000  -61.874449      169.97992      286.55648    
 404820000  -43.38396       188.00615      316.94556    
 404830000  -65.051668      165.60382      279.17915    
 404840000  -72.289615      182.95188      308.42494    
 404850000  -71.865808      188.66356      318.05384    
 404860000  -89.578026      179.1117       301.95107    
 404870000  -73.442087      166.74441      281.10198    
 404880000  -75.231367      173.12545      291.8593     
 404890000  -84.95677       183.53682      309.41105    
 404900000  -66.856758      173.16908      291.93286    
 404910000  -81.604281      179.94027      303.34789    
 404920000  -64.533875      162.21297      273.46276    
 404930000  -55.682423      183.84629      309.93276    
 404940000  -79.730198      180.60522      304.46889    
 404950000  -77.821306      181.47198      305.93009    
 404960000  -90.170132      167.09003      281.68464    
 404970000  -97.906988      170.71603      287.79744    
 404980000  -80.748072      184.9772       311.83929    
 404990000  -63.362109      175.26462      295.46558    
 405000000  -90.244157      170.43634      287.32593    
 405010000  -87.09814       180.20817      303.79954    
 405020000  -84.792236      176.03281      296.7606     
 405030000  -94.930508      174.39398      293.99782    
 405040000  -83.131057      167.39396      282.19701    
 405050000  -94.346253      160.05532      269.82533    
 405060000  -87.224229      176.96181      298.32674    
 405070000  -61.14399       172.90298      291.48425    
 405080000  -55.394238      167.66966      282.66179    
 405090000  -61.051512      167.92938      283.09964    
 405100000  -57.592708      191.96334      323.6167     
 405110000  -38.373246      168.69147      284.38438    
 405120000  -90.156692      185.91938      313.42763    
 405130000  -103.25159      172.06999      290.07997    
 405140000  -108.08898      168.63598      284.29083    
 405150000  -89.019687      175.51861      295.89375    
 405160000  -75.948458      182.99917      308.50468    
 405170000  -72.465499      171.54455      289.19417    
 405180000  -70.344142      161.3152       271.94929    
 405190000  -58.978047      173.85906      293.09603    
 405200000  -59.398669      170.88071      288.07506    
 405210000  -54.442446      164.86336      277.93087    
 405220000  -75.796199      176.30837      297.22515    
 405230000  -67.711361      189.88888      320.11952    
 405240000  -56.070161      182.84633      308.247      
 405250000  -69.828643      183.76003      309.78735    
 405260000  -81.873845      175.01206      295.03979    
 405270000  -69.288278      182.17439      307.11423    
 405280000  -78.789406      182.31492      307.35114    
 405290000  -74.518822      185.82324      313.26557    
 405300000  -74.135134      174.08807      293.48212    
 405310000  -74.842915      178.87396      301.55028    
 405320000  -69.003118      167.21638      281.89764    
 405330000  -73.340592      180.8353       304.85677    
 405340000  -69.527064      197.05086      332.19337    
 405350000  -67.286192      184.31952      310.73055    
 405360000  -68.870408      180.96057      305.06795    
 405370000  -101.88162      168.10882      283.40214    
 405380000  -94.580484      167.27725      282.00026    
 405390000  -113.73006      174.14096      293.57128    
 405400000  -97.81491       173.50888      292.5057     
 405410000  -72.302913      182.6231       307.87068    
 405420000  -102.50928      178.23189      300.46786    
 405430000  -87.793917      185.7896       313.20884    
 405440000  -104.94294      167.35361      282.12898    
 405450000  -106.05481      164.56664      277.43063    
 405460000  -97.898506      182.7556       308.09406    
 405470000  -90.723961      181.27431      305.59686    
 405480000  -98.913002      171.84421      289.69935    
 405490000  -94.781513      187.14339      315.4911     
 405500000  -83.877387      191.63566      323.06429    
 405510000  -54.674337      161.87482      272.8927     
 405520000  -76.700997      176.96385      298.33017    
 405530000  -76.802666      166.34698      280.43198    
 405540000  -64.449794      172.83427      291.36842    
 405550000  -60.460774      168.73089      284.45084    
 405560000  -62.544244      181.45962      305.90926    
 405570000  -62.69898       179.48117      302.57394    
 405580000  -75.578096      198.91169      335.33041    
 405590000  -60.349335      174.52042      294.21097    
 405600000  -69.628138      192.71158      324.8781     
 405610000  -66.794434      185.60478      312.89728    
 405620000  -83.642175      186.20747      313.9133     
 405630000  -38.526794      165.6239       279.213      
 405640000  -61.704725      185.7975       313.22216    
 405650000  -83.342673      187.11749      315.44744    
 405660000  -93.937002      193.53588      326.26773    
 405670000  -82.830208      171.04626      288.35415    
 405680000  -87.564399      175.1318       295.24166    
 405690000  -77.528595      189.33848      319.19165    
 405700000  -67.021007      173.51583      292.51741    
 405710000  -59.899482      173.01728      291.67695    
 405720000  -58.633399      184.15004      310.44484    
 405730000  -68.777913      175.99786      296.70169    
 405740000  -52.790975      172.52811      290.85229    
 405750000  -70.072223      169.54076      285.81613    
 405760000  -67.753796      171.19406      288.60332    
 405770000  -66.431544      184.38821      310.84636    
 405780000  -63.985183      176.20654      297.05349    
 405790000  -83.367112      188.28906      317.42249    
 405800000  -47.489919      161.49389      272.25051    
 405810000  -82.386811      172.82237      291.34835    
 405820000  -58.618558      181.12442      305.34418    
 405830000  -59.283719      191.52667      322.88054    
 405840000  -38.719686      170.073        286.71341    
 405850000  -92.781684      185.94864      313.47696    
 405860000  -75.708044      184.69148      311.3576     
 405870000  -77.212054      164.49986      277.31806    
 405880000  -75.96955       181.08891      305.28431    
 405890000  -64.67596       183.7845       309.82861    
 405900000  -82.29927       194.39333      327.71324    
 405910000  -54.831561      181.27568      305.59916    
 405920000  -69.41203       181.60054      306.14683    
 405930000  -48.851737      168.24239      283.62732    
 405940000  -72.212639      187.30478      315.76317    
 405950000  -92.264724      185.44808      312.6331     
 405960000  -90.338134      182.61568      307.85816    
 405970000  -86.456692      167.91685      283.07851    
 405980000  -90.396223      174.60224      294.34891    
 405990000  -63.97642       163.54717      275.71199    
 406000000  -97.632759      168.54404      284.13584    
 406010000  -74.042452      177.49694      299.22887    
 406020000  -77.343587      164.64551      277.5636     
 406030000  -83.718417      183.41244      309.20138    
 406040000  -66.222627      172.91177      291.49907    
 406050000  -78.9382        167.12848      281.74945    
 406060000  -89.838692      155.95937      262.92028    
 406070000  -63.835197      178.69437      301.24753    
 406080000  -73.652944      173.07138      291.76814    
 406090000  -60.205027      177.54288      299.30631    
 406100000  -52.062887      182.67179      307.95277    
 406110000  -74.42327       160.44386      270.48035    
 406120000  -79.034615      157.74834      265.93617    
 406130000  -63.033871      168.94717      284.81546    
 406140000  -73.566972      170.45171      287.35184    
 406150000  -78.438048      177.64356      299.47605    
 406160000  -70.572043      170.32879      287.14462    
 406170000  -44.728094      166.22908      280.23322    
 406180000  -51.015822      187.41722      315.95273    
 406190000  -40.29423       192.96514      325.30556    
 406200000  -60.922566      189.74899      319.88369    
 406210000  -56.788374      193.41373      326.06179    
 406220000  -58.866616      178.37588      300.71061    
 406230000  -87.549669      189.08492      318.76419    
 406240000  -70.185985      198.33887      334.36472    
 406250000  -73.196636      178.81221      301.44618    
 406260000  -64.337924      185.15797      312.14403    
 406270000  -61.973313      158.94352      267.95104    
 406280000  -85.79386       179.64884      302.8566     
 406290000  -76.463674      168.52346      284.10115    
 406300000  -69.00768       174.36692      293.95221    
 406310000  -83.120228      187.8469       316.6771     
 406320000  -71.106126      175.76252      296.30494    
 406330000  -66.388133      186.54117      314.47586    
 406340000  -67.149716      181.48801      305.95712    
 406350000  -103.82451      171.1978       288.60961    
 406360000  -79.118392      177.14989      298.6438     
 406370000  -76.756497      171.01546      288.30223    
 406380000  -84.698673      188.56449      317.88682    
 406390000  -70.427073      165.70623      279.3518     
 406400000  -79.004958      169.9984       286.58765    
 406410000  -68.832946      179.09072      301.91571    
 406420000  -80.873467      165.73833      279.4059     
 406430000  -66.866953      165.72999      279.39185    
 406440000  -88.90643       155.76189      262.58737    
 406450000  -65.723287      152.97358      257.88676    
 406460000  -77.902151      167.57945      282.50972    
 406470000  -77.927464      163.90924      276.32239    
 406480000  -88.994309      166.95367      281.45476    
 406490000  -101.75603      170.12763      286.8055     
 406500000  -81.655967      172.0314       290.01492    
 406510000  -76.483925      176.3042       297.21811    
 406520000  -71.95664       176.13753      296.93714    
 406530000  -81.145374      184.25414      310.62032    
 406540000  -59.471208      178.09473      300.23664    
 406550000  -71.140666      182.91319      308.35973    
 406560000  -54.235515      170.87449      288.06458    
 406570000  -91.452819      172.21217      290.31967    
 406580000  -77.017858      167.66442      282.65296    
 406590000  -61.935872      159.85269      269.48374    
 406600000  -65.244781      163.84026      276.20609    
 406610000  -49.002114      174.063        293.43984    
 406620000  -61.713785      183.14424      308.74922    
 406630000  -70.454215      172.84646      291.38897    
 406640000  -56.408781      175.74747      296.27956    
 406650000  -45.144245      163.01125      274.80852    
 406660000  -37.224343      184.83903      311.60635    
 406670000  -26.959387      191.84281      323.41351    
 406680000  -37.460775      195.3104       329.25925    
 406690000  -49.124328      188.20809      317.28601    
 406700000  -68.969258      175.50863      295.87692    
 406710000  -80.114732      172.08825      290.11076    
 406720000  -83.361583      198.57398      334.76109    
 406730000  -71.056685      183.08198      308.64428    
 406740000  -71.835044      168.49257      284.04908    
 406750000  -69.650105      162.1339       273.32947    
 406760000  -99.450153      179.30398      302.27522    
 406770000  -89.363717      176.76056      297.98746    
 406780000  -96.172263      178.81849      301.45677    
 406790000  -107.89485      176.08258      296.8445     
 406800000  -76.09195       169.80833      286.26721    
 406810000  -90.789066      183.77122      309.80621    
 406820000  -62.009351      168.65652      284.32547    
 406830000  -64.702502      186.48238      314.37676    
 406840000  -63.144584      157.2835       265.15253    
 406850000  -78.668615      174.04947      293.41703    
 406860000  -78.895859      174.23894      293.73644    
 406870000  -78.425916      190.46905      321.09759    
 406880000  -67.63074       178.46761      300.86524    
 406890000  -78.602226      158.42008      267.0686     
 406900000  -67.259561      176.51603      297.57522    
 406910000  -50.739101      178.44612      300.82903    
 406920000  -52.637492      187.48446      316.06609    
 406930000  -89.694997      190.87143      321.77593    
 406940000  -69.740243      161.13496      271.64543    
 406950000  -85.273122      177.01721      298.42012    
 406960000  -105.50985      166.58657      280.83588    
 406970000  -108.50791      179.52419      302.64646    
 406980000  -87.355953      169.72742      286.13081    
 406990000  -92.169837      175.34394      295.5993     
 407000000  -112.2117       171.04192      288.34683    
 407010000  -115.43262      176.61289      297.73851    
 407020000  -122.04967      173.21457      292.00954    
 407030000  -92.694201      177.42779      299.11229    
 407040000  -110.00479      177.53216      299.28824    
 407050000  -87.829194      155.97324      262.94367    
 407060000  -61.64216       184.2585       310.62769    
 407070000  -79.944841      188.56675      317.89064    
 407080000  -65.354215      177.39187      299.05174    
 407090000  -53.721642      187.77777      316.56056    
 407100000  -49.035845      177.77914      299.7046     
 407110000  -53.731381      181.33204      305.69417    
 407120000  -46.883578      186.38398      314.21087    
 407130000  -72.206284      182.25093      307.24327    
 407140000  -49.316799      167.6874       282.6917     
 407150000  -89.582718      182.54364      307.73672    
 407160000  -65.753817      174.10219      293.50591    
 407170000  -61.531861      164.63042      277.53817    
 407180000  -79.662243      173.95861      293.26386    
 407190000  -72.53539       181.57082      306.09673    
 407200000  -78.795279      166.56602      280.80125    
 407210000  -62.560566      173.01481      291.67278    
 407220000  -72.77697       170.30281      287.10082    
 407230000  -56.707526      169.85519      286.34622    
 407240000  -75.792971      187.54888      316.17468    
 407250000  -75.359529      187.04525      315.32565    
 407260000  -59.369141      179.55965      302.70624    
 407270000  -73.750264      165.99618      279.8406     
 407280000  -58.35911       173.12797      291.86355    
 407290000  -69.242275      178.91735      301.62343    
 407300000  -78.388659      172.10355      290.13655    
 407310000  -79.50103       172.10024      290.13097    
 407320000  -76.654866      169.96665      286.53412    
 407330000  -60.896009      177.17597      298.68777    
 407340000  -73.267064      180.56265      304.39713    
 407350000  -70.232051      187.35715      315.85146    
 407360000  -57.227547      170.68424      287.74384    
 407370000  -69.201181      162.53532      274.00619    
 407380000  -94.582101      183.81456      309.87928    
 407390000  -82.388864      184.06241      310.2971     
 407400000  -87.839278      199.27311      335.9397     
 407410000  -65.000649      176.06592      296.81642    
 407420000  -72.044769      193.76072      326.64676    
 407430000  -69.072473      187.14243      315.48948    
 407440000  -55.779102      172.14651      290.20898    
 407450000  -81.448867      174.74956      294.59726    
 407460000  -78.415076      183.90433      310.03061    
 407470000  -78.528238      180.72317      304.66773    
 407480000  -62.46181       199.89614      336.99002    
 407490000  -68.824322      178.1214       300.2816     
 407500000  -75.055686      172.41359      290.65922    
 407510000  -75.018574      154.2123       259.97503    
 407520000  -91.371425      166.71829      281.05795    
 407530000  -96.7072        167.0603       281.63451    
 407540000  -66.137887      171.10683      288.45626    
 407550000  -73.701235      188.5297       317.82818    
 407560000  -69.921239      176.40131      297.38182    
 407570000  -79.764918      178.49266      300.90747    
 407580000  -62.449877      161.16725      271.69986    
 407590000  -80.948716      188.03672      316.99709    
 407600000  -71.401363      171.94746      289.87342    
 407610000  -56.325339      159.77477      269.35238    
 407620000  -38.186376      179.91125      303.29898    
 407630000  -29.197811      178.23849      300.47899    
 407640000  -46.726454      191.68119      323.14104    
 407650000  -64.420477      190.99343      321.98159    
 407660000  -51.133378      174.83332      294.73847    
 407670000  -82.635911      185.64065      312.95775    
 407680000  -47.117322      170.33277      287.15133    
 407690000  -35.861969      176.03463      296.76367    
 407700000  -62.727367      185.44191      312.62271    
 407710000  -80.586658      204.97066      345.54476    
 407720000  -55.142227      188.86279      318.38971    
 407730000  -60.722912      168.50852      284.07596    
 407740000  -71.047551      183.20436      308.85058    
 407750000  -58.088822      186.53627      314.4676     
 407760000  -56.293123      185.59162      312.87508    
 407770000  -73.744692      171.35298      288.87123    
 407780000  -53.041738      190.30127      320.81473    
 407790000  -55.141804      186.0029       313.56844    
 407800000  -40.925085      181.21647      305.49935    
 407810000  -58.360552      169.40304      285.58397    
 407820000  -59.164031      174.98714      294.99779    
 407830000  -63.176884      177.48433      299.20762    
 407840000  -48.244508      190.34176      320.88299    
 407850000  -56.651864      190.26321      320.75057    
 407860000  -47.217615      180.23762      303.84917    
 407870000  -71.13883       175.23073      295.40844    
 407880000  -60.326482      192.77024      324.97699    
 407890000  -56.875267      173.16567      291.92711    
 407900000  -60.222436      180.76443      304.73728    
 407910000  -54.464409      173.71668      292.85601    
 407920000  -72.191293      191.35931      322.5984     
 407930000  -76.02616       197.05519      332.20067    
 407940000  -51.60744       182.64751      307.91183    
 407950000  -65.360059      190.71024      321.50418    
 407960000  -48.501918      172.50373      290.81119    
 407970000  -49.067915      163.37368      275.41951    
 407980000  -66.716252      175.93117      296.58925    
 407990000  -72.615136      156.42627      263.70739    
 408000000  -78.092257      188.48527      317.75328    
Loop time of 733.951 on 1 procs for 4000000 steps with 200 atoms

Performance: 4708.761 ns/day, 0.005 hours/ns, 5449.955 timesteps/s, 1.090 Matom-step/s
99.2% CPU use with 1 MPI tasks x 1 OpenMP threads

MPI task timing breakdown:
Section |  min time  |  avg time  |  max time  |%varavg| %total
---------------------------------------------------------------
Pair    | 647.93     | 647.93     | 647.93     |   0.0 | 88.28
Bond    | 41.586     | 41.586     | 41.586     |   0.0 |  5.67
Neigh   | 13.425     | 13.425     | 13.425     |   0.0 |  1.83
Comm    | 12.739     | 12.739     | 12.739     |   0.0 |  1.74
Output  | 0.13385    | 0.13385    | 0.13385    |   0.0 |  0.02
Modify  | 16.764     | 16.764     | 16.764     |   0.0 |  2.28
Other   |            | 1.377      |            |       |  0.19

Nlocal:            200 ave         200 max         200 min
Histogram: 1 0 0 0 0 0 0 0 0 0
Nghost:              0 ave           0 max           0 min
Histogram: 1 0 0 0 0 0 0 0 0 0
Neighs:           2011 ave        2011 max        2011 min
Histogram: 1 0 0 0 0 0 0 0 0 0

Total # of neighbors = 2011
Ave neighs/atom = 10.055
Ave special neighs/atom = 5.94
Neighbor list builds = 9255
Dangerous builds = 0
System init for write_data ...
Generated 0 of 6 mixed pair_coeff terms from geometric mixing rule
Total wall time: 12:48:07
