LAMMPS (29 Aug 2024)
  using 1 OpenMP thread(s) per MPI task
  using 1 OpenMP thread(s) per MPI task
Reading data file ...
  orthogonal box = (-1000.6 -1000.6 -1800.6) to (1000.6 1000.6 1000.6)
  1 by 1 by 1 MPI processor grid
  reading atoms ...
  200 atoms
  scanning bonds ...
  1 = max bonds/atom
  scanning angles ...
  1 = max angles/atom
  orthogonal box = (-1000.6 -1000.6 -1800.6) to (1000.6 1000.6 1000.6)
  1 by 1 by 1 MPI processor grid
  reading bonds ...
  199 bonds
  reading angles ...
  198 angles
Finding 1-2 1-3 1-4 neighbors ...
  special bond factors lj:    0        0        0       
  special bond factors coul:  0        0        0       
     2 = max # of 1-2 neighbors
     2 = max # of 1-3 neighbors
     4 = max # of 1-4 neighbors
     6 = max # of special neighbors
  special bonds CPU = 0.000 seconds
  read_data CPU = 0.025 seconds
Finding 1-2 1-3 1-4 neighbors ...
  special bond factors lj:    0        0        1       
  special bond factors coul:  0        0        0       
     2 = max # of 1-2 neighbors
     2 = max # of 1-3 neighbors
     4 = max # of 1-4 neighbors
     6 = max # of special neighbors
  special bonds CPU = 0.000 seconds

CITE-CITE-CITE-CITE-CITE-CITE-CITE-CITE-CITE-CITE-CITE-CITE-CITE

Your simulation uses code contributions which should be cited:
- Type Label Framework: https://doi.org/10.1021/acs.jpcb.3c08419
The log file lists these citations in BibTeX format.

CITE-CITE-CITE-CITE-CITE-CITE-CITE-CITE-CITE-CITE-CITE-CITE-CITE

Generated 0 of 6 mixed pair_coeff terms from geometric mixing rule
Neighbor list info ...
  update: every = 10 steps, delay = 0 steps, check = yes
  max neighbors/atom: 2000, page size: 100000
  master list distance cutoff = 33
  ghost atom cutoff = 33
  binsize = 16.5, bins = 122 122 170
  2 neighbor lists, perpetual/occasional/extra = 2 0 0
  (1) pair lj/cut, perpetual, trim from (2)
      attributes: half, newton on, cut 25
      pair build: trim
      stencil: none
      bin: none
  (2) pair base/rna, perpetual
      attributes: half, newton on
      pair build: half/bin/newton
      stencil: half/bin/3d
      bin: standard
Setting up Verlet run ...
  Unit style    : real
  Current step  : 0
  Time step     : 10
Per MPI rank memory allocation (min/avg/max) = 18.05 | 18.05 | 18.05 Mbytes
   Step         PotEng         KinEng          Temp     
         0   271.41412      0              0            
     10000   93.984783      187.84527      316.67434    
     20000   127.35626      168.63542      284.2899     
     30000   109.52609      176.79184      298.0402     
     40000   116.24145      160.60321      270.74899    
     50000   105.76295      180.67707      304.59002    
     60000   91.641154      198.27057      334.24958    
     70000   108.44589      168.55828      284.15986    
     80000   112.50998      166.9063       281.3749     
     90000   120.31753      180.72477      304.67042    
    100000   94.563042      206.91347      348.82       
    110000   95.152093      190.36916      320.92919    
    120000   78.895601      163.50473      275.64044    
    130000   78.366727      188.79806      318.28059    
    140000   74.038797      183.82271      309.89301    
    150000   66.398658      194.93006      328.61807    
    160000   72.611817      185.22856      312.26304    
    170000   93.236445      167.59609      282.53777    
    180000   59.799616      163.1038       274.96455    
    190000   63.914129      169.65818      286.0141     
    200000   63.214434      172.34442      290.54262    
    210000   62.139388      169.89269      286.40943    
    220000   42.912803      183.66189      309.62189    
    230000   38.655756      183.84205      309.92562    
    240000   50.58332       184.14448      310.43546    
    250000   42.908672      165.8514       279.59652    
    260000   36.318844      179.92453      303.32136    
    270000   32.659353      170.40138      287.267      
    280000   25.827081      175.55811      295.96034    
    290000   20.413031      167.92909      283.09915    
    300000   34.023017      175.07278      295.14217    
    310000   26.186924      173.24895      292.0675     
    320000   22.20623       178.49905      300.91826    
    330000  -11.15186       183.53155      309.40216    
    340000  -15.017404      187.37653      315.88414    
    350000  -15.785232      180.05633      303.54356    
    360000  -40.780816      192.66286      324.79597    
    370000  -64.953088      191.26206      322.43446    
    380000  -53.494336      172.40645      290.64719    
    390000  -41.694821      167.99131      283.20404    
    400000  -17.975182      161.17216      271.70815    
    410000  -43.939805      182.87176      308.28988    
    420000  -39.86045       176.28712      297.18932    
    430000  -41.135917      161.94323      273.00803    
    440000  -29.170755      165.61702      279.2014     
    450000  -30.820051      180.53098      304.34374    
    460000  -18.555981      178.17163      300.36628    
    470000  -15.874745      187.12793      315.46504    
    480000  -29.991543      181.77827      306.44644    
    490000  -29.346854      167.02913      281.58197    
    500000  -56.132971      174.31047      293.85703    
    510000  -43.923714      185.97376      313.51931    
    520000  -32.359722      175.88401      296.50975    
    530000  -28.503161      182.27997      307.29222    
    540000  -54.547304      191.27083      322.44924    
    550000  -57.502951      178.44702      300.83054    
    560000  -86.625271      186.11307      313.75417    
    570000  -58.875186      161.63755      272.4927     
    580000  -47.49727       193.48289      326.17838    
    590000  -33.799991      176.84033      298.12194    
    600000  -46.792468      180.82951      304.847      
    610000  -66.586266      179.48088      302.57345    
    620000  -48.479645      189.86474      320.07882    
    630000  -40.336913      182.51105      307.68178    
    640000  -26.123379      188.30704      317.45281    
    650000  -23.812408      197.98282      333.76448    
    660000  -25.207745      184.73086      311.42399    
    670000  -30.806156      170.61427      287.62589    
    680000  -16.766912      163.66715      275.91426    
    690000  -18.053079      163.36075      275.39772    
    700000  -37.368197      168.85734      284.66402    
    710000  -40.654643      168.89338      284.72478    
    720000  -27.240131      164.75936      277.75554    
    730000  -4.8996659      180.47344      304.24673    
    740000  -34.442407      181.12192      305.33996    
    750000  -31.848881      181.49168      305.96331    
    760000  -31.02398       183.02225      308.54358    
    770000   1.4649164      161.36966      272.04109    
    780000  -34.573204      162.21674      273.46911    
    790000  -31.553039      181.82128      306.51894    
    800000  -42.881901      165.17387      278.45432    
    810000  -43.601918      171.2552       288.70639    
    820000  -59.221278      178.85639      301.52066    
    830000  -41.846358      171.76186      289.56053    
    840000  -54.444548      168.51395      284.08512    
    850000  -44.304105      161.53578      272.32114    
    860000  -41.610296      180.43545      304.18268    
    870000  -48.145947      162.96353      274.72808    
    880000  -43.173353      171.32707      288.82754    
    890000  -14.673502      177.22552      298.7713     
    900000  -58.762475      186.67725      314.70527    
    910000  -59.107107      175.63105      296.0833     
    920000  -53.982785      179.17571      302.05898    
    930000  -61.730908      186.26356      314.00787    
    940000  -62.898835      183.38766      309.1596     
    950000  -57.100969      165.72626      279.38556    
    960000  -52.139368      183.80897      309.86986    
    970000  -75.491692      172.81484      291.33567    
    980000  -64.212659      177.85029      299.82456    
    990000  -46.471275      175.55321      295.95207    
   1000000  -24.569744      180.59709      304.45519    
   1010000  -56.249414      193.75401      326.63545    
   1020000  -47.211174      171.02344      288.31567    
   1030000  -35.516725      173.92002      293.19881    
   1040000  -6.3437937      172.91698      291.50786    
   1050000  -19.690054      175.64114      296.10032    
   1060000  -31.780863      187.51305      316.11428    
   1070000  -54.790283      180.83731      304.86015    
   1080000  -47.306194      163.55578      275.72651    
   1090000  -49.787729      164.84691      277.90313    
   1100000  -40.208568      169.21192      285.26177    
   1110000  -32.010136      177.73991      299.63847    
   1120000  -19.35033       177.56278      299.33986    
   1130000  -36.737717      174.52884      294.22516    
   1140000  -35.061082      172.27847      290.43144    
   1150000  -39.043792      167.00581      281.54266    
   1160000  -56.031274      182.27119      307.27742    
   1170000  -61.243937      186.40371      314.24412    
   1180000  -43.765428      191.76487      323.28211    
   1190000  -40.464143      182.03245      306.87494    
   1200000  -51.265973      163.99215      276.46216    
   1210000  -71.955772      174.55163      294.26359    
   1220000  -78.156283      155.62956      262.36428    
   1230000  -78.692418      184.13222      310.4148     
   1240000  -50.328608      168.54827      284.14297    
   1250000  -42.883522      180.1101       303.6342     
   1260000  -34.799884      181.23471      305.53009    
   1270000  -37.443588      175.64379      296.10478    
   1280000  -62.961957      166.40652      280.53235    
   1290000  -74.242189      181.05174      305.22164    
   1300000  -66.508482      164.17058      276.76295    
   1310000  -48.213809      177.55258      299.32267    
   1320000  -37.763211      169.9674       286.53537    
   1330000  -41.942132      167.76893      282.82914    
   1340000  -20.997808      169.38566      285.55467    
   1350000  -65.906917      162.24803      273.52188    
   1360000  -71.357842      178.96896      301.71043    
   1370000  -46.334802      172.1885       290.27977    
   1380000  -29.177515      176.61235      297.7376     
   1390000  -30.32175       190.13116      320.52796    
   1400000  -44.940977      194.88839      328.54783    
   1410000  -30.620556      183.96144      310.12689    
   1420000  -18.12982       164.15723      276.74044    
   1430000  -15.617658      168.81865      284.59878    
   1440000  -10.719498      184.6654       311.31364    
   1450000  -2.1080246      194.45547      327.81799    
   1460000  -18.81645       183.31234      309.03262    
   1470000  -23.509489      181.67561      306.27337    
   1480000  -35.701906      186.75621      314.83838    
   1490000  -38.639301      197.9879       333.77305    
   1500000  -40.218506      179.31187      302.28852    
   1510000  -11.983983      171.42678      288.99563    
   1520000  -14.655399      182.40167      307.49739    
   1530000  -18.911035      189.85046      320.05475    
   1540000  -27.677193      178.11128      300.26454    
   1550000  -6.3055367      186.17687      313.86171    
   1560000  -30.183915      193.9969       327.04492    
   1570000  -24.504706      174.59709      294.34023    
   1580000  -14.647579      173.08401      291.78944    
   1590000  -38.071268      167.19438      281.86055    
   1600000  -24.607403      184.15791      310.4581     
   1610000  -46.86334       172.75005      291.22645    
   1620000  -46.726441      165.27836      278.63047    
   1630000  -54.256694      168.0002       283.21903    
   1640000  -66.405731      171.66925      289.40441    
   1650000  -64.481571      171.8217       289.66141    
   1660000  -60.409298      159.52846      268.93715    
   1670000  -71.758928      179.625        302.81642    
   1680000  -53.150738      188.56831      317.89327    
   1690000  -66.227008      175.03387      295.07656    
   1700000  -53.818882      178.80438      301.43298    
   1710000  -59.100329      181.45033      305.89359    
   1720000  -52.970348      194.15315      327.30833    
   1730000  -50.292301      174.53906      294.2424     
   1740000  -37.373606      173.10229      291.82026    
   1750000  -26.791244      183.43931      309.24668    
   1760000  -26.767861      178.16132      300.34889    
   1770000  -38.579636      160.8397       271.14767    
   1780000  -65.047622      174.3594       293.93953    
   1790000  -76.022301      175.99535      296.69745    
   1800000  -66.10969       171.12603      288.48862    
   1810000  -53.185336      180.45554      304.21655    
   1820000  -54.326311      175.27335      295.48029    
   1830000  -71.95077       173.26391      292.09273    
   1840000  -64.735667      167.90435      283.05744    
   1850000  -75.816489      190.60645      321.32922    
   1860000  -65.35245       183.01125      308.52503    
   1870000  -56.094031      168.58219      284.20015    
   1880000  -50.651435      174.12975      293.55237    
   1890000  -66.372663      180.25829      303.88403    
   1900000  -35.666487      177.59014      299.38599    
   1910000  -38.521103      191.08317      322.13288    
   1920000  -65.330506      161.35355      272.01392    
   1930000  -69.037143      159.07144      268.16669    
   1940000  -78.979924      169.08381      285.0458     
   1950000  -97.040842      161.9127       272.95656    
   1960000  -75.25338       173.71717      292.85684    
   1970000  -53.376788      163.74557      276.04646    
   1980000  -68.492609      196.7801       331.73691    
   1990000  -61.562733      182.23034      307.20856    
   2000000  -43.894278      158.65285      267.46102    
   2010000  -59.930158      180.73197      304.68256    
   2020000  -27.766828      173.24895      292.0675     
   2030000  -41.231671      172.68889      291.12333    
   2040000  -67.374488      178.9856       301.7385     
   2050000  -58.287508      169.36565      285.52093    
   2060000  -50.249829      174.73644      294.57515    
   2070000  -53.724704      189.45023      319.38003    
   2080000  -57.22281       162.59462      274.10615    
   2090000  -48.075574      167.46343      282.31413    
   2100000  -57.713151      173.48355      292.463      
   2110000  -63.397432      196.60782      331.44648    
   2120000  -48.599861      183.17362      308.79876    
   2130000  -59.739351      173.07002      291.76586    
   2140000  -72.666629      169.80823      286.26705    
   2150000  -76.621151      165.5464       279.08235    
   2160000  -64.160958      180.49898      304.28979    
   2170000  -81.467685      170.27944      287.06142    
   2180000  -70.093005      174.64096      294.41418    
   2190000  -64.562872      174.50923      294.19211    
   2200000  -68.634049      168.572        284.18297    
   2210000  -58.200724      168.65734      284.32685    
   2220000  -68.79735       176.37067      297.33018    
   2230000  -75.193007      168.19165      283.54177    
   2240000  -58.422324      173.38337      292.29411    
   2250000  -65.207963      173.17883      291.94928    
   2260000  -53.451193      174.29751      293.83518    
   2270000  -68.125015      174.91642      294.87857    
   2280000  -68.44091       181.95383      306.74241    
   2290000  -61.013251      192.38621      324.32959    
   2300000  -52.421781      184.33293      310.75316    
   2310000  -41.08835       168.22586      283.59944    
   2320000  -53.116536      201.66845      339.97782    
   2330000  -68.187329      196.30948      330.94353    
   2340000  -48.5646        177.1265       298.60438    
   2350000  -57.248339      178.94494      301.66994    
   2360000  -53.957069      176.70104      297.88712    
   2370000  -74.541539      169.09993      285.07298    
   2380000  -70.186826      184.48189      311.00428    
   2390000  -46.090618      173.49855      292.48829    
   2400000  -61.68868       180.88545      304.9413     
   2410000  -61.579777      183.13556      308.7346     
   2420000  -46.911873      170.86209      288.04367    
   2430000  -37.518019      176.95132      298.30905    
   2440000  -83.357918      179.26069      302.20225    
   2450000  -81.370741      170.92715      288.15336    
   2460000  -72.13142       165.39332      278.82428    
   2470000  -83.59435       185.40773      312.56508    
   2480000  -78.065717      170.61812      287.63239    
   2490000  -64.027498      162.86353      274.55949    
   2500000  -59.124894      163.9988       276.47336    
   2510000  -72.523852      169.67394      286.04065    
   2520000  -66.873579      164.03681      276.53744    
   2530000  -71.377234      178.02861      300.12518    
   2540000  -67.851437      169.32293      285.44892    
   2550000  -88.554029      180.33179      304.00793    
   2560000  -75.825929      177.97834      300.04042    
   2570000  -67.120461      164.73238      277.71006    
   2580000  -98.668924      194.941        328.63651    
   2590000  -48.500479      177.34492      298.97259    
   2600000  -89.976187      181.24559      305.54845    
   2610000  -93.865593      170.47696      287.3944     
   2620000  -78.768864      167.55573      282.46973    
   2630000  -71.096845      179.87089      303.23094    
   2640000  -59.898015      165.10609      278.34005    
   2650000  -38.071164      158.29199      266.85268    
   2660000  -69.083859      172.81867      291.34213    
   2670000  -74.290445      185.76064      313.16002    
   2680000  -79.29959       164.81978      277.85739    
   2690000  -68.117433      171.34671      288.86065    
   2700000  -74.430907      161.08644      271.56363    
   2710000  -83.797979      182.07077      306.93954    
   2720000  -76.566033      196.47683      331.22564    
   2730000  -76.916688      182.29012      307.30934    
   2740000  -70.918523      173.5446       292.56591    
   2750000  -65.406214      171.51318      289.14129    
   2760000  -74.279252      187.85869      316.69697    
   2770000  -56.544465      182.29723      307.32133    
   2780000  -68.176421      173.56631      292.60252    
   2790000  -57.238357      167.10572      281.71109    
   2800000  -70.63495       163.62622      275.84525    
   2810000  -97.077949      169.0204       284.93891    
   2820000  -63.512107      168.36322      283.83101    
   2830000  -74.604467      165.70408      279.34817    
   2840000  -61.683772      173.33128      292.20629    
   2850000  -83.653064      188.69585      318.10827    
   2860000  -48.456921      173.19371      291.97437    
   2870000  -56.480445      184.75832      311.47028    
   2880000  -52.565371      160.52474      270.61671    
   2890000  -71.615411      170.48065      287.40062    
   2900000  -66.236799      175.01044      295.03706    
   2910000  -74.016299      170.01548      286.61644    
   2920000  -68.359724      180.03326      303.50466    
   2930000  -84.194019      184.29626      310.69134    
   2940000  -71.70407       180.67238      304.58211    
   2950000  -64.965358      182.31262      307.34727    
   2960000  -44.681         191.45081      322.75266    
   2970000  -61.607286      190.60045      321.31911    
   2980000  -58.959216      179.88789      303.2596     
   2990000  -48.019889      179.47585      302.56496    
   3000000  -47.232723      185.58135      312.85778    
   3010000  -58.059901      190.63723      321.3811     
   3020000  -65.595567      184.69986      311.37174    
   3030000  -65.705469      179.99657      303.44281    
   3040000  -53.402337      164.19253      276.79996    
   3050000  -49.365863      172.72368      291.18198    
   3060000  -78.653062      197.86815      333.57117    
   3070000  -60.026491      180.26894      303.90198    
   3080000  -70.243203      189.14032      318.85758    
   3090000  -75.713752      162.08262      273.24301    
   3100000  -54.868039      169.67093      286.03558    
   3110000  -67.242932      202.83843      341.9502     
   3120000  -82.530583      189.79544      319.962      
   3130000  -88.638293      184.56064      311.13704    
   3140000  -71.095424      175.31969      295.5584     
   3150000  -71.463079      165.64833      279.25418    
   3160000  -76.047894      176.53316      297.6041     
   3170000  -73.277655      182.00397      306.82693    
   3180000  -87.036523      187.48896      316.07367    
   3190000  -66.412524      189.26122      319.06139    
   3200000  -94.061608      174.36983      293.95711    
   3210000  -101.27649      180.8756       304.92471    
   3220000  -102.75626      170.04747      286.67037    
   3230000  -78.657851      165.15223      278.41784    
   3240000  -45.140534      161.35382      272.01438    
   3250000  -60.289966      188.0083       316.9492     
   3260000  -67.852803      174.33004      293.89003    
   3270000  -85.340332      191.33903      322.56422    
   3280000  -86.646309      187.99099      316.92001    
   3290000  -84.20525       172.77508      291.26863    
   3300000  -76.88027       173.92158      293.20144    
   3310000  -77.508743      163.08995      274.9412     
   3320000  -81.925888      169.09464      285.06405    
   3330000  -73.617663      167.33195      282.09247    
   3340000  -86.777344      174.40091      294.0095     
   3350000  -56.904613      173.77957      292.96203    
   3360000  -67.238454      175.48849      295.84297    
   3370000  -63.03926       186.987        315.22746    
   3380000  -74.359751      175.93455      296.59495    
   3390000  -71.695625      170.7671       287.88354    
   3400000  -81.865072      184.59427      311.19373    
   3410000  -84.990125      189.66169      319.73652    
   3420000  -36.324366      168.68916      284.38049    
   3430000  -46.802051      172.23588      290.35963    
   3440000  -41.541623      187.96174      316.8707     
   3450000  -47.978588      187.95176      316.85388    
   3460000  -49.569017      193.84166      326.78322    
   3470000  -61.780379      190.95637      321.91912    
   3480000  -51.078195      170.70156      287.77305    
   3490000  -61.928921      187.81112      316.61678    
   3500000  -42.679266      197.0922       332.26305    
   3510000  -45.571334      173.8053       293.00542    
   3520000  -77.706606      170.37036      287.21469    
   3530000  -70.462691      168.36932      283.8413     
   3540000  -60.940072      164.17742      276.77449    
   3550000  -46.583238      173.80232      293.00038    
   3560000  -58.397995      163.9348       276.36547    
   3570000  -66.449718      178.1834       300.38612    
   3580000  -36.474449      180.89721      304.96113    
   3590000  -50.55692       189.45919      319.39513    
   3600000  -62.09431       188.51845      317.80921    
   3610000  -44.758835      185.05614      311.97236    
   3620000  -63.165784      183.93919      310.08937    
   3630000  -40.482061      200.92032      338.71659    
   3640000  -39.347856      176.70083      297.88677    
   3650000  -33.521934      175.99578      296.69817    
   3660000  -62.829658      178.53601      300.98055    
   3670000  -58.816979      184.54175      311.10518    
   3680000  -105.58778      172.14985      290.21461    
   3690000  -59.440652      159.37043      268.67074    
   3700000  -71.56196       173.6086       292.6738     
   3710000  -63.245071      184.38039      310.83317    
   3720000  -52.379159      177.21943      298.76104    
   3730000  -59.63333       174.12049      293.53676    
   3740000  -74.089681      172.30615      290.4781     
   3750000  -61.588746      159.66005      269.15898    
   3760000  -59.559119      166.52226      280.72748    
   3770000  -69.475003      163.59594      275.79422    
   3780000  -81.480767      167.69429      282.70332    
   3790000  -80.351129      182.58371      307.80427    
   3800000  -59.5611        171.14963      288.52841    
   3810000  -71.636827      173.65294      292.74855    
   3820000  -59.032433      180.18623      303.76255    
   3830000  -39.568834      160.76301      271.01839    
   3840000  -53.258398      177.3946       299.05634    
   3850000  -33.399531      170.34891      287.17854    
   3860000  -33.456774      190.10132      320.47765    
   3870000  -42.444988      185.23457      312.27316    
   3880000  -70.999493      176.22758      297.08895    
   3890000  -64.941837      167.88272      283.02097    
   3900000  -72.613541      172.45713      290.73263    
   3910000  -76.657791      171.83614      289.68575    
   3920000  -75.027331      166.90412      281.37122    
   3930000  -70.554431      182.5424       307.73463    
   3940000  -61.274073      175.52806      295.90967    
   3950000  -50.814055      171.12298      288.48349    
   3960000  -47.712584      175.49604      295.85571    
   3970000  -77.983712      171.81069      289.64284    
   3980000  -97.52149       179.7862       303.08816    
   3990000  -89.678721      177.30549      298.90612    
   4000000  -97.71715       182.9861       308.48264    
Loop time of 621.613 on 1 procs for 4000000 steps with 200 atoms

Performance: 5559.727 ns/day, 0.004 hours/ns, 6434.869 timesteps/s, 1.287 Matom-step/s
99.3% CPU use with 1 MPI tasks x 1 OpenMP threads

MPI task timing breakdown:
Section |  min time  |  avg time  |  max time  |%varavg| %total
---------------------------------------------------------------
Pair    | 537.25     | 537.25     | 537.25     |   0.0 | 86.43
Bond    | 40.121     | 40.121     | 40.121     |   0.0 |  6.45
Neigh   | 14.669     | 14.669     | 14.669     |   0.0 |  2.36
Comm    | 12.25      | 12.25      | 12.25      |   0.0 |  1.97
Output  | 0.12499    | 0.12499    | 0.12499    |   0.0 |  0.02
Modify  | 16.294     | 16.294     | 16.294     |   0.0 |  2.62
Other   |            | 0.905      |            |       |  0.15

Nlocal:            200 ave         200 max         200 min
Histogram: 1 0 0 0 0 0 0 0 0 0
Nghost:              0 ave           0 max           0 min
Histogram: 1 0 0 0 0 0 0 0 0 0
Neighs:           1678 ave        1678 max        1678 min
Histogram: 1 0 0 0 0 0 0 0 0 0

Total # of neighbors = 1678
Ave neighs/atom = 8.39
Ave special neighs/atom = 5.94
Neighbor list builds = 9561
Dangerous builds = 0
Generated 0 of 6 mixed pair_coeff terms from geometric mixing rule
Setting up Verlet run ...
  Unit style    : real
  Current step  : 4000000
  Time step     : 10
Per MPI rank memory allocation (min/avg/max) = 19.32 | 19.32 | 19.32 Mbytes
   Step         PotEng         KinEng          Temp     
   4000000  -97.71715       182.9861       308.48264    
   4010000  -76.34112       155.75382      262.57376    
   4020000  -86.218965      168.97256      284.85826    
   4030000  -79.266639      183.16332      308.7814     
   4040000  -62.594848      171.51999      289.15277    
   4050000  -46.453147      192.96657      325.30797    
   4060000  -63.316895      168.67865      284.36276    
   4070000  -56.55727       199.13205      335.70189    
   4080000  -68.837238      195.64012      329.81511    
   4090000  -60.451041      178.71035      301.27447    
   4100000  -54.695256      199.99456      337.15593    
   4110000  -50.538856      190.58361      321.29071    
   4120000  -26.643586      188.93899      318.51817    
   4130000  -27.586847      173.08861      291.7972     
   4140000  -57.693171      184.30205      310.70109    
   4150000  -33.387065      172.70338      291.14776    
   4160000  -58.810926      177.82075      299.77476    
   4170000  -76.345892      187.65785      316.35839    
   4180000  -58.311867      186.53521      314.46582    
   4190000  -38.748738      180.98334      305.10634    
   4200000  -53.267654      185.29429      312.37385    
   4210000  -46.834951      183.61294      309.53938    
   4220000  -65.447622      181.28695      305.61817    
   4230000  -59.302856      173.72412      292.86855    
   4240000  -98.601359      190.82497      321.69761    
   4250000  -61.229559      167.07368      281.65707    
   4260000  -71.531559      181.51376      306.00053    
   4270000  -64.868148      191.46682      322.77966    
   4280000  -64.226219      184.59364      311.19266    
   4290000  -64.274453      178.46533      300.86141    
   4300000  -59.398481      179.81896      303.14339    
   4310000  -67.218305      190.35636      320.90761    
   4320000  -77.36188       184.48403      311.00788    
   4330000  -35.268425      181.69843      306.31184    
   4340000  -44.911057      199.20422      335.82355    
   4350000  -44.622181      189.79764      319.9657     
   4360000  -38.076221      190.79789      321.65194    
   4370000  -41.420279      190.79761      321.65148    
   4380000  -62.052459      188.53893      317.84373    
   4390000  -68.855799      183.5233       309.38826    
   4400000  -48.768889      190.5242       321.19056    
   4410000  -51.096459      182.95798      308.43523    
   4420000  -27.005553      190.01128      320.32586    
   4430000  -32.299382      170.94154      288.1776     
   4440000  -46.810549      193.03008      325.41504    
   4450000  -54.83644       194.08119      327.18702    
   4460000  -54.681675      187.59646      316.25489    
   4470000  -35.575872      174.41403      294.03162    
   4480000  -60.009214      238.80095      402.57673    
   4490000  -39.293163      176.22548      297.08541    
   4500000  -42.676645      196.01238      330.44267    
   4510000  -46.845196      204.97697      345.55541    
   4520000  -33.375989      187.73019      316.48034    
   4530000  -43.555383      176.90024      298.22293    
   4540000  -34.634093      194.60841      328.07582    
   4550000  -15.947496      182.97448      308.46304    
   4560000  -32.193529      188.22485      317.31426    
   4570000  -39.751874      192.48718      324.4998     
   4580000  -35.526518      180.88973      304.94853    
   4590000  -60.097992      178.29718      300.57793    
   4600000  -56.208247      185.75746      313.15467    
   4610000  -56.46609       191.01288      322.01439    
   4620000  -32.39019       169.49714      285.74261    
   4630000  -31.543843      178.36126      300.68597    
   4640000  -73.011262      211.63901      356.78644    
   4650000  -49.559529      177.65697      299.49866    
   4660000  -65.14394       195.34527      329.31804    
   4670000  -25.760031      175.12819      295.23558    
   4680000  -23.406424      190.04879      320.38909    
   4690000  -21.16782       184.8565       311.63581    
   4700000  -14.329765      188.14692      317.18288    
   4710000  -10.616006      200.65621      338.27136    
   4720000  -2.2625851      184.04459      310.26707    
   4730000  -27.069071      214.50168      361.6124     
   4740000  -42.744217      184.71036      311.38943    
   4750000  -44.007899      206.88686      348.77515    
   4760000  -41.272893      198.16591      334.07314    
   4770000  -29.380191      171.86181      289.72902    
   4780000  -45.208723      187.48977      316.07503    
   4790000  -35.621529      179.56984      302.72341    
   4800000  -43.215282      180.24503      303.86166    
   4810000  -27.34846       169.15158      285.16004    
   4820000  -44.824596      196.17768      330.72133    
   4830000  -41.515387      186.57104      314.52621    
   4840000   2.1114569      176.38015      297.34615    
   4850000  -11.299813      198.49044      334.62025    
   4860000  -36.077502      193.75286      326.63351    
   4870000  -28.47339       175.9158       296.56335    
   4880000  -7.7468628      174.6189       294.37699    
   4890000   7.5214052      188.4729       317.73242    
   4900000  -21.024267      196.1063       330.601      
   4910000  -16.794165      206.43142      348.00736    
   4920000  -23.34075       196.08639      330.56745    
   4930000  -9.0290026      197.11779      332.3062     
   4940000  -2.0888899      180.00606      303.45881    
   4950000  -8.353428       182.4689       307.61072    
   4960000   25.800468      185.45848      312.65064    
   4970000   5.4781217      196.93445      331.99713    
   4980000   19.586568      181.1362       305.36402    
   4990000   18.096621      184.68829      311.35222    
   5000000   7.2386488      197.80978      333.47277    
   5010000  -14.948383      204.0408       343.97719    
   5020000  -6.3802897      205.74968      346.85805    
   5030000   6.5541521      183.76241      309.79136    
   5040000  -8.4406933      171.97183      289.9145     
   5050000  -19.607493      189.39654      319.28951    
   5060000  -20.489506      187.63361      316.31753    
   5070000  -16.652187      201.43066      339.57694    
   5080000  -46.67324       220.56079      371.827      
   5090000  -15.786713      195.52211      329.61616    
   5100000   2.5448574      189.25482      319.05061    
   5110000   1.1126061      211.08753      355.85674    
   5120000  -18.844371      198.09148      333.94767    
   5130000  -33.359578      180.75246      304.7171     
   5140000  -24.410628      188.429        317.65841    
   5150000  -9.2574715      187.95779      316.86404    
   5160000  -17.080102      207.95772      350.58044    
   5170000   0.7133643      209.33439      352.90125    
   5180000  -6.8818972      215.46976      363.24441    
   5190000  -0.37897155     203.97949      343.87383    
   5200000  -23.83884       201.75931      340.131      
   5210000  -28.635678      181.59648      306.13998    
   5220000  -32.99651       197.64942      333.20243    
   5230000  -29.671988      190.78458      321.62952    
   5240000  -31.690981      190.72237      321.52464    
   5250000   2.2592031      200.42466      337.88101    
   5260000   6.5709109      189.44381      319.36921    
   5270000   9.4481458      196.34703      331.00684    
   5280000   1.0372978      205.26028      346.03301    
   5290000   3.5912648      214.03852      360.8316     
   5300000   8.1386048      203.79386      343.56089    
   5310000  -11.263449      196.30242      330.93163    
   5320000  -15.803101      193.61061      326.3937     
   5330000  -1.2108767      196.00711      330.43379    
   5340000   21.317284      181.59335      306.1347     
   5350000   7.8975267      178.13352      300.30203    
   5360000   22.4931        188.89782      318.44876    
   5370000   26.788393      203.47332      343.02051    
   5380000   3.1292164      212.28268      357.87155    
   5390000  -6.2032705      204.31772      344.44403    
   5400000   2.6356954      187.70111      316.43133    
   5410000  -8.60787        215.4821       363.26522    
   5420000  -1.4982037      200.64519      338.25278    
   5430000   26.329388      194.51422      327.91703    
   5440000  -11.065548      207.40316      349.64555    
   5450000   3.7129572      195.76686      330.02877    
   5460000   17.361135      207.36919      349.58827    
   5470000   22.018716      208.39359      351.31523    
   5480000   47.196515      197.50589      332.96047    
   5490000   8.349561       209.10571      352.51574    
   5500000   4.3683494      190.46145      321.08477    
   5510000   23.957381      196.00135      330.42407    
   5520000   33.424407      195.83974      330.15164    
   5530000  -3.3201332      210.58268      355.00566    
   5540000   19.874208      200.80329      338.51931    
   5550000   4.0259632      194.21907      327.41947    
   5560000   4.441949       197.08803      332.25603    
   5570000   16.391126      185.13339      312.1026     
   5580000  -0.49795813     205.21811      345.96193    
   5590000  -3.1251728      209.38822      352.992      
   5600000  -3.5709343      219.19596      369.52614    
   5610000   18.906767      191.17267      322.28377    
   5620000   26.306347      212.3801       358.03579    
   5630000   1.2154665      190.61087      321.33666    
   5640000   5.2869028      196.78221      331.74048    
   5650000  -4.2354139      200.61933      338.20919    
   5660000  -9.4179837      200.45669      337.93501    
   5670000  -14.8186        188.63531      318.00621    
   5680000  -1.9828368      191.11461      322.18588    
   5690000  -30.078862      215.76983      363.75028    
   5700000   0.010578903    214.15226      361.02334    
   5710000   4.8026083      225.42993      380.03553    
   5720000  -0.576279       224.58065      378.6038     
   5730000   27.720972      195.18901      329.05461    
   5740000   17.928504      211.20903      356.06158    
   5750000  -2.4157708      212.24823      357.81348    
   5760000  -26.752637      221.66045      373.68083    
   5770000  -4.6347744      199.83007      336.87864    
   5780000   0.55035585     199.68468      336.63352    
   5790000   0.16654621     213.09504      359.24105    
   5800000  -13.19927       210.16675      354.30447    
   5810000   20.618264      202.62565      341.59149    
   5820000  -0.53191973     195.35534      329.33502    
   5830000   21.00128       187.58628      316.23774    
   5840000   16.952204      177.79156      299.72555    
   5850000  -9.2952649      203.89947      343.73892    
   5860000  -10.906501      213.50815      359.93749    
   5870000  -1.0692401      208.27156      351.10951    
   5880000  -17.066202      222.09023      374.40537    
   5890000  -3.8926858      184.28245      310.66806    
   5900000   13.76047       213.61397      360.11589    
   5910000   11.047114      200.47775      337.97051    
   5920000  -11.172257      208.61526      351.68893    
   5930000  -15.563623      202.1781       340.837      
   5940000  -1.109482       197.74929      333.3708     
   5950000  -3.5418951      208.01096      350.67018    
   5960000  -14.493759      208.79525      351.99236    
   5970000  -37.702519      211.70996      356.90606    
   5980000  -1.4486617      211.34935      356.29812    
   5990000   30.311728      208.41225      351.34669    
   6000000   20.418545      208.20754      351.00159    
   6010000   2.72957        214.62802      361.8254     
   6020000  -2.712239       212.15361      357.65396    
   6030000   13.566932      237.24829      399.95922    
   6040000   24.578209      229.63349      387.122      
   6050000   28.668967      204.58002      344.88621    
   6060000   15.551047      200.03553      337.225      
   6070000  -1.9218065      214.02062      360.80142    
   6080000  -8.7056791      199.43107      336.20598    
   6090000   1.4993808      217.47982      366.63304    
   6100000  -25.41098       241.21713      406.64999    
   6110000  -11.620725      221.74731      373.82727    
   6120000   21.930689      192.62052      324.72458    
   6130000  -11.446417      214.13049      360.98664    
   6140000  -16.097933      215.59022      363.4475     
   6150000  -3.6827075      193.75894      326.64376    
   6160000  -5.2650165      215.28417      362.93154    
   6170000   3.6088088      200.78644      338.4909     
   6180000   26.035168      211.27235      356.16832    
   6190000   30.871912      217.19309      366.14965    
   6200000   13.934212      226.96975      382.6314     
   6210000   41.49824       223.24485      376.35186    
   6220000   39.891528      188.21391      317.29581    
   6230000   18.745422      240.27835      405.06737    
   6240000   44.121229      216.6893       365.30035    
   6250000   34.872957      223.97533      377.58333    
   6260000   28.627118      212.88354      358.8845     
   6270000   28.11827       217.67682      366.96514    
   6280000   24.483581      219.37908      369.83485    
   6290000   31.738725      213.48509      359.89862    
   6300000   48.169224      211.49137      356.53755    
   6310000   46.923158      214.0601       360.86798    
   6320000   37.866434      195.55801      329.67669    
   6330000   37.837019      225.03332      379.36691    
   6340000   5.6747082      232.04569      391.18855    
   6350000   19.207464      211.38296      356.35479    
   6360000   32.84071       199.61284      336.51241    
   6370000   18.388534      210.42073      354.73264    
   6380000  -3.5825488      245.43718      413.76427    
   6390000   3.4522176      205.89723      347.1068     
   6400000   30.893645      203.48233      343.03571    
   6410000   22.075415      220.88615      372.3755     
   6420000   31.297913      216.48939      364.96334    
   6430000   25.336139      212.15702      357.65972    
   6440000   36.74733       214.5064       361.62036    
   6450000   14.259911      196.83242      331.82511    
   6460000   38.756258      208.42925      351.37534    
   6470000   5.5753535      218.4351       368.24347    
   6480000  -1.8828778      226.39406      381.66088    
   6490000  -12.210683      212.05186      357.48243    
   6500000   18.472894      228.46327      385.14921    
   6510000   18.436652      203.05871      342.32155    
   6520000   19.879022      213.56235      360.02886    
   6530000   14.641323      215.13005      362.67173    
   6540000   16.645206      222.59876      375.26267    
   6550000   21.911806      197.72201      333.3248     
   6560000   14.654494      224.52554      378.51088    
   6570000   17.282547      225.14347      379.55261    
   6580000   24.06473       213.41301      359.7771     
   6590000   40.993421      206.07787      347.41133    
   6600000   31.92379       222.87487      375.72815    
   6610000   46.647058      201.56202      339.7984     
   6620000   19.530131      206.08797      347.42837    
   6630000   45.179384      196.9561       332.03362    
   6640000   21.727436      202.28222      341.01253    
   6650000   35.913579      224.71367      378.82804    
   6660000   40.781772      239.30536      403.42707    
   6670000   33.587633      230.59942      388.75038    
   6680000   31.845909      235.89952      397.68542    
   6690000   54.273669      206.92614      348.84136    
   6700000   40.325275      229.21229      386.41193    
   6710000   57.808803      196.23965      330.8258     
   6720000   39.775643      226.34346      381.57557    
   6730000   49.78465       211.77149      357.00978    
   6740000   23.360751      221.68624      373.72433    
   6750000   7.253392       244.24023      411.74641    
   6760000   46.053694      223.26431      376.38467    
   6770000   25.945072      208.2388       351.05429    
   6780000   46.625255      243.40554      410.33927    
   6790000   57.014291      227.49829      383.52241    
   6800000   50.515962      226.33898      381.56803    
   6810000   40.650323      234.42076      395.1925     
   6820000   46.586981      230.34512      388.32168    
   6830000   61.511703      225.51975      380.18695    
   6840000   72.41221       220.92731      372.44489    
   6850000   77.808574      218.37383      368.14017    
   6860000   65.871426      231.50493      390.27691    
   6870000   72.306785      241.41965      406.99141    
   6880000   50.623227      204.34696      344.49332    
   6890000   97.441653      217.00995      365.84091    
   6900000   107.90756      240.1254       404.80953    
   6910000   118.17583      235.73213      397.40324    
   6920000   70.676798      232.91764      392.65851    
   6930000   75.059301      244.2359       411.73911    
   6940000   74.396177      225.57121      380.27371    
   6950000   84.577164      246.38909      415.36902    
   6960000   79.26292       222.18856      374.57114    
   6970000   106.65447      202.60762      341.5611     
   6980000   91.519552      248.00314      418.09003    
   6990000   63.64081       222.76115      375.53643    
   7000000   83.99328       220.37783      371.51857    
   7010000   76.947548      227.15967      382.95156    
   7020000   98.955461      216.91833      365.68646    
   7030000   81.062938      223.61438      376.97483    
   7040000   77.82042       230.26853      388.19257    
   7050000   85.529608      223.04256      376.01083    
   7060000   93.848842      233.60723      393.82103    
   7070000   99.918426      215.80669      363.81243    
   7080000   108.79593      216.98225      365.79421    
   7090000   98.486676      241.86503      407.74224    
   7100000   90.259915      209.76474      353.62675    
   7110000   109.39432      216.94455      365.73065    
   7120000   92.071818      212.16067      357.66586    
   7130000   88.934116      235.52177      397.04861    
   7140000   72.754123      243.57343      410.6223     
   7150000   95.554502      221.52824      373.45796    
   7160000   119.03403      231.0088       389.44053    
   7170000   112.51862      230.82847      389.13653    
   7180000   116.52429      233.52395      393.68064    
   7190000   108.60705      241.40615      406.96864    
   7200000   91.283838      221.02574      372.61084    
   7210000   90.234695      227.22112      383.05517    
   7220000   111.96985      220.52883      371.77313    
   7230000   97.58727       213.84929      360.51259    
   7240000   125.2866       233.78135      394.11457    
   7250000   74.950688      225.11737      379.5086     
   7260000   85.185918      246.16225      414.9866     
   7270000   79.584319      224.13315      377.84938    
   7280000   99.191139      234.72554      395.7063     
   7290000   90.392481      254.57977      429.17706    
   7300000   64.875747      219.02613      369.23983    
   7310000   108.16938      218.65952      368.6218     
   7320000   123.68929      198.8639       335.24983    
   7330000   98.090342      234.2511       394.90649    
   7340000   100.94005      246.30282      415.22357    
   7350000   114.40289      213.02342      359.12032    
   7360000   124.60953      251.28797      423.62767    
   7370000   118.6326       258.1091       435.1269     
   7380000   128.71378      230.33925      388.31179    
   7390000   120.42402      221.12259      372.77411    
   7400000   142.26864      230.56538      388.693      
   7410000   110.98278      223.09645      376.1017     
   7420000   121.91468      239.09999      403.08086    
   7430000   135.51945      224.58671      378.61401    
   7440000   120.02436      227.20824      383.03344    
   7450000   127.79639      226.25311      381.42327    
   7460000   116.8698       226.64635      382.08619    
   7470000   113.07663      221.97069      374.20385    
   7480000   120.2532       222.84616      375.67974    
   7490000   121.27862      244.76186      412.62579    
   7500000   120.33755      251.14109      423.38006    
   7510000   96.697124      228.13967      384.60368    
   7520000   105.94941      256.84083      432.98882    
   7530000   109.45999      235.11992      396.37116    
   7540000   101.04619      266.145        448.67403    
   7550000   127.26561      229.56285      387.00291    
   7560000   109.88491      235.04856      396.25085    
   7570000   135.38189      213.42361      359.79497    
   7580000   113.29388      239.80718      404.27306    
   7590000   116.85183      236.41557      398.5554     
   7600000   126.1738       255.62593      430.94071    
   7610000   123.49002      257.09286      433.4137     
   7620000   137.79628      224.72159      378.84139    
   7630000   111.81611      220.18857      371.19952    
   7640000   114.09776      244.68038      412.48843    
   7650000   137.04342      234.73636      395.72455    
   7660000   107.55985      233.21159      393.15405    
   7670000   108.846        247.43398      417.13051    
   7680000   115.67814      251.91511      424.68493    
   7690000   126.21367      244.73231      412.57598    
   7700000   137.19629      231.19628      389.75659    
   7710000   114.01987      243.87599      411.13237    
   7720000   124.4642       242.621        409.01667    
   7730000   134.4426       225.43132      380.03786    
   7740000   132.92983      238.24279      401.63578    
   7750000   140.10917      224.41343      378.32189    
   7760000   121.45559      240.7269       405.82355    
   7770000   155.70358      231.31546      389.9575     
   7780000   154.5523       224.9373       379.20504    
   7790000   140.3955       216.92997      365.70609    
   7800000   138.75562      234.30436      394.99626    
   7810000   157.71229      227.72714      383.90823    
   7820000   150.20561      248.65576      419.19022    
   7830000   139.54169      230.6512       388.83767    
   7840000   135.08674      267.19921      450.45125    
   7850000   132.08459      231.4627       390.20572    
   7860000   127.96257      221.61042      373.5965     
   7870000   110.22516      211.49468      356.54312    
   7880000   143.59551      226.82537      382.38799    
   7890000   144.92973      229.98353      387.71211    
   7900000   141.63679      225.55787      380.25122    
   7910000   131.63701      228.16548      384.64718    
   7920000   129.29934      246.35581      415.31291    
   7930000   125.95208      233.86052      394.24803    
   7940000   136.13877      247.65091      417.49623    
   7950000   131.60419      249.90503      421.29628    
   7960000   114.30381      234.4974       395.32169    
   7970000   120.6233       236.19441      398.18256    
   7980000   142.22658      222.09698      374.41675    
   7990000   135.46244      218.64182      368.59196    
   8000000   148.93095      228.03829      384.43276    
   8010000   148.4884       242.21922      408.33935    
   8020000   132.52916      235.99614      397.84832    
   8030000   158.97475      255.67121      431.01704    
   8040000   152.28637      241.17549      406.57979    
   8050000   139.50666      221.29262      373.06075    
   8060000   148.97505      261.5859       440.98818    
   8070000   141.84074      259.82059      438.01217    
   8080000   121.9717       254.56624      429.15427    
   8090000   115.8195       258.21631      435.30764    
   8100000   159.27832      256.23136      431.96137    
   8110000   131.62083      245.86321      414.48248    
   8120000   122.50898      226.73435      382.23455    
   8130000   131.36386      207.3081       349.48528    
   8140000   121.70332      240.30737      405.1163     
   8150000   113.31588      232.68276      392.26254    
   8160000   121.14138      212.09031      357.54726    
   8170000   121.72688      228.50677      385.22255    
   8180000   116.72436      252.32427      425.37469    
   8190000   117.50248      248.27582      418.54972    
   8200000   119.92235      236.30218      398.36425    
   8210000   115.05513      251.26865      423.59511    
   8220000   70.552237      246.91061      416.24821    
   8230000   138.76229      237.27767      400.00874    
   8240000   136.58043      258.67186      436.07562    
   8250000   120.4921       238.38864      401.88165    
   8260000   108.80768      244.25332      411.76848    
   8270000   103.25127      241.008        406.29743    
   8280000   100.40986      247.14465      416.64275    
   8290000   90.018062      250.73301      422.6921     
   8300000   96.647096      218.30448      368.02326    
   8310000   110.30959      238.85904      402.67466    
   8320000   119.93582      241.36129      406.89302    
   8330000   129.40355      231.65711      390.53347    
   8340000   114.21205      235.50629      397.02252    
   8350000   125.39965      216.81037      365.50445    
   8360000   113.84467      233.45332      393.56156    
   8370000   130.83794      247.69321      417.56753    
   8380000   132.53465      266.45881      449.20306    
   8390000   112.20572      245.87068      414.49507    
   8400000   100.01601      254.03026      428.25069    
   8410000   99.049229      253.87051      427.98138    
   8420000   103.91755      243.59559      410.65967    
   8430000   138.78079      242.19303      408.29519    
   8440000   125.36513      248.39629      418.7528     
   8450000   119.98189      244.9653       412.96875    
   8460000   88.032905      264.1888       445.37622    
   8470000   129.56508      251.39387      423.80621    
   8480000   112.48935      239.23295      403.30501    
   8490000   96.117954      243.24911      410.07556    
   8500000   126.22228      260.4003       438.98947    
   8510000   130.02846      259.45225      437.39121    
   8520000   101.5862       239.62238      403.96152    
   8530000   133.13089      234.65953      395.59503    
   8540000   128.75972      239.65192      404.01132    
   8550000   135.71058      256.5802       432.54944    
   8560000   123.51608      247.36369      417.01201    
   8570000   141.74512      251.24879      423.56163    
   8580000   118.888        250.3167       421.99029    
   8590000   105.97331      251.08444      423.28456    
   8600000   159.65307      249.73299      421.00625    
   8610000   108.58778      250.07824      421.58828    
   8620000   129.79126      199.47284      336.2764     
   8630000   109.98555      221.60105      373.5807     
   8640000   127.35697      235.39688      396.83806    
   8650000   130.85662      266.35648      449.03054    
   8660000   147.37913      236.7683       399.15005    
   8670000   124.71657      261.71028      441.19787    
   8680000   125.36659      240.06846      404.71354    
   8690000   120.7184       236.44147      398.59906    
   8700000   103.31699      234.10675      394.66313    
   8710000   110.76492      230.37552      388.37292    
   8720000   88.751402      236.2757       398.31961    
   8730000   99.875085      247.08849      416.54807    
   8740000   135.04718      243.88618      411.14954    
   8750000   84.366974      272.91819      460.09245    
   8760000   129.47243      240.25591      405.02954    
   8770000   104.4921       243.84838      411.08581    
   8780000   92.284739      228.71821      385.57899    
   8790000   83.952113      243.17425      409.94936    
   8800000   113.21168      228.94776      385.96597    
   8810000   94.026139      246.18936      415.0323     
   8820000   95.359877      263.83219      444.77503    
   8830000   129.86103      250.98404      423.1153     
   8840000   116.68967      256.80856      432.93443    
   8850000   120.99334      257.32124      433.79871    
   8860000   101.24442      273.41044      460.92229    
   8870000   116.25539      263.2552       443.80232    
   8880000   114.01803      273.75778      461.50785    
   8890000   121.96209      248.14693      418.33243    
   8900000   133.91332      247.8617       417.85158    
   8910000   126.0975       241.89626      407.79488    
   8920000   119.15346      252.3495       425.41722    
   8930000   140.03963      236.05537      397.94817    
   8940000   123.4517       240.21782      404.96533    
   8950000   144.42335      246.42185      415.42423    
   8960000   160.97279      244.7578       412.61895    
   8970000   133.58306      260.22115      438.68745    
   8980000   163.861        235.70281      397.35381    
   8990000   146.41364      253.34635      427.09773    
   9000000   136.51833      266.07966      448.56388    
   9010000   136.35396      252.09374      424.98606    
   9020000   145.85633      262.04838      441.76785    
   9030000   151.16687      259.11688      436.82584    
   9040000   133.87859      247.04269      416.47087    
   9050000   126.17926      253.57015      427.47502    
   9060000   143.38913      252.5317       425.72438    
   9070000   152.84302      253.62488      427.56729    
   9080000   141.37467      261.22614      440.38169    
   9090000   135.7668       248.65375      419.18683    
   9100000   134.23994      260.45961      439.08946    
   9110000   132.78274      246.36972      415.33636    
   9120000   104.19085      247.54535      417.31827    
   9130000   111.16834      239.95772      404.52685    
   9140000   109.21218      250.09536      421.61714    
   9150000   132.60635      240.27655      405.06433    
   9160000   110.10242      245.05702      413.12338    
   9170000   124.50505      250.77857      422.7689     
   9180000   139.73306      250.9699       423.09145    
   9190000   156.61731      268.12647      452.01444    
   9200000   154.95941      274.34375      462.49568    
   9210000   147.99562      247.94839      417.99772    
   9220000   140.38515      242.006        407.97988    
   9230000   141.90625      253.34197      427.09036    
   9240000   114.92963      276.04096      465.35689    
   9250000   137.03637      231.87936      390.90815    
   9260000   110.33619      243.24117      410.06217    
   9270000   133.6769       261.78351      441.32131    
   9280000   126.02059      267.76979      451.41314    
   9290000   127.0217       273.36378      460.84364    
   9300000   151.65023      252.89082      426.32979    
   9310000   144.84653      262.73266      442.92141    
   9320000   137.44408      250.24819      421.87478    
   9330000   146.21416      231.21379      389.78611    
   9340000   141.20606      272.11784      458.7432     
   9350000   156.24062      252.50645      425.68182    
   9360000   167.31636      243.90306      411.178      
   9370000   154.62968      258.99312      436.61721    
   9380000   156.4782       261.9102       441.5349     
   9390000   135.53314      269.8208       454.87078    
   9400000   139.93058      264.00112      445.05982    
   9410000   148.51185      271.91123      458.3949     
   9420000   164.90192      289.92998      488.77136    
   9430000   161.41487      268.55321      452.73386    
   9440000   138.50009      259.36791      437.24903    
   9450000   151.23749      270.51963      456.0489     
   9460000   150.29689      253.30036      427.02021    
   9470000   152.57131      275.49046      464.42884    
   9480000   151.40857      243.59438      410.65762    
   9490000   153.70516      255.45474      430.65212    
   9500000   142.39636      279.73234      471.57992    
   9510000   147.20418      257.06688      433.36991    
   9520000   140.17518      249.42868      420.49322    
   9530000   145.79408      267.11987      450.3175     
   9540000   140.69584      252.06531      424.93813    
   9550000   143.81423      265.10647      446.92324    
   9560000   149.90984      266.65683      449.53688    
   9570000   158.05684      256.24209      431.97946    
   9580000   140.95415      250.62959      422.51776    
   9590000   144.12558      255.27932      430.35639    
   9600000   129.76301      274.47403      462.71532    
   9610000   136.72183      276.27405      465.74983    
   9620000   160.28278      261.31724      440.53527    
   9630000   150.53697      277.97344      468.61472    
   9640000   148.5664       283.85371      478.52783    
   9650000   142.89308      268.06246      451.90654    
   9660000   131.87         265.82986      448.14275    
   9670000   140.42633      256.52983      432.46453    
   9680000   171.95272      262.6648       442.80702    
   9690000   147.93126      281.98268      475.37359    
   9700000   159.57229      266.21867      448.79823    
   9710000   163.58392      276.82416      466.67723    
   9720000   134.18632      290.57345      489.85614    
   9730000   158.58524      279.26685      470.79518    
   9740000   157.21268      288.10782      485.69951    
   9750000   128.89873      280.06491      472.14058    
   9760000   126.90017      275.86051      465.05269    
   9770000   153.30844      289.68392      488.35655    
   9780000   155.03645      259.16023      436.89893    
   9790000   119.56802      256.39936      432.24458    
   9800000   115.77514      261.66347      441.11896    
   9810000   133.80258      270.05642      455.268      
   9820000   132.33671      264.63107      446.12181    
   9830000   154.32044      279.38394      470.99257    
   9840000   147.15713      258.03294      434.99851    
   9850000   133.42444      271.76376      458.14628    
   9860000   140.62467      249.98641      421.43346    
   9870000   142.69724      242.18416      408.28023    
   9880000   133.73601      302.34534      509.70148    
   9890000   142.2113       250.3455       422.03883    
   9900000   127.83448      272.47043      459.33761    
   9910000   149.25112      259.21909      436.99815    
   9920000   127.55715      249.4254       420.4877     
   9930000   120.6088       266.69854      449.6072     
   9940000   143.12043      254.19936      428.53576    
   9950000   138.09317      269.16787      453.77005    
   9960000   149.80405      267.03886      450.18092    
   9970000   142.77073      259.48614      437.44835    
   9980000   157.71651      254.56352      429.14968    
   9990000   153.03694      264.35776      445.66106    
  10000000   124.25663      281.76526      475.00706    
  10010000   150.03116      264.66875      446.18533    
  10020000   144.04983      261.24683      440.41657    
  10030000   134.94384      273.25065      460.65291    
  10040000   146.49961      266.96313      450.05326    
  10050000   149.54947      247.31005      416.9216     
  10060000   131.67204      259.96865      438.26178    
  10070000   137.98128      277.7978       468.31861    
  10080000   146.39779      294.20578      495.97962    
  10090000   148.98299      273.95984      461.84849    
  10100000   141.81982      261.08189      440.13851    
  10110000   154.84201      248.3918       418.74524    
  10120000   165.68865      268.21063      452.15633    
  10130000   153.59625      297.20488      501.03557    
  10140000   148.86305      304.45746      513.26215    
  10150000   177.59526      264.39476      445.72344    
  10160000   151.40766      306.8557       517.30517    
  10170000   180.76439      295.05941      497.41868    
  10180000   149.92639      293.25176      494.37131    
  10190000   156.92932      307.60519      518.56868    
  10200000   161.18506      292.90719      493.79041    
  10210000   172.04575      274.62703      462.97325    
  10220000   175.82969      282.63107      476.46666    
  10230000   155.47416      287.62414      484.88412    
  10240000   133.322        274.95098      463.51938    
  10250000   152.57902      268.10304      451.97494    
  10260000   158.98678      264.79227      446.39357    
  10270000   142.21452      275.31721      464.13677    
  10280000   157.35685      264.55564      445.99465    
  10290000   138.52522      293.6674       495.072      
  10300000   139.80824      247.23483      416.79478    
  10310000   138.24646      260.73189      439.54847    
  10320000   143.98633      271.8538       458.29808    
  10330000   153.29935      266.74867      449.69171    
  10340000   167.722        281.1947       474.0452     
  10350000   146.61737      284.76462      480.06347    
  10360000   164.59225      272.47769      459.34984    
  10370000   146.32069      298.4872       503.19733    
  10380000   153.3121       258.1143       435.13567    
  10390000   141.01771      270.8084       456.53572    
  10400000   152.36413      304.35815      513.09474    
  10410000   158.12255      269.18607      453.80074    
  10420000   176.41163      252.24371      425.23889    
  10430000   160.39998      290.85776      490.33544    
  10440000   184.37427      250.04112      421.52569    
  10450000   183.72504      279.94875      471.94475    
  10460000   157.48732      290.06245      488.99468    
  10470000   154.48794      266.17649      448.72711    
  10480000   149.66828      255.32538      430.43403    
  10490000   160.91799      263.87093      444.84034    
  10500000   138.63595      246.05896      414.81248    
  10510000   150.99239      268.25566      452.23223    
  10520000   164.25905      279.89882      471.86057    
  10530000   165.836        258.45987      435.71825    
  10540000   172.32779      267.14517      450.36014    
  10550000   168.91717      269.41227      454.18207    
  10560000   174.3148       256.25242      431.99687    
  10570000   153.44464      294.44495      496.3828     
  10580000   147.65454      262.01854      441.71753    
  10590000   127.34319      278.93372      470.23359    
  10600000   144.18546      274.54458      462.83425    
  10610000   156.95223      285.45937      481.23469    
  10620000   138.80175      306.88757      517.3589     
  10630000   203.4221       269.46238      454.26655    
  10640000   169.71646      277.20002      467.31086    
  10650000   144.82849      257.84861      434.68776    
  10660000   149.10697      266.86281      449.88414    
  10670000   181.22307      289.86999      488.67023    
  10680000   187.73672      262.47216      442.48227    
  10690000   129.0004       247.90839      417.93029    
  10700000   163.58382      235.40227      396.84715    
  10710000   131.35824      242.3312       408.52812    
  10720000   147.7223       257.00718      433.26926    
  10730000   173.05718      292.10345      492.43545    
  10740000   166.59768      252.5273       425.71697    
  10750000   156.12333      276.89168      466.79106    
  10760000   143.22968      275.87778      465.08179    
  10770000   110.64525      270.68104      456.321      
  10780000   130.81393      274.61678      462.95597    
  10790000   145.29204      275.95146      465.20601    
  10800000   167.31929      269.74572      454.74421    
  10810000   145.24119      274.04037      461.98425    
  10820000   130.58413      284.34135      479.34991    
  10830000   135.19165      271.55581      457.79572    
  10840000   153.96181      299.78756      505.38951    
  10850000   156.12547      259.26138      437.06945    
  10860000   152.81895      286.97081      483.78272    
  10870000   162.31141      298.93581      503.95361    
  10880000   170.20685      276.59482      466.2906     
  10890000   150.94702      305.65679      515.28402    
  10900000   156.14024      281.58789      474.70805    
  10910000   157.0335       288.35223      486.11154    
  10920000   145.54014      264.27345      445.51892    
  10930000   175.80011      280.66064      473.14486    
  10940000   166.09575      266.55997      449.37359    
  10950000   156.13067      288.77313      486.82111    
  10960000   164.93279      289.14713      487.45161    
  10970000   156.80272      283.7625       478.37407    
  10980000   186.29079      300.74099      506.99684    
  10990000   179.1044       277.74728      468.23345    
  11000000   180.05267      307.46849      518.33822    
  11010000   170.70296      291.11542      490.76981    
  11020000   185.32883      304.1963       512.82188    
  11030000   182.49667      285.10779      480.64198    
  11040000   180.61302      279.96238      471.96772    
  11050000   162.31125      269.72476      454.70888    
  11060000   179.28058      282.22828      475.78763    
  11070000   178.32535      285.49139      481.28867    
  11080000   169.98913      265.90385      448.2675     
  11090000   168.59873      281.16429      473.99393    
  11100000   162.15257      292.14208      492.50057    
  11110000   196.78587      278.65482      469.76341    
  11120000   187.60832      277.54478      467.89207    
  11130000   191.87299      283.09607      477.25058    
  11140000   180.9482       266.47442      449.22938    
  11150000   180.7308       275.79789      464.94712    
  11160000   215.7931       308.46521      520.01851    
  11170000   187.68794      281.86076      475.16805    
  11180000   159.443        315.2054       531.3813     
  11190000   170.81961      298.85764      503.82183    
  11200000   171.61326      289.1655       487.48257    
  11210000   184.12973      278.60913      469.68638    
  11220000   157.9667       283.83732      478.50019    
  11230000   167.9664       299.82674      505.45558    
  11240000   162.07398      301.36036      508.04098    
  11250000   170.91228      290.02664      488.93431    
  11260000   203.75276      259.98238      438.28493    
  11270000   177.09813      254.70394      429.3864     
  11280000   192.4404       298.09623      502.53823    
  11290000   203.15708      270.34038      455.74672    
  11300000   199.69366      271.17178      457.1483     
  11310000   180.69543      271.257        457.29197    
  11320000   180.85448      291.01165      490.59487    
  11330000   197.08923      275.53868      464.51014    
  11340000   193.94085      274.99594      463.59517    
  11350000   182.16936      271.97719      458.50609    
  11360000   179.52703      278.03628      468.72065    
  11370000   207.17439      282.22152      475.77624    
  11380000   174.05274      282.51491      476.27084    
  11390000   171.01147      282.16411      475.67945    
  11400000   182.07008      268.0227       451.83951    
  11410000   193.00518      305.45618      514.94582    
  11420000   190.95605      313.99949      529.34835    
  11430000   178.83931      282.72759      476.62938    
  11440000   186.28436      276.27814      465.75674    
  11450000   195.77345      289.0656       487.31417    
  11460000   173.39238      315.26404      531.48017    
  11470000   193.86723      310.95918      524.22291    
  11480000   188.8893       277.81117      468.34116    
  11490000   152.6864       287.91437      485.37339    
  11500000   162.11599      305.92855      515.74215    
  11510000   198.01855      300.83325      507.15237    
  11520000   172.75887      289.96376      488.82831    
  11530000   166.18541      287.99423      485.50802    
  11540000   193.16232      291.40158      491.25222    
  11550000   184.75802      296.19627      499.33523    
  11560000   184.42021      302.40492      509.80193    
  11570000   185.60553      271.32337      457.40386    
  11580000   173.2891       302.50862      509.97674    
  11590000   178.23223      302.61186      510.15079    
  11600000   202.13512      312.05568      526.07142    
  11610000   171.83504      315.66622      532.15817    
  11620000   189.7804       276.17136      465.57672    
  11630000   173.66748      298.76405      503.66405    
  11640000   183.03944      281.15066      473.97095    
  11650000   187.09635      301.99304      509.10758    
  11660000   202.54802      270.3848       455.82159    
  11670000   169.41606      290.63112      489.95335    
  11680000   173.63673      286.74575      483.4033     
  11690000   164.71794      265.04869      446.82585    
  11700000   183.87751      277.24868      467.3929     
  11710000   187.56194      254.5219       429.07951    
  11720000   176.54789      276.88979      466.78787    
  11730000   195.46003      276.5195       466.16363    
  11740000   171.4219       301.10726      507.6143     
  11750000   182.33184      298.75083      503.64177    
  11760000   162.70788      292.70225      493.44493    
  11770000   165.01827      292.08958      492.41207    
  11780000   152.01217      271.67592      457.99819    
  11790000   186.45808      303.43239      511.53406    
  11800000   182.1955       321.58648      542.13869    
  11810000   185.39925      309.71391      522.12361    
  11820000   189.48755      294.77894      496.94585    
  11830000   184.61039      322.09939      543.00337    
  11840000   197.62581      303.40742      511.49196    
  11850000   166.2733       275.15104      463.85664    
  11860000   172.92152      309.83947      522.33528    
  11870000   168.48831      302.62652      510.17551    
  11880000   212.66952      272.7501       459.80908    
  11890000   186.69486      314.18017      529.65295    
  11900000   214.01148      292.27178      492.71922    
  11910000   205.42453      308.2539       519.6623     
  11920000   213.21641      310.77535      523.91301    
  11930000   195.64411      340.66945      574.30924    
  11940000   201.20833      292.14839      492.51122    
  11950000   172.21604      269.63256      454.55345    
  11960000   203.20653      280.31544      472.56292    
  11970000   186.96536      283.25468      477.51797    
  11980000   181.6341       291.95598      492.18684    
  11990000   175.22328      306.69241      517.02989    
  12000000   178.00696      304.33493      513.0556     
Loop time of 868.796 on 1 procs for 8000000 steps with 200 atoms

Performance: 7955.840 ns/day, 0.003 hours/ns, 9208.149 timesteps/s, 1.842 Matom-step/s
99.3% CPU use with 1 MPI tasks x 1 OpenMP threads

MPI task timing breakdown:
Section |  min time  |  avg time  |  max time  |%varavg| %total
---------------------------------------------------------------
Pair    | 692.99     | 692.99     | 692.99     |   0.0 | 79.76
Bond    | 79.36      | 79.36      | 79.36      |   0.0 |  9.13
Neigh   | 37.666     | 37.666     | 37.666     |   0.0 |  4.34
Comm    | 24.276     | 24.276     | 24.276     |   0.0 |  2.79
Output  | 0.22549    | 0.22549    | 0.22549    |   0.0 |  0.03
Modify  | 32.454     | 32.454     | 32.454     |   0.0 |  3.74
Other   |            | 1.822      |            |       |  0.21

Nlocal:            200 ave         200 max         200 min
Histogram: 1 0 0 0 0 0 0 0 0 0
Nghost:              0 ave           0 max           0 min
Histogram: 1 0 0 0 0 0 0 0 0 0
Neighs:            658 ave         658 max         658 min
Histogram: 1 0 0 0 0 0 0 0 0 0

Total # of neighbors = 658
Ave neighs/atom = 3.29
Ave special neighs/atom = 5.94
Neighbor list builds = 25186
Dangerous builds = 0
Generated 0 of 6 mixed pair_coeff terms from geometric mixing rule
Setting up Verlet run ...
  Unit style    : real
  Current step  : 12000000
  Time step     : 10
Per MPI rank memory allocation (min/avg/max) = 19.32 | 19.32 | 19.32 Mbytes
   Step         PotEng         KinEng          Temp     
  12000000   178.00696      304.33493      513.0556     
  12010000   191.89443      305.79694      515.52029    
  12020000   172.67318      310.00025      522.60634    
  12030000   182.00501      309.41629      521.62188    
  12040000   175.29414      301.84495      508.85793    
  12050000   207.65425      311.1197       524.49353    
  12060000   200.19956      321.67956      542.29561    
  12070000   183.12096      269.50452      454.33759    
  12080000   171.48151      295.60384      498.33649    
  12090000   186.51984      297.036        500.75086    
  12100000   189.43265      272.22534      458.92442    
  12110000   167.47174      296.50989      499.86394    
  12120000   172.63237      302.86785      510.58234    
  12130000   201.40923      289.13815      487.43648    
  12140000   168.60005      280.82624      473.42403    
  12150000   199.2649       300.71251      506.94882    
  12160000   165.32362      304.09003      512.64273    
  12170000   179.36797      298.84557      503.80149    
  12180000   182.71998      310.21188      522.9631     
  12190000   193.76931      295.3217       497.86085    
  12200000   194.46032      288.56121      486.46386    
  12210000   190.63161      293.06847      494.0623     
  12220000   201.74518      256.89774      433.08477    
  12230000   188.56808      281.64682      474.8074     
  12240000   193.28435      298.39494      503.04181    
  12250000   176.98546      278.0724       468.78155    
  12260000   179.43554      288.34456      486.09861    
  12270000   159.22706      276.66164      466.40325    
  12280000   208.12529      318.30129      536.60044    
  12290000   190.66532      314.49842      530.18946    
  12300000   184.14834      328.65203      554.04997    
  12310000   212.93419      294.07356      495.75671    
  12320000   204.32376      279.06937      470.46226    
  12330000   187.17547      309.37285      521.54865    
  12340000   177.35377      306.52857      516.75368    
  12350000   166.00742      306.51337      516.72806    
  12360000   186.86557      273.76471      461.51954    
  12370000   167.28324      292.09516      492.42148    
  12380000   186.66512      295.31072      497.84235    
  12390000   184.7221       295.96504      498.94542    
  12400000   182.89446      293.58786      494.9379     
  12410000   202.13269      312.72591      527.20132    
  12420000   211.81777      318.38696      536.74485    
  12430000   170.54228      323.50512      545.37319    
  12440000   200.9786       291.652        491.67439    
  12450000   196.35983      284.91004      480.30861    
  12460000   200.99824      322.62013      543.88125    
  12470000   189.34237      303.74085      512.05407    
  12480000   197.0931       293.86566      495.40623    
  12490000   193.21359      284.04451      478.84948    
  12500000   194.02179      302.52198      509.99927    
  12510000   197.45745      299.85036      505.49539    
  12520000   212.57567      279.92232      471.90019    
  12530000   181.60809      280.57986      473.00868    
  12540000   200.18437      297.99622      502.36962    
  12550000   189.9971       317.44713      535.16047    
  12560000   190.30504      296.75097      500.27035    
  12570000   166.94906      297.03102      500.74247    
  12580000   182.53803      293.0033       493.95243    
  12590000   203.35736      296.13373      499.2298     
  12600000   183.86094      290.4406       489.63217    
  12610000   221.51078      287.87656      485.30965    
  12620000   212.84052      325.76631      549.18515    
  12630000   226.22263      331.08152      558.14567    
  12640000   208.16415      320.56125      540.41034    
  12650000   185.49428      320.13859      539.6978     
  12660000   201.75263      303.75742      512.08201    
  12670000   174.89678      312.27263      526.43717    
  12680000   180.50158      295.03105      497.37088    
  12690000   190.53075      312.48399      526.79348    
  12700000   173.81176      290.17279      489.1807     
  12710000   185.9414       266.90436      449.95417    
  12720000   182.35399      287.68273      484.98288    
  12730000   185.98808      286.95531      483.75658    
  12740000   184.0268       296.3034       499.51583    
  12750000   196.27233      268.38716      452.45392    
  12760000   206.64521      299.98824      505.72783    
  12770000   178.46326      289.26096      487.64351    
  12780000   177.5234       314.35327      529.94476    
  12790000   172.76425      331.47492      558.80887    
  12800000   224.20536      304.55181      513.42121    
  12810000   195.43701      300.66323      506.86575    
  12820000   204.05975      314.26151      529.79007    
  12830000   211.81317      314.58531      530.33594    
  12840000   179.70868      326.88568      551.07221    
  12850000   165.54184      280.15817      472.29779    
  12860000   177.74521      273.2313       460.6203     
  12870000   174.25856      299.45661      504.8316     
  12880000   170.30359      316.04844      532.80252    
  12890000   192.05603      311.32122      524.83326    
  12900000   190.90268      297.12782      500.90566    
  12910000   177.18999      321.68514      542.30501    
  12920000   217.15778      327.19972      551.60164    
  12930000   183.95676      340.79419      574.51953    
  12940000   177.40812      295.14336      497.5602     
  12950000   184.9663       302.50302      509.96731    
  12960000   186.71991      288.31497      486.04873    
  12970000   202.73039      305.24725      514.5936     
  12980000   193.32863      288.71056      486.71564    
  12990000   210.619        309.03867      520.98527    
  13000000   216.49908      318.99565      537.77101    
  13010000   187.43568      337.42726      568.84349    
  13020000   205.78758      337.43836      568.8622     
  13030000   199.37847      305.64949      515.2717     
  13040000   204.73617      277.75276      468.24268    
  13050000   189.14788      293.83236      495.35008    
  13060000   155.39501      271.65013      457.95472    
[...]
 404740000  -67.712865      191.19714      322.32501    
 404750000  -66.295484      162.8259       274.49605    
 404760000  -68.166473      169.08014      285.03961    
 404770000  -69.307605      179.67591      302.90222    
 404780000  -63.212991      170.97461      288.23336    
 404790000  -51.613077      171.5127       289.14049    
 404800000  -42.549393      156.87044      264.45618    
 404810000  -63.544026      179.15657      302.02672    
 404820000  -53.281266      182.19356      307.14655    
 404830000  -71.275925      197.13667      332.33803    
 404840000  -72.705368      180.30665      303.96556    
 404850000  -46.765545      185.56185      312.82491    
 404860000  -59.531228      174.21818      293.70146    
 404870000  -59.889841      175.21277      295.37816    
 404880000  -51.9594        179.31886      302.30032    
 404890000  -39.431178      170.98331      288.24802    
 404900000  -58.679345      182.26736      307.27097    
 404910000  -43.67088       177.03761      298.45452    
 404920000  -48.668208      161.50504      272.26931    
 404930000  -60.943705      178.93319      301.65014    
 404940000  -47.885727      187.93756      316.82993    
 404950000  -43.30071       165.81648      279.53765    
 404960000  -39.018878      161.48945      272.24304    
 404970000  -49.214608      186.06308      313.66988    
 404980000  -42.617226      185.72354      313.09748    
 404990000  -69.945461      156.34573      263.57163    
 405000000  -56.249991      176.2004       297.04313    
 405010000  -71.452984      182.18113      307.1256     
 405020000  -54.408896      161.67362      272.55352    
 405030000  -45.977805      179.27713      302.22996    
 405040000  -48.394183      169.4381       285.64307    
 405050000  -52.043766      171.57172      289.23999    
 405060000  -52.666123      185.64054      312.95756    
 405070000  -41.783507      176.9939       298.38083    
 405080000  -45.792916      185.17851      312.17866    
 405090000  -36.432801      199.79957      336.82722    
 405100000  -41.329941      168.75519      284.4918     
 405110000  -75.451278      166.62116      280.8942     
 405120000  -62.928683      163.07735      274.91995    
 405130000  -44.597143      155.55572      262.23981    
 405140000  -61.092678      188.3637       317.54833    
 405150000  -53.571779      171.41423      288.97448    
 405160000  -76.73522       186.93819      315.14518    
 405170000  -81.010477      192.69241      324.84579    
 405180000  -82.316526      179.03936      301.82912    
 405190000  -58.835514      167.10291      281.70635    
 405200000  -49.848031      155.33772      261.87229    
 405210000  -70.439594      185.26253      312.32029    
 405220000  -62.96829       165.04691      278.24029    
 405230000  -70.418916      185.43604      312.61281    
 405240000  -58.817237      172.34492      290.54347    
 405250000  -60.05849       175.5566       295.9578     
 405260000  -65.371515      171.70667      289.46748    
 405270000  -70.632578      154.30417      260.12991    
 405280000  -79.251727      166.42342      280.56085    
 405290000  -61.581921      159.59827      269.05483    
 405300000  -70.043215      173.65434      292.75092    
 405310000  -64.228764      176.92952      298.27231    
 405320000  -49.035241      183.59782      309.51389    
 405330000  -49.044242      179.36766      302.38257    
 405340000  -29.045983      176.63206      297.77084    
 405350000  -37.887056      182.32454      307.36736    
 405360000  -59.434778      173.18088      291.95275    
 405370000  -80.750797      163.29277      275.28312    
 405380000  -55.653965      164.11351      276.66674    
 405390000  -40.539368      166.18742      280.163      
 405400000  -41.427926      181.038        305.19849    
 405410000  -45.534971      169.73119      286.13717    
 405420000  -48.689707      170.32061      287.13082    
 405430000  -48.980636      161.93605      272.99593    
 405440000  -81.413336      161.20452      271.7627     
 405450000  -67.016332      191.8514       323.42798    
 405460000  -65.427124      165.3818       278.80486    
 405470000  -72.847199      161.06914      271.53447    
 405480000  -106.00073      165.46566      278.94623    
 405490000  -87.900865      159.86233      269.49999    
 405500000  -92.897198      159.98375      269.70469    
 405510000  -86.180014      173.53255      292.54559    
 405520000  -75.326472      171.99427      289.95233    
 405530000  -60.991491      176.47074      297.49887    
 405540000  -45.467841      184.61627      311.23082    
 405550000  -41.958247      194.69466      328.22122    
 405560000  -60.118902      196.34737      331.00741    
 405570000  -52.571521      190.76186      321.59121    
 405580000  -47.749854      174.62947      294.39481    
 405590000  -58.992053      184.19983      310.52877    
 405600000  -51.785595      174.67245      294.46727    
 405610000  -41.252745      164.09222      276.63086    
 405620000  -66.264468      172.17363      290.2547     
 405630000  -70.758969      164.98292      278.13242    
 405640000  -74.012121      182.37571      307.45363    
 405650000  -68.567087      185.34208      312.45441    
 405660000  -57.424595      170.68015      287.73696    
 405670000  -78.027465      179.41156      302.45659    
 405680000  -87.554815      180.01684      303.47699    
 405690000  -59.884268      159.71977      269.25967    
 405700000  -70.372526      173.65619      292.75403    
 405710000  -64.996582      171.2831       288.75342    
 405720000  -59.780244      189.17861      318.92213    
 405730000  -66.871747      173.92681      293.21026    
 405740000  -69.948748      171.66301      289.39388    
 405750000  -107.32634      169.01515      284.93006    
 405760000  -97.446362      179.92055      303.31466    
 405770000  -74.620765      183.30678      309.02325    
 405780000  -67.78597       172.40434      290.64364    
 405790000  -94.525446      183.32096      309.04715    
 405800000  -62.307044      167.12679      281.74661    
 405810000  -66.81348       169.72204      286.12174    
 405820000  -76.215965      176.69317      297.87385    
 405830000  -64.033374      183.42903      309.22934    
 405840000  -78.83307       160.28284      270.20889    
 405850000  -72.464105      180.34452      304.02939    
 405860000  -86.170032      162.90116      274.62294    
 405870000  -108.1522       176.60563      297.72628    
 405880000  -68.053362      168.33985      283.79161    
 405890000  -44.910224      188.40584      317.61938    
 405900000  -35.908335      180.76997      304.74662    
 405910000  -49.441426      176.38077      297.34719    
 405920000  -71.61377       181.524        306.0178     
 405930000  -63.453725      190.42547      321.02411    
 405940000  -79.525393      169.86398      286.36103    
 405950000  -98.96362       193.8422       326.78413    
 405960000  -87.889882      171.91297      289.81527    
 405970000  -92.828801      178.27887      300.54706    
 405980000  -63.164877      166.6248       280.90033    
 405990000  -85.784592      181.19784      305.46794    
 406000000  -79.184636      187.26656      315.69874    
 406010000  -63.564127      183.27051      308.9621     
 406020000  -59.085654      173.48756      292.46976    
 406030000  -54.054618      168.6266       284.27502    
 406040000  -43.040132      161.04648      271.49627    
 406050000  -75.280294      173.84704      293.07578    
 406060000  -72.394471      191.7101       323.18978    
 406070000  -18.874994      159.47989      268.85526    
 406080000  -56.546675      195.52395      329.61926    
 406090000  -48.291994      166.4054       280.53047    
 406100000  -58.625089      178.42077      300.78629    
 406110000  -58.797305      184.0671       310.30501    
 406120000  -52.543092      187.01243      315.27033    
 406130000  -45.931529      181.77437      306.43987    
 406140000  -40.676623      170.97854      288.23999    
 406150000  -61.969087      187.07977      315.38385    
 406160000  -67.80317       194.13523      327.27813    
 406170000  -70.699611      194.06143      327.15372    
 406180000  -61.244655      171.54727      289.19876    
 406190000  -77.868353      175.71787      296.22966    
 406200000  -92.289106      181.8728       306.60581    
 406210000  -93.878679      174.45301      294.09734    
 406220000  -79.596063      197.70034      333.28828    
 406230000  -78.184193      179.21706      302.12869    
 406240000  -59.479436      188.97226      318.57426    
 406250000  -59.27693       177.62337      299.44201    
 406260000  -75.593835      179.30701      302.28033    
 406270000  -62.524745      165.38952      278.81788    
 406280000  -81.617415      173.87563      293.12398    
 406290000  -68.801416      173.00716      291.65989    
 406300000  -74.642496      173.49341      292.47962    
 406310000  -96.478619      185.89513      313.38675    
 406320000  -71.001093      179.35526      302.36166    
 406330000  -83.927634      177.21342      298.7509     
 406340000  -81.155123      176.42496      297.4217     
 406350000  -81.122904      164.27815      276.9443     
 406360000  -56.043756      164.77374      277.77978    
 406370000  -76.446876      178.13892      300.31113    
 406380000  -69.843405      172.92691      291.52459    
 406390000  -76.508106      176.18177      297.01172    
 406400000  -87.931963      178.01611      300.10411    
 406410000  -65.688625      179.57667      302.73494    
 406420000  -42.594725      183.19961      308.84258    
 406430000  -30.388327      188.07714      317.06525    
 406440000  -33.118143      202.49168      341.36565    
 406450000  -39.17831       180.83262      304.85225    
 406460000  -60.712365      170.40292      287.26958    
 406470000  -67.961508      196.85966      331.87104    
 406480000  -95.007125      176.23325      297.09851    
 406490000  -78.927902      168.50277      284.06626    
 406500000  -92.778987      178.17942      300.37942    
 406510000  -98.206723      184.27757      310.65983    
 406520000  -84.116748      182.84087      308.2378     
 406530000  -71.951084      177.39381      299.05501    
 406540000  -77.872895      172.13939      290.19697    
 406550000  -71.380094      163.56964      275.74986    
 406560000  -71.196739      175.38591      295.67005    
 406570000  -80.904915      181.08893      305.28434    
 406580000  -72.926449      181.03267      305.18949    
 406590000  -51.237071      163.29052      275.27932    
 406600000  -62.041592      181.26772      305.58574    
 406610000  -72.181436      188.63058      317.99824    
 406620000  -72.597667      172.65394      291.06442    
 406630000  -94.561974      175.23316      295.41252    
 406640000  -69.988812      167.82792      282.92858    
 406650000  -78.596934      169.81285      286.27484    
 406660000  -74.971675      166.17716      280.1457     
 406670000  -67.360437      182.06794      306.93477    
 406680000  -67.197524      172.96378      291.58676    
 406690000  -68.411046      186.21132      313.91979    
 406700000  -83.101661      190.82282      321.69398    
 406710000  -76.085171      177.57071      299.35323    
 406720000  -87.201805      184.53771      311.09838    
 406730000  -76.23396       171.46517      289.06035    
 406740000  -72.990477      174.58231      294.31531    
 406750000  -70.538816      178.89215      301.58094    
 406760000  -52.777817      183.65519      309.6106     
 406770000  -59.959347      194.94221      328.63855    
 406780000  -57.870235      189.68         319.76738    
 406790000  -55.390025      187.90193      316.76986    
 406800000  -35.721785      175.62696      296.07641    
 406810000  -53.114401      195.65858      329.84623    
 406820000  -31.696312      179.97402      303.40479    
 406830000  -52.133907      203.05957      342.323      
 406840000  -56.46679       178.54969      301.00363    
 406850000  -59.535642      182.09547      306.98119    
 406860000  -64.900507      183.15971      308.77531    
 406870000  -68.984497      196.49723      331.26004    
 406880000  -58.289483      192.13658      323.90874    
 406890000  -62.407212      185.5845       312.86309    
 406900000  -62.082871      175.66324      296.13758    
 406910000  -65.142041      185.10243      312.0504     
 406920000  -72.857542      186.27187      314.02187    
 406930000  -79.462477      171.50873      289.13379    
 406940000  -73.487692      174.83861      294.74738    
 406950000  -64.110473      177.31883      298.92861    
 406960000  -58.199603      182.20239      307.16144    
 406970000  -73.344781      190.77477      321.61298    
 406980000  -63.538305      183.00082      308.50745    
 406990000  -64.913723      176.91456      298.24708    
 407000000  -64.165842      178.72905      301.30599    
 407010000  -37.324751      187.77594      316.55747    
 407020000  -47.573461      178.03969      300.14385    
 407030000  -53.671497      180.86585      304.90827    
 407040000  -49.667407      183.27689      308.97285    
 407050000  -35.109561      179.81023      303.12868    
 407060000  -49.381627      186.19568      313.89342    
 407070000  -37.390654      193.1694       325.64989    
 407080000  -39.61437       178.70572      301.26665    
 407090000  -52.573941      182.80363      308.17502    
 407100000  -71.035506      189.45737      319.39206    
 407110000  -47.007088      165.38074      278.80307    
 407120000  -57.264718      185.74231      313.12913    
 407130000  -44.343971      184.3593       310.79761    
 407140000  -77.078515      196.31396      330.95109    
 407150000  -44.863327      186.43693      314.30013    
 407160000  -64.965059      158.75248      267.62897    
 407170000  -61.868092      184.29246      310.68493    
 407180000  -47.099267      190.27033      320.76257    
 407190000  -50.696986      195.97563      330.38072    
 407200000  -49.45086       191.77781      323.30393    
 407210000  -49.640038      172.45106      290.7224     
 407220000  -38.252893      172.72948      291.19177    
 407230000  -42.887739      187.06268      315.35503    
 407240000  -56.43674       180.80236      304.80123    
 407250000  -63.830488      175.2412       295.42608    
 407260000  -61.308438      189.31434      319.15095    
 407270000  -47.44355       177.44995      299.14965    
 407280000  -54.194593      181.24296      305.544      
 407290000  -37.892592      172.52963      290.85485    
 407300000  -41.280957      181.63119      306.19849    
 407310000  -30.860036      180.24659      303.8643     
 407320000  -38.94235       188.35732      317.53758    
 407330000  -50.053319      178.44286      300.82353    
 407340000  -55.350495      170.10547      286.76814    
 407350000  -77.17313       193.68261      326.51508    
 407360000  -37.178842      167.04923      281.61585    
 407370000  -43.988569      171.8134       289.64742    
 407380000  -36.143633      161.45711      272.18851    
 407390000  -65.036523      177.31179      298.91674    
 407400000  -66.065804      178.93962      301.66097    
 407410000  -85.455497      184.85247      311.629      
 407420000  -33.511121      170.85539      288.03238    
 407430000  -71.602311      181.29361      305.6294     
 407440000  -63.284504      171.40744      288.96304    
 407450000  -73.690825      194.3092       327.5714     
 407460000  -98.010608      186.90586      315.09067    
 407470000  -75.411324      182.02731      306.86628    
 407480000  -66.310224      182.62266      307.86993    
 407490000  -60.992871      182.08926      306.97072    
 407500000  -33.87159       185.22095      312.2502     
 407510000  -51.104497      178.15418      300.33686    
 407520000  -47.929102      177.22102      298.76372    
 407530000  -50.598477      173.4712       292.44218    
 407540000  -68.984284      189.47263      319.41779    
 407550000  -60.597008      163.75498      276.06233    
 407560000  -44.41232       188.50933      317.79384    
 407570000  -57.992662      190.95854      321.92278    
 407580000  -45.790888      183.54637      309.42715    
 407590000  -70.457572      176.04699      296.78451    
 407600000  -56.435172      178.29159      300.56851    
 407610000  -61.511196      167.6475       282.62443    
 407620000  -67.910747      188.15382      317.19451    
 407630000  -61.353616      188.94606      318.53009    
 407640000  -61.538993      183.36896      309.12806    
 407650000  -52.42687       200.6998       338.34484    
 407660000  -50.232357      187.52379      316.13239    
 407670000  -70.139524      172.92534      291.52195    
 407680000  -62.790028      195.8911       330.23822    
 407690000  -39.614844      177.92868      299.95671    
 407700000  -52.644916      203.71583      343.42934    
 407710000  -49.31329       193.63323      326.43183    
 407720000  -66.015171      177.61807      299.43307    
 407730000  -37.308382      157.61441      265.71039    
 407740000  -50.259635      187.90879      316.78143    
 407750000  -63.701758      183.95095      310.1092     
 407760000  -54.153181      185.53211      312.77476    
 407770000  -68.619157      184.24268      310.60101    
 407780000  -69.123743      194.18034      327.35417    
 407790000  -75.006983      178.69329      301.2457     
 407800000  -86.782505      177.09859      298.55732    
 407810000  -89.156027      179.49864      302.60339    
 407820000  -67.499148      163.15924      275.05801    
 407830000  -46.437588      200.33753      337.73411    
 407840000  -41.104573      181.3043       305.64742    
 407850000  -64.977733      205.21996      345.96504    
 407860000  -72.964443      184.39618      310.85978    
 407870000  -52.031792      159.66595      269.16893    
 407880000  -73.915939      179.73977      303.00989    
 407890000  -71.375073      193.50111      326.20911    
 407900000  -81.503657      182.15568      307.0827     
 407910000  -86.554601      179.56094      302.70841    
 407920000  -85.461553      180.20145      303.78821    
 407930000  -69.198571      175.5984       296.02827    
 407940000  -67.617829      174.45965      294.10853    
 407950000  -45.808556      180.28323      303.92607    
 407960000  -49.911655      168.65484      284.32264    
 407970000  -50.066749      182.4011       307.49642    
 407980000  -73.18888       184.51269      311.0562     
 407990000  -63.804253      179.10805      301.94492    
 408000000  -73.21424       181.46696      305.92164    
Loop time of 679.15 on 1 procs for 4000000 steps with 200 atoms

Performance: 5088.716 ns/day, 0.005 hours/ns, 5889.718 timesteps/s, 1.178 Matom-step/s
99.2% CPU use with 1 MPI tasks x 1 OpenMP threads

MPI task timing breakdown:
Section |  min time  |  avg time  |  max time  |%varavg| %total
---------------------------------------------------------------
Pair    | 596.3      | 596.3      | 596.3      |   0.0 | 87.80
Bond    | 39.795     | 39.795     | 39.795     |   0.0 |  5.86
Neigh   | 13.435     | 13.435     | 13.435     |   0.0 |  1.98
Comm    | 12.083     | 12.083     | 12.083     |   0.0 |  1.78
Output  | 0.14301    | 0.14301    | 0.14301    |   0.0 |  0.02
Modify  | 16.394     | 16.394     | 16.394     |   0.0 |  2.41
Other   |            | 0.9994     |            |       |  0.15

Nlocal:            200 ave         200 max         200 min
Histogram: 1 0 0 0 0 0 0 0 0 0
Nghost:             90 ave          90 max          90 min
Histogram: 1 0 0 0 0 0 0 0 0 0
Neighs:           1616 ave        1616 max        1616 min
Histogram: 1 0 0 0 0 0 0 0 0 0

Total # of neighbors = 1616
Ave neighs/atom = 8.08
Ave special neighs/atom = 5.94
Neighbor list builds = 9411
Dangerous builds = 0
System init for write_data ...
Generated 0 of 6 mixed pair_coeff terms from geometric mixing rule
Total wall time: 12:55:08
