LAMMPS (29 Aug 2024)
  using 1 OpenMP thread(s) per MPI task
  using 1 OpenMP thread(s) per MPI task
Reading data file ...
  orthogonal box = (-500.6 -500.6 -500.6) to (500.6 500.6 500.6)
  1 by 1 by 1 MPI processor grid
  reading atoms ...
  100 atoms
  scanning bonds ...
  1 = max bonds/atom
  scanning angles ...
  1 = max angles/atom
  orthogonal box = (-500.6 -500.6 -500.6) to (500.6 500.6 500.6)
  1 by 1 by 1 MPI processor grid
  reading bonds ...
  99 bonds
  reading angles ...
  98 angles
Finding 1-2 1-3 1-4 neighbors ...
  special bond factors lj:    0        0        0       
  special bond factors coul:  0        0        0       
     2 = max # of 1-2 neighbors
     2 = max # of 1-3 neighbors
     4 = max # of 1-4 neighbors
     6 = max # of special neighbors
  special bonds CPU = 0.000 seconds
  read_data CPU = 0.007 seconds
Finding 1-2 1-3 1-4 neighbors ...
  special bond factors lj:    0        0        1       
  special bond factors coul:  0        0        0       
     2 = max # of 1-2 neighbors
     2 = max # of 1-3 neighbors
     4 = max # of 1-4 neighbors
     6 = max # of special neighbors
  special bonds CPU = 0.000 seconds

CITE-CITE-CITE-CITE-CITE-CITE-CITE-CITE-CITE-CITE-CITE-CITE-CITE

Your simulation uses code contributions which should be cited:
- Type Label Framework: https://doi.org/10.1021/acs.jpcb.3c08419
The log file lists these citations in BibTeX format.

CITE-CITE-CITE-CITE-CITE-CITE-CITE-CITE-CITE-CITE-CITE-CITE-CITE

Generated 0 of 6 mixed pair_coeff terms from geometric mixing rule
Neighbor list info ...
  update: every = 10 steps, delay = 0 steps, check = yes
  max neighbors/atom: 2000, page size: 100000
  master list distance cutoff = 33
  ghost atom cutoff = 33
  binsize = 16.5, bins = 61 61 61
  2 neighbor lists, perpetual/occasional/extra = 2 0 0
  (1) pair lj/cut, perpetual, trim from (2)
      attributes: half, newton on, cut 25
      pair build: trim
      stencil: none
      bin: none
  (2) pair base/rna, perpetual
      attributes: half, newton on
      pair build: half/bin/newton
      stencil: half/bin/3d
      bin: standard
Setting up Verlet run ...
  Unit style    : real
  Current step  : 0
  Time step     : 10
Per MPI rank memory allocation (min/avg/max) = 8.37 | 8.37 | 8.37 Mbytes
   Step         PotEng         KinEng          Temp     
         0   134.33628      0              0            
     10000   52.031646      82.552634      279.74442    
     20000   49.478534      91.586336      310.35675    
     30000   56.265167      84.582048      286.62146    
     40000   53.291549      78.769736      266.9254     
     50000   52.905792      93.408853      316.53267    
     60000   53.798505      91.856967      311.27383    
     70000   46.886944      85.664331      290.28897    
     80000   65.308862      85.80152       290.75386    
     90000   58.180445      96.5734        327.25631    
    100000   63.375103      94.779208      321.17636    
    110000   73.597887      92.211648      312.47573    
    120000   59.855173      89.429988      303.04957    
    130000   50.11518       92.893864      314.78754    
    140000   49.378516      85.391184      289.36336    
    150000   62.258555      97.162555      329.25276    
    160000   49.599001      95.073507      322.17365    
    170000   54.993332      74.186938      251.39576    
    180000   54.363786      91.973195      311.66768    
    190000   57.151862      85.894515      291.06899    
    200000   55.161104      86.452563      292.96003    
    210000   59.305983      85.883395      291.0313     
    220000   45.326285      87.421498      296.24344    
    230000   53.581523      80.234171      271.8879     
    240000   56.156994      89.331313      302.7152     
    250000   43.803213      94.433418      320.00459    
    260000   43.486561      100.20954      339.57803    
    270000   50.018924      95.252913      322.7816     
    280000   40.316483      85.579635      290.00196    
    290000   36.215674      90.641247      307.15414    
    300000   51.86128       99.12074       335.88843    
    310000   54.007739      90.422196      306.41185    
    320000   54.897467      84.692728      286.99652    
    330000   50.798143      99.546738      337.332      
    340000   47.178644      95.255538      322.79049    
    350000   38.864972      89.877931      304.56751    
    360000   39.078544      86.976535      294.73561    
    370000   23.745543      88.070568      298.44293    
    380000   12.733399      88.63617       300.35958    
    390000   6.1672395      86.630477      293.56293    
    400000  -9.8807676      83.454298      282.79987    
    410000  -13.232668      86.134333      291.88166    
    420000  -42.254792      101.57878      344.21795    
    430000  -24.366634      90.527143      306.76748    
    440000  -15.975939      85.275214      288.97038    
    450000  -12.878414      83.102792      281.60873    
    460000  -20.667842      84.452336      286.18191    
    470000  -23.976169      85.208326      288.74371    
    480000  -23.20584       92.572808      313.69958    
    490000  -11.580033      81.43922       275.97142    
    500000   2.8664097      80.655434      273.31542    
    510000  -15.501007      94.279317      319.4824     
    520000  -6.8623412      92.93177       314.91599    
    530000  -18.81476       73.786223      250.03786    
    540000  -31.922373      82.451597      279.40204    
    550000  -26.274377      88.48548       299.84894    
    560000  -21.799829      96.261649      326.19988    
    570000  -11.964429      92.383784      313.05904    
    580000  -16.905236      83.726247      283.72142    
    590000  -15.156709      76.996249      260.91561    
    600000  -5.4039658      81.660337      276.72071    
    610000  -7.065107       83.926457      284.39987    
    620000  -2.244971       92.780748      314.40423    
    630000  -1.3860667      90.710465      307.3887     
    640000  -4.2675282      83.944474      284.46093    
    650000   0.69727317     89.148244      302.09483    
    660000   3.5394849      91.169317      308.9436     
    670000  -0.37484365     77.697927      263.29338    
    680000  -6.0514256      86.217099      292.16212    
    690000  -4.1053068      79.09189       268.01707    
    700000   7.5442527      83.891552      284.28159    
    710000   1.4503165      81.00895       274.51337    
    720000  -0.78144673     83.314799      282.32716    
    730000   2.8921281      82.609514      279.93717    
    740000  -16.75038       87.205224      295.51056    
    750000   4.7059327      92.779603      314.40035    
    760000  -5.6284602      102.05811      345.84224    
    770000   3.1365394      86.828466      294.23385    
    780000  -6.0950411      86.792374      294.11155    
    790000   2.7388526      95.977489      325.23695    
    800000  -4.2762143      79.526891      269.49115    
    810000  -6.2632187      85.115812      288.43021    
    820000   3.946362       88.973051      301.50116    
    830000   22.027943      94.737796      321.03603    
    840000   3.3957057      98.797875      334.79434    
    850000   8.4410522      82.498919      279.5624     
    860000   3.2873201      96.05526       325.5005     
    870000  -6.9496505      87.703778      297.2        
    880000  -12.327386      84.803794      287.37288    
    890000  -27.831882      86.721167      293.87025    
    900000  -16.161765      84.533008      286.45528    
    910000  -12.055761      96.426354      326.75801    
    920000  -22.428475      91.200091      309.04789    
    930000  -31.394982      89.786827      304.25879    
    940000  -30.604164      82.493216      279.54307    
    950000  -32.125261      76.929718      260.69016    
    960000  -41.186928      93.139262      315.61911    
    970000  -10.354502      85.501871      289.73844    
    980000  -5.439418       93.848413      318.0222     
    990000  -2.7428743      77.414037      262.33137    
   1000000  -19.280288      90.726333      307.44247    
   1010000  -10.579675      80.923413      274.22352    
   1020000  -16.017222      91.003353      308.3812     
   1030000  -14.505383      91.82717       311.17285    
   1040000  -19.178914      79.305077      268.7395     
   1050000  -21.888471      81.201525      275.16595    
   1060000  -25.444451      88.371279      299.46195    
   1070000  -24.993         89.35054       302.78035    
   1080000  -29.918478      88.284708      299.16859    
   1090000  -17.156071      83.736455      283.75601    
   1100000  -14.939142      84.390636      285.97282    
   1110000  -7.4469664      90.05025       305.15144    
   1120000  -15.625847      90.755009      307.53964    
   1130000  -41.939164      84.706871      287.04444    
   1140000  -44.600163      91.457805      309.92119    
   1150000  -30.96064       95.458277      323.47751    
   1160000  -22.97589       85.846311      290.90564    
   1170000  -22.691937      92.786436      314.4235     
   1180000  -28.388174      96.899549      328.36152    
   1190000  -34.430854      99.271416      336.39902    
   1200000  -26.786599      92.708065      314.15792    
   1210000  -21.656791      83.719984      283.7002     
   1220000  -32.564842      97.605953      330.7553     
   1230000  -30.249126      88.105207      298.56031    
   1240000  -27.291075      85.412047      289.43406    
   1250000  -34.057254      87.240467      295.62999    
   1260000  -26.948295      84.008406      284.67757    
   1270000  -26.119953      88.126042      298.63092    
   1280000  -35.728352      85.832995      290.86051    
   1290000  -43.037893      80.804012      273.81891    
   1300000  -36.442535      74.41591       252.17167    
   1310000  -25.376095      91.155366      308.89633    
   1320000  -31.972216      87.679458      297.11759    
   1330000  -34.696232      86.49395       293.10028    
   1340000  -38.291355      85.903309      291.09879    
   1350000  -23.867284      83.371442      282.5191     
   1360000  -30.041215      71.936475      243.76966    
   1370000  -31.669072      83.72163       283.70578    
   1380000  -33.695126      83.77887       283.89975    
   1390000  -31.303158      86.501627      293.1263     
   1400000  -31.444512      99.702982      337.86146    
   1410000  -31.316279      84.761384      287.22917    
   1420000  -36.96553       91.866693      311.30679    
   1430000  -20.571492      86.996112      294.80195    
   1440000  -31.777599      91.979013      311.6874     
   1450000  -26.363967      83.501238      282.95894    
   1460000  -30.040168      77.965945      264.2016     
   1470000  -42.496219      86.427845      292.87627    
   1480000  -42.314021      87.024587      294.89844    
   1490000  -16.968304      91.346661      309.54456    
   1500000  -28.3065        78.36411       265.55086    
   1510000  -15.237186      91.824684      311.16443    
   1520000  -17.889345      90.839269      307.82517    
   1530000  -24.203729      81.102103      274.82904    
   1540000  -32.233246      78.701967      266.69575    
   1550000  -42.20703       80.822317      273.88093    
   1560000  -36.535525      74.438478      252.24815    
   1570000  -29.104372      76.91181       260.62948    
   1580000  -37.136185      93.241477      315.96549    
   1590000  -20.030754      85.233226      288.82809    
   1600000  -8.2888249      90.121342      305.39235    
   1610000  -10.156134      77.350974      262.11767    
   1620000  -3.1843359      89.279653      302.54014    
   1630000  -16.904852      89.171529      302.17374    
   1640000  -11.556295      94.517541      320.28966    
   1650000  -24.263265      97.752478      331.25182    
   1660000  -16.918425      97.274536      329.63223    
   1670000  -9.416377       81.328272      275.59545    
   1680000  -3.3340095      93.349792      316.33253    
   1690000  -12.107416      91.670468      310.64184    
   1700000  -4.9227532      95.236944      322.72749    
   1710000  -18.430012      91.024801      308.45388    
   1720000  -24.299762      95.860874      324.84179    
   1730000  -9.3016264      81.891743      277.50488    
   1740000  -30.42872       96.454187      326.85233    
   1750000  -37.598521      83.76897       283.8662     
   1760000  -26.778795      85.951656      291.26262    
   1770000  -20.597165      70.797752      239.91089    
   1780000  -40.780385      89.693916      303.94394    
   1790000  -33.725178      81.022197      274.55826    
   1800000  -24.885754      90.497125      306.66576    
   1810000  -19.046697      80.486551      272.74313    
   1820000  -21.055509      82.872218      280.82739    
   1830000  -17.142601      90.348337      306.16156    
   1840000  -28.081705      105.8991       358.8581     
   1850000  -10.296753      94.889409      321.5498     
   1860000  -7.5110999      82.502166      279.5734     
   1870000  -10.15774       80.683278      273.40978    
   1880000   3.8794504      94.881691      321.52365    
   1890000  -15.809851      105.35501      357.01438    
   1900000  -28.667288      106.13249      359.649      
   1910000  -23.663965      84.870879      287.60021    
   1920000  -30.1152        87.058084      295.01195    
   1930000  -17.855968      82.109123      278.24151    
   1940000  -31.555839      89.554304      303.47084    
   1950000  -35.902788      85.475887      289.65039    
   1960000  -49.686282      96.66765       327.57569    
   1970000  -44.676116      85.896257      291.07489    
   1980000  -34.675495      80.53777       272.9167     
   1990000  -38.805738      76.347014      258.71557    
   2000000  -32.736137      80.368935      272.34457    
   2010000  -22.463304      87.101541      295.15921    
   2020000  -24.760026      95.116081      322.31792    
   2030000  -20.296339      93.187457      315.78243    
   2040000  -32.106607      89.350434      302.77999    
   2050000  -20.229795      82.531669      279.67338    
   2060000  -22.9367        85.182337      288.65564    
   2070000  -40.277263      87.975478      298.1207     
   2080000  -27.734654      78.664573      266.56903    
   2090000  -34.013034      85.04567       288.19252    
   2100000  -27.307171      73.190028      248.01755    
   2110000  -30.73474       91.996026      311.74505    
   2120000  -10.898142      96.079981      325.58427    
   2130000  -22.017521      94.964208      321.80327    
   2140000  -23.88016       92.577505      313.7155     
   2150000  -40.575072      88.060813      298.40988    
   2160000  -43.389636      93.630733      317.28455    
   2170000  -29.617892      80.420174      272.5182     
   2180000  -35.508807      97.893416      331.72942    
   2190000  -44.881774      86.074317      291.67828    
   2200000  -32.076646      77.503791      262.63551    
   2210000  -40.164706      83.803772      283.98413    
   2220000  -44.074943      76.713322      259.95687    
   2230000  -43.134965      81.387406      275.79584    
   2240000  -23.670431      87.940797      298.00318    
   2250000  -33.730854      96.031062      325.4185     
   2260000  -29.678705      90.047136      305.14089    
   2270000  -32.474094      87.471585      296.41317    
   2280000  -45.425996      94.438514      320.02186    
   2290000  -52.31918       86.271703      292.34716    
   2300000  -46.857796      86.409551      292.81428    
   2310000  -62.895081      76.793138      260.22734    
   2320000  -55.816084      74.092573      251.07599    
   2330000  -58.11172       91.709603      310.77446    
   2340000  -31.047011      94.887684      321.54396    
   2350000  -25.987976      93.673622      317.42989    
   2360000  -37.163467      92.378379      313.04072    
   2370000  -29.349405      81.386698      275.79344    
   2380000  -36.228335      86.199678      292.10309    
   2390000  -30.296303      81.371041      275.74038    
   2400000  -46.431745      82.675508      280.16081    
   2410000  -35.176051      81.808377      277.22237    
   2420000  -41.574485      89.742599      304.10891    
   2430000  -31.041194      83.783979      283.91706    
   2440000  -28.37688       97.960761      331.95763    
   2450000  -20.799586      83.986701      284.60402    
   2460000  -44.243876      89.8896        304.60705    
   2470000  -43.285335      85.500197      289.73277    
   2480000  -50.037406      83.32385       282.35783    
   2490000  -40.281909      89.245829      302.42552    
   2500000  -34.636643      81.13827       274.9516     
   2510000  -50.77013       72.979598      247.30447    
   2520000  -55.806167      78.814771      267.078      
   2530000  -63.373575      101.76651      344.85408    
   2540000  -55.242078      94.309135      319.58344    
   2550000  -44.093991      76.147823      258.04057    
   2560000  -48.364288      76.442736      259.03994    
   2570000  -46.49266       85.165756      288.59946    
   2580000  -55.158763      88.79301       300.89106    
   2590000  -45.748806      77.393088      262.26038    
   2600000  -49.378657      77.769238      263.53503    
   2610000  -41.787069      95.135775      322.38466    
   2620000  -38.194599      98.026754      332.18126    
   2630000  -24.023316      80.785619      273.75657    
   2640000  -15.419336      80.356428      272.30218    
   2650000  -43.304632      95.203893      322.61549    
   2660000  -34.720554      77.657575      263.15664    
   2670000  -49.208491      73.860263      250.28877    
   2680000  -46.939687      70.532384      239.01165    
   2690000  -55.861411      94.923091      321.66394    
   2700000  -38.319951      86.895386      294.46062    
   2710000  -38.440105      88.799761      300.91393    
   2720000  -45.989064      85.957122      291.28114    
   2730000  -59.546757      85.448221      289.55664    
   2740000  -44.210571      71.308339      241.64111    
   2750000  -41.028061      86.060411      291.63116    
   2760000  -56.610214      94.138415      319.00492    
   2770000  -47.125082      79.534546      269.51709    
   2780000  -38.050631      85.63815       290.20025    
   2790000  -38.143335      99.796801      338.17938    
   2800000  -32.485931      78.502955      266.02136    
   2810000  -36.7141        95.031587      322.0316     
   2820000  -31.698971      87.189427      295.45703    
   2830000  -20.411599      102.71717      348.07558    
   2840000  -32.832139      86.66997       293.69676    
   2850000  -28.643095      88.746907      300.73483    
   2860000  -39.561256      83.970235      284.54822    
   2870000  -51.382977      88.380485      299.49314    
   2880000  -49.186472      73.178086      247.97709    
   2890000  -58.886854      89.068252      301.82376    
   2900000  -56.350895      83.646534      283.4513     
   2910000  -48.580798      83.586266      283.24707    
   2920000  -44.59398       71.205374      241.2922     
   2930000  -43.101363      76.663574      259.78829    
   2940000  -57.12183       88.668589      300.46944    
   2950000  -37.569815      92.606645      313.81424    
   2960000  -42.473327      98.288618      333.06863    
   2970000  -19.297142      83.57065       283.19415    
   2980000  -30.823158      95.211686      322.64189    
   2990000  -12.596376      85.339196      289.18719    
   3000000  -31.876809      101.10488      342.61203    
   3010000  -41.222328      88.10102       298.54613    
   3020000  -41.570919      97.988643      332.05211    
   3030000  -53.1683        88.229704      298.9822     
   3040000  -50.085497      73.721733      249.81933    
   3050000  -44.624807      86.963676      294.69203    
   3060000  -37.246868      84.308888      285.69581    
   3070000  -43.16378       85.622496      290.1472     
   3080000  -29.716851      84.324435      285.74849    
   3090000  -62.685268      97.390924      330.02663    
   3100000  -48.206998      85.614446      290.11992    
   3110000  -52.692523      83.078318      281.5258     
   3120000  -54.509452      82.0744        278.12384    
   3130000  -43.417834      82.119681      278.27728    
   3140000  -50.209267      98.859933      335.00463    
   3150000  -32.458267      86.396053      292.76854    
   3160000  -30.549632      100.94314      342.06396    
   3170000  -27.044873      84.00925       284.68043    
   3180000  -27.762882      79.896249      270.74279    
   3190000  -14.912571      83.171479      281.84149    
   3200000  -33.131717      105.71718      358.24166    
   3210000  -23.535743      92.65152       313.96631    
   3220000  -8.8724669      81.767954      277.08539    
   3230000  -20.984622      97.085486      328.9916     
   3240000  -15.992782      100.61331      340.94628    
   3250000  -30.005196      87.341747      295.97319    
   3260000  -49.077731      99.697766      337.84378    
   3270000  -40.76999       79.308997      268.75278    
   3280000  -32.71774       83.580714      283.22826    
   3290000  -38.173831      98.30165       333.11279    
   3300000  -37.631995      91.801946      311.08738    
   3310000  -19.512501      85.867538      290.97757    
   3320000  -22.259519      86.279048      292.37205    
   3330000  -28.391537      81.832229      277.3032     
   3340000  -50.707644      103.94723      352.24385    
   3350000  -48.247433      93.924382      318.27963    
   3360000  -45.222167      103.83594      351.86671    
   3370000  -36.441725      75.366899      255.39427    
   3380000  -48.414635      98.91149       335.17934    
   3390000  -31.218332      85.832203      290.85783    
   3400000  -37.885535      79.12233       268.12022    
   3410000  -43.058458      88.731878      300.6839     
   3420000  -56.479512      85.840134      290.88471    
   3430000  -59.673833      84.798976      287.35656    
   3440000  -44.218815      89.410304      302.98287    
   3450000  -40.847403      85.532632      289.84268    
   3460000  -45.172856      82.092023      278.18356    
   3470000  -49.189803      82.283634      278.83287    
   3480000  -29.51916       71.577899      242.55456    
   3490000  -31.41554       85.088763      288.33855    
   3500000  -40.121746      98.924051      335.22191    
   3510000  -39.356881      102.33613      346.78436    
   3520000  -20.835388      94.6266        320.65922    
   3530000  -37.689153      86.166808      291.9917     
   3540000  -43.376426      86.668065      293.6903     
   3550000  -36.76587       98.593287      334.10106    
   3560000  -39.481694      84.317539      285.72512    
   3570000  -30.697541      86.617309      293.5183     
   3580000  -35.07716       81.16893       275.0555     
   3590000  -50.832246      87.037818      294.94327    
   3600000  -59.79524       103.19574      349.69731    
   3610000  -38.042489      93.701236      317.52346    
   3620000  -42.358558      90.365329      306.21914    
   3630000  -28.77102       85.908078      291.11495    
   3640000  -31.451205      90.409259      306.36801    
   3650000  -38.406656      79.278603      268.64978    
   3660000  -31.093374      89.324159      302.69095    
   3670000  -21.523224      85.301852      289.06064    
   3680000  -42.697741      85.063785      288.25391    
   3690000  -54.884509      87.259401      295.69415    
   3700000  -42.552117      89.5325        303.39695    
   3710000  -20.545363      88.695787      300.5616     
   3720000  -12.692747      87.228304      295.58877    
   3730000  -24.150986      101.22349      343.01399    
   3740000  -30.66601       89.758614      304.16318    
   3750000  -31.787812      95.759654      324.49878    
   3760000  -19.074282      88.610587      300.27289    
   3770000  -23.818791      78.818789      267.09162    
   3780000  -26.706965      79.243399      268.53049    
   3790000  -41.257173      87.875328      297.78133    
   3800000  -30.394545      92.773192      314.37862    
   3810000  -43.266375      86.942584      294.62056    
   3820000  -50.592897      99.378175      336.76079    
   3830000  -36.939918      92.541653      313.59401    
   3840000  -49.034545      90.522589      306.75205    
   3850000  -48.19194       87.617443      296.90744    
   3860000  -47.548697      73.239176      248.1841     
   3870000  -44.20792       89.183968      302.21589    
   3880000  -33.342784      103.22768      349.80553    
   3890000  -21.289333      80.566206      273.01305    
   3900000  -26.236864      95.168419      322.49528    
   3910000  -16.224519      88.602947      300.247      
   3920000  -12.167237      84.921574      287.772      
   3930000  -21.281984      95.18584       322.55431    
   3940000  -12.975932      94.911876      321.62593    
   3950000  -30.113591      101.00107      342.26027    
   3960000  -23.249287      100.61195      340.94166    
   3970000  -31.497281      87.973409      298.11369    
   3980000  -35.642807      93.700992      317.52264    
   3990000  -32.621332      93.230812      315.92935    
   4000000  -32.369788      93.35541       316.35157    
Loop time of 286.828 on 1 procs for 4000000 steps with 100 atoms

Performance: 12049.027 ns/day, 0.002 hours/ns, 13945.633 timesteps/s, 1.395 Matom-step/s
99.2% CPU use with 1 MPI tasks x 1 OpenMP threads

MPI task timing breakdown:
Section |  min time  |  avg time  |  max time  |%varavg| %total
---------------------------------------------------------------
Pair    | 253.59     | 253.59     | 253.59     |   0.0 | 88.41
Bond    | 19.722     | 19.722     | 19.722     |   0.0 |  6.88
Neigh   | 1.641      | 1.641      | 1.641      |   0.0 |  0.57
Comm    | 1.9074     | 1.9074     | 1.9074     |   0.0 |  0.66
Output  | 0.13034    | 0.13034    | 0.13034    |   0.0 |  0.05
Modify  | 8.8105     | 8.8105     | 8.8105     |   0.0 |  3.07
Other   |            | 1.022      |            |       |  0.36

Nlocal:            100 ave         100 max         100 min
Histogram: 1 0 0 0 0 0 0 0 0 0
Nghost:              0 ave           0 max           0 min
Histogram: 1 0 0 0 0 0 0 0 0 0
Neighs:            976 ave         976 max         976 min
Histogram: 1 0 0 0 0 0 0 0 0 0

Total # of neighbors = 976
Ave neighs/atom = 9.76
Ave special neighs/atom = 5.88
Neighbor list builds = 8775
Dangerous builds = 0
Generated 0 of 6 mixed pair_coeff terms from geometric mixing rule
Setting up Verlet run ...
  Unit style    : real
  Current step  : 4000000
  Time step     : 10
Per MPI rank memory allocation (min/avg/max) = 9.632 | 9.632 | 9.632 Mbytes
   Step         PotEng         KinEng          Temp     
   4000000  -32.369788      93.35541       316.35157    
   4010000  -40.069554      98.910414      335.1757     
   4020000  -42.170297      78.431573      265.77947    
   4030000  -42.912845      90.898747      308.02673    
   4040000  -39.207762      92.47824       313.37912    
   4050000  -27.354077      84.820886      287.4308     
   4060000  -37.283568      88.134629      298.66002    
   4070000  -45.291133      81.673796      276.76632    
   4080000  -52.981854      95.817667      324.69537    
   4090000  -28.628825      99.201189      336.16104    
   4100000  -31.045899      99.452041      337.0111     
   4110000  -31.980762      97.155718      329.2296     
   4120000  -30.039829      91.066251      308.59434    
   4130000  -32.913564      94.948242      321.74917    
   4140000  -16.995643      78.344558      265.4846     
   4150000  -8.9840447      87.539366      296.64286    
   4160000  -15.197712      95.916901      325.03164    
   4170000  -14.828079      83.32308       282.35522    
   4180000  -11.211292      90.98123       308.30623    
   4190000  -28.233268      89.291601      302.58062    
   4200000  -22.340388      100.59975      340.90033    
   4210000  -25.026043      107.50579      364.30268    
   4220000  -11.952649      89.32762       302.70268    
   4230000  -17.731697      89.360723      302.81485    
   4240000  -14.707925      89.434939      303.06635    
   4250000  -20.282303      81.171675      275.0648     
   4260000  -27.149848      85.701966      290.4165     
   4270000  -28.385734      83.797662      283.96342    
   4280000  -25.883515      92.104677      312.11324    
   4290000  -24.074994      90.112183      305.36131    
   4300000  -38.454224      103.34288      350.19589    
   4310000  -33.897692      79.977095      271.01675    
   4320000  -41.171352      94.638148      320.69836    
   4330000  -23.276354      83.789622      283.93618    
   4340000  -27.693392      98.126682      332.51988    
   4350000  -19.799383      104.00234      352.43061    
   4360000  -24.090746      96.556749      327.19988    
   4370000  -26.603936      97.01054       328.73763    
   4380000  -33.33092       96.191155      325.961      
   4390000  -30.100761      90.540392      306.81238    
   4400000  -22.734095      84.986864      287.99325    
   4410000  -33.990816      89.633121      303.73792    
   4420000  -31.82957       98.047984      332.2532     
   4430000  -29.066172      93.980554      318.46998    
   4440000  -36.97595       81.606984      276.53992    
   4450000  -48.158233      77.567483      262.85134    
   4460000  -48.76883       93.162029      315.69627    
   4470000  -47.669252      91.063362      308.58455    
   4480000  -52.334823      85.149089      288.54298    
   4490000  -41.292961      78.235204      265.11404    
   4500000  -53.77006       77.515867      262.67643    
   4510000  -55.858785      96.705193      327.70291    
   4520000  -40.821609      94.166722      319.10085    
   4530000  -30.364285      92.710473      314.16608    
   4540000  -21.156293      87.735965      297.30907    
   4550000  -27.249727      90.495004      306.65857    
   4560000  -16.468735      100.35297      340.06406    
   4570000  -13.571043      101.13301      342.70737    
   4580000  -6.3078104      92.515145      313.50418    
   4590000  -19.659108      106.51906      360.95896    
   4600000  -3.6251125      102.7331       348.12957    
   4610000  -3.032366       115.43055      391.15713    
   4620000  -11.36103       105.36625      357.05246    
   4630000  -20.334272      97.512328      330.43803    
   4640000  -20.132875      97.050063      328.87156    
   4650000  -6.0946053      88.605455      300.25549    
   4660000  -17.852582      90.433159      306.449      
   4670000  -26.632254      91.642364      310.54661    
   4680000  -39.017182      98.007764      332.11691    
   4690000  -34.779598      93.440047      316.63838    
   4700000  -4.6167155      72.762088      246.5674     
   4710000  -27.544962      97.964207      331.96931    
   4720000  -9.4697062      73.666036      249.63059    
   4730000  -16.902809      96.724987      327.76999    
   4740000  -22.608685      94.269471      319.44903    
   4750000  -9.6018968      89.608366      303.65404    
   4760000  -13.246329      95.261496      322.81068    
   4770000  -19.604155      98.221932      332.84265    
   4780000  -8.5279385      89.823888      304.38437    
   4790000  -9.6296032      89.412765      302.99121    
   4800000  -10.384461      86.032301      291.5359     
   4810000  -16.577366      89.351496      302.78359    
   4820000  -23.696685      88.414848      299.60959    
   4830000  -32.627081      95.309783      322.97431    
   4840000  -8.6302276      98.289839      333.07277    
   4850000   3.4941743      96.069124      325.54748    
   4860000   6.8305727      85.473914      289.6437     
   4870000   2.1127376      103.26095      349.91826    
   4880000   3.5702814      95.227275      322.69472    
   4890000   1.8677846      99.248542      336.32151    
   4900000   1.0412257      96.832801      328.13533    
   4910000   1.9697232      96.958585      328.56158    
   4920000   2.6590088      108.41573      367.38618    
   4930000  -1.9856996      101.10033      342.59663    
   4940000  -5.2545417      119.48877      404.90916    
   4950000   12.791454      89.127722      302.02529    
   4960000  -7.7194892      99.37733       336.75793    
   4970000  -25.545366      109.28042      370.31631    
   4980000  -24.434262      95.268654      322.83494    
   4990000  -19.039052      95.57736       323.88105    
   5000000  -9.2347425      96.955027      328.54952    
   5010000   1.892172       83.254125      282.12155    
   5020000  -4.9679895      92.313355      312.82038    
   5030000  -4.5675048      84.595285      286.66631    
   5040000  -26.324811      107.90984      365.67188    
   5050000  -25.386475      104.36967      353.67538    
   5060000  -19.49777       99.351383      336.67       
   5070000  -18.631361      90.329577      306.09799    
   5080000  -21.764401      97.279241      329.64818    
   5090000  -28.36477       94.231522      319.32043    
   5100000  -20.604685      91.191895      309.02011    
   5110000  -16.293539      98.35534       333.29473    
   5120000  -17.974165      104.35446      353.62381    
   5130000  -30.212666      95.963326      325.18896    
   5140000  -49.12345       103.96915      352.31815    
   5150000  -47.966885      86.083728      291.71017    
   5160000  -32.748748      94.775306      321.16314    
   5170000  -17.557523      92.425668      313.20097    
   5180000  -15.735257      93.911902      318.23734    
   5190000  -8.8944881      106.75874      361.77116    
   5200000  -27.731335      92.135357      312.2172     
   5210000  -22.848704      94.510965      320.26738    
   5220000   0.35755589     100.2471       339.70529    
   5230000  -0.44667989     91.80366       311.09319    
   5240000  -9.244515       104.36737      353.66758    
   5250000  -15.597247      95.355497      323.12923    
   5260000   1.0540534      86.07393       291.67697    
   5270000  -15.231902      94.231005      319.31868    
   5280000  -20.125984      106.0671       359.42742    
   5290000  -11.159489      97.515534      330.4489     
   5300000  -7.2327         92.403395      313.1255     
   5310000  -17.821246      102.47069      347.24033    
   5320000  -23.093682      96.792679      327.99937    
   5330000  -13.022291      93.569445      317.07687    
   5340000  -25.771842      98.281575      333.04476    
   5350000  -3.6126749      103.49391      350.7077     
   5360000  -5.0884678      114.88308      389.30196    
   5370000  -10.597822      114.7752       388.93637    
   5380000   5.6717179      102.66967      347.9146     
   5390000   2.7867571      94.422529      319.96769    
   5400000  -13.094949      101.66311      344.50372    
   5410000  -20.02726       88.701257      300.58014    
   5420000  -4.6205392      96.830826      328.12864    
   5430000  -10.199617      91.839672      311.21522    
   5440000  -11.349487      100.22221      339.62097    
   5450000  -11.457452      96.652581      327.52462    
   5460000  -18.396868      93.725661      317.60623    
   5470000   4.7874435      85.419217      289.45835    
   5480000  -6.1720236      96.429966      326.77026    
   5490000  -9.2829237      89.400599      302.94998    
   5500000   1.0110157      99.970351      338.76748    
   5510000   14.53694       96.352298      326.50706    
   5520000   11.419065      104.38106      353.71396    
   5530000   11.396455      98.719289      334.52804    
   5540000   26.449444      98.511502      333.82391    
   5550000   9.4839814      100.76546      341.46187    
   5560000   17.486371      99.988934      338.83046    
   5570000   30.294535      94.04283       318.68102    
   5580000   37.076068      92.319344      312.84068    
   5590000   15.733421      110.18094      373.36789    
   5600000   17.177202      95.722509      324.37291    
   5610000   8.8733111      95.459404      323.48133    
   5620000   2.8491588      103.89676      352.07283    
   5630000   8.7574631      100.5492       340.72903    
   5640000  -9.890736       102.34278      346.80688    
   5650000   1.2187941      95.086325      322.21709    
   5660000  -12.847991      113.45109      384.44938    
   5670000   22.016519      93.554193      317.02518    
   5680000   19.165416      109.82082      372.14758    
   5690000  -1.4939858      104.8933       355.44977    
   5700000  -16.683947      112.38929      380.85129    
   5710000  -6.6582723      101.126        342.68361    
   5720000   4.0708292      94.757851      321.10399    
   5730000   12.90134       90.52931       306.77482    
   5740000   5.4217269      84.736484      287.14479    
   5750000  -11.311031      99.102861      335.82784    
   5760000   13.90778       100.39721      340.21396    
   5770000  -18.581911      106.40863      360.58476    
   5780000   2.6853107      95.723816      324.37734    
   5790000  -5.4922313      89.356873      302.80181    
   5800000  -16.960387      93.010937      315.18426    
   5810000   18.629989      94.336138      319.67494    
   5820000   0.35331273     117.16574      397.03715    
   5830000   7.4372367      108.98034      369.29945    
   5840000   4.1066758      105.12356      356.23004    
   5850000  -11.828459      94.476665      320.15114    
   5860000  -2.4044494      106.15232      359.71618    
   5870000   0.60186578     101.86257      345.1796     
   5880000  -11.689437      112.46297      381.10098    
   5890000  -2.4547078      94.680358      320.84139    
   5900000  -5.1905815      109.01783      369.42649    
   5910000   5.6970476      97.798946      331.40929    
   5920000   8.1932073      86.176298      292.02386    
   5930000  -3.2705045      103.44917      350.5561     
   5940000   8.4408873      99.811929      338.23064    
   5950000   9.6211217      105.17858      356.4165     
   5960000   15.303893      104.39883      353.77417    
   5970000   1.4816403      103.66965      351.30323    
   5980000   9.211255       99.800427      338.19167    
   5990000   9.307117       109.62695      371.49061    
   6000000   12.243906      118.11737      400.26193    
   6010000   9.5514603      117.23005      397.25507    
   6020000   9.5928234      96.948518      328.52746    
   6030000  -8.3255412      106.0208       359.27052    
   6040000   0.58836562     115.91975      392.8149     
   6050000   9.6199159      97.285266      329.66859    
   6060000   15.46841       105.12651      356.24007    
   6070000  -13.848473      105.25797      356.68554    
   6080000   1.0825604      103.26068      349.91736    
   6090000   6.3518117      96.275616      326.24721    
   6100000   3.9675135      97.833807      331.52742    
   6110000  -3.9175799      108.88824      368.98735    
   6120000  -0.60331747     96.220314      326.05981    
   6130000   5.0417444      105.18686      356.44458    
   6140000  -10.760272      106.29694      360.20627    
   6150000  -13.014276      111.07683      376.40377    
   6160000  -8.1074985      104.14222      352.90462    
   6170000   3.4548407      95.901807      324.98049    
   6180000  -13.519133      103.50359      350.7405     
   6190000  -6.995426       105.78332      358.46577    
   6200000   19.995317      99.121851      335.89219    
   6210000   13.119742      103.51694      350.78575    
   6220000   22.160456      100.15206      339.38325    
   6230000   12.214644      113.05803      383.11742    
   6240000   12.992927      106.15812      359.73585    
   6250000   26.920794      99.015015      335.53016    
   6260000   44.37901       96.236203      326.11365    
   6270000   33.879344      109.37973      370.65287    
   6280000   51.131942      96.74799       327.84794    
   6290000   40.745894      102.2675       346.55177    
   6300000   43.278562      113.28035      383.87082    
   6310000   16.810845      114.2814       387.26306    
   6320000   10.306986      107.93194      365.74677    
   6330000   10.396373      106.49525      360.87827    
   6340000   13.117233      106.89555      362.23478    
   6350000   22.006246      101.65726      344.48386    
   6360000   21.773862      113.82574      385.71897    
   6370000   12.831102      113.23197      383.70687    
   6380000   39.504125      97.697302      331.06485    
   6390000   18.063071      98.201168      332.77229    
   6400000   5.9290659      103.66817      351.29822    
   6410000   11.48234       102.19579      346.3088     
   6420000   16.57627       86.404212      292.79619    
   6430000   15.859379      110.30192      373.77786    
   6440000   6.0868165      119.6053       405.30402    
   6450000   29.36363       109.21806      370.10502    
   6460000   28.017583      95.109048      322.29409    
   6470000   28.995193      93.467898      316.73276    
   6480000   21.454709      106.95861      362.44846    
   6490000   3.7177899      116.87203      396.04185    
   6500000   20.409799      97.966858      331.97829    
   6510000   6.8565852      98.347202      333.26715    
   6520000  -10.081233      100.11337      339.25213    
   6530000  -4.3147311      97.646666      330.89326    
   6540000  -1.8473006      103.27365      349.96132    
   6550000   11.128104      107.15311      363.10756    
   6560000  -0.82175495     110.7823       375.40572    
   6570000   23.231325      99.344714      336.6474     
   6580000   9.0545616      116.47138      394.68419    
   6590000   9.2188079      94.864293      321.46469    
   6600000   19.848901      91.81273       311.12392    
   6610000   10.946913      106.68397      361.51778    
   6620000   8.0759779      114.38612      387.61792    
   6630000   16.079998      114.68181      388.61991    
   6640000   20.017692      111.89407      379.17315    
   6650000   16.91532       122.47843      415.04015    
   6660000   10.702721      104.34922      353.60605    
   6670000   25.528878      112.17429      380.12273    
   6680000   37.266789      115.08809      389.99667    
   6690000   23.0603        122.11968      413.82448    
   6700000   28.967243      111.16949      376.71778    
   6710000   19.019032      100.91239      341.95974    
   6720000   26.196664      102.23659      346.44706    
   6730000   10.987241      129.04607      437.29577    
   6740000   23.203229      108.25856      366.85356    
   6750000   44.366587      104.12339      352.84079    
   6760000   55.554686      116.35246      394.28119    
   6770000   34.289564      99.825642      338.27711    
   6780000   27.324027      112.34345      380.69594    
   6790000   37.268098      119.4445       404.75915    
   6800000   22.531405      111.85556      379.04266    
   6810000   9.4249886      116.28687      394.05895    
   6820000   26.618915      102.15633      346.17505    
   6830000   8.9191161      117.51214      398.21099    
   6840000   23.505509      107.69029      364.92789    
   6850000   27.991766      116.53432      394.89745    
   6860000   25.426044      98.392308      333.42       
   6870000   12.132595      114.7439       388.83032    
   6880000   30.492046      119.77615      405.883      
   6890000   23.257384      118.37727      401.14263    
   6900000   39.936408      124.22951      420.97401    
   6910000   31.060471      120.40002      407.99707    
   6920000   24.415813      111.2776       377.08412    
   6930000   45.110689      97.619712      330.80192    
   6940000   32.646178      108.96087      369.23346    
   6950000   26.82488       111.50609      377.85841    
   6960000   24.948512      104.49057      354.08505    
   6970000   37.290982      117.32509      397.57715    
   6980000   26.280691      117.06569      396.69811    
   6990000   36.428277      107.5489       364.44876    
   7000000   25.42531       127.7942       433.0536     
   7010000   27.423036      117.37778      397.75569    
   7020000   38.748601      105.63071      357.94863    
   7030000   25.84363       102.58018      347.61137    
   7040000   18.087139      103.85083      351.91718    
   7050000   10.048659      112.58913      381.5285     
   7060000   16.857362      100.26806      339.77634    
   7070000   11.505051      107.2888       363.56737    
   7080000   18.277876      120.21785      407.37976    
   7090000   27.99835       137.38616      465.55768    
   7100000   10.470095      124.70168      422.57403    
   7110000   24.280118      109.31513      370.43395    
   7120000   14.772936      105.17266      356.39643    
   7130000   48.875605      102.89107      348.66485    
   7140000   21.326215      116.32308      394.18166    
   7150000   39.310797      114.70455      388.69697    
   7160000   41.7911        114.71941      388.74732    
   7170000   35.932779      124.55847      422.08875    
   7180000   19.90785       129.77544      439.76739    
   7190000   28.939905      109.46284      370.93449    
   7200000   28.372405      103.06474      349.25338    
   7210000   35.459717      116.61069      395.15625    
   7220000   20.294449      118.06761      400.0933     
   7230000   25.323112      107.79069      365.26812    
   7240000   20.180215      102.17804      346.24863    
   7250000   26.137876      96.565065      327.22806    
   7260000   17.220822      119.00305      403.26322    
   7270000   18.357876      107.56222      364.49391    
   7280000   24.478783      112.97959      382.85162    
   7290000   25.629226      102.491        347.30917    
   7300000   3.7622714      109.89829      372.41008    
   7310000   33.334107      114.8632       389.23457    
   7320000   45.972285      120.72059      409.0834     
   7330000   50.685659      125.24513      424.4156     
   7340000   57.519383      105.29886      356.82409    
   7350000   50.501849      121.46865      411.61832    
   7360000   66.514726      111.70099      378.51888    
   7370000   50.342889      121.39254      411.36043    
   7380000   62.847649      119.48626      404.90064    
   7390000   66.537129      109.49326      371.03758    
   7400000   61.339925      109.8458       372.2322     
   7410000   83.865247      105.84146      358.66278    
   7420000   47.62347       111.10952      376.51455    
   7430000   67.679663      99.31683       336.55291    
   7440000   59.765605      102.82014      348.42451    
   7450000   55.453453      103.52355      350.80815    
   7460000   72.729848      123.75267      419.35813    
   7470000   52.290794      122.63228      415.56151    
   7480000   59.818648      126.53521      428.78727    
   7490000   73.253124      102.04906      345.81157    
   7500000   59.672773      122.89136      416.43945    
   7510000   62.502905      98.449667      333.61438    
   7520000   48.482556      102.2483       346.48673    
   7530000   65.21012       113.65734      385.1483     
   7540000   55.607215      110.00368      372.76721    
   7550000   48.178559      109.31028      370.4175     
   7560000   62.466735      117.73492      398.96591    
   7570000   71.343994      105.07259      356.05732    
   7580000   57.895481      110.60861      374.81714    
   7590000   63.059688      115.28332      390.65823    
   7600000   79.86053       98.458551      333.64448    
   7610000   73.124898      105.82752      358.61555    
   7620000   64.6553        129.23629      437.94038    
   7630000   71.471972      106.05972      359.40241    
   7640000   74.878996      122.20403      414.11028    
   7650000   66.696613      125.19799      424.25588    
   7660000   93.267378      132.22691      448.07464    
   7670000   74.623469      121.60813      412.09098    
   7680000   65.28464       130.84265      443.38381    
   7690000   55.420628      132.94826      450.51906    
   7700000   66.70326       144.23783      488.77578    
   7710000   60.412731      105.56552      357.72773    
   7720000   41.051102      115.73561      392.19091    
   7730000   57.330621      114.44286      387.81018    
   7740000   55.678689      115.70628      392.09151    
   7750000   61.888972      111.16698      376.70928    
   7760000   70.658025      104.40809      353.80555    
   7770000   46.372112      108.47526      367.58791    
   7780000   55.196267      132.96073      450.5613     
   7790000   58.265017      119.37503      404.52372    
   7800000   53.350267      110.73305      375.23883    
   7810000   40.771109      129.72079      439.5822     
   7820000   47.09782       130.20517      441.22359    
   7830000   37.928188      123.18865      417.44686    
   7840000   49.005862      114.44725      387.82505    
   7850000   58.658249      115.06416      389.91555    
   7860000   62.143012      115.52539      391.47853    
   7870000   52.7592        101.50784      343.97754    
   7880000   62.581636      111.08316      376.42522    
   7890000   56.449622      140.69064      476.75551    
   7900000   61.311901      115.04382      389.84665    
   7910000   53.988034      117.60889      398.53885    
   7920000   57.820626      115.8545       392.59377    
   7930000   64.655491      126.32476      428.07413    
   7940000   60.678405      123.95797      420.05384    
   7950000   39.727587      123.24051      417.62259    
   7960000   58.332558      113.12025      383.32827    
   7970000   47.960083      125.57152      425.52166    
   7980000   62.097142      111.98877      379.49404    
   7990000   49.168936      124.53866      422.0216     
   8000000   37.965397      111.58669      378.13153    
   8010000   43.25585       118.41858      401.28263    
   8020000   51.302178      115.37406      390.9657     
   8030000   50.609535      126.74835      429.50953    
   8040000   56.049075      114.93281      389.47047    
   8050000   67.699077      103.30371      350.06317    
   8060000   50.61517       129.67968      439.4429     
   8070000   36.20046       137.21682      464.98382    
   8080000   43.850701      106.73247      361.68213    
   8090000   42.116841      124.634        422.34469    
   8100000   51.596174      123.32931      417.92351    
   8110000   63.362914      130.72304      442.9785     
   8120000   55.712479      124.45728      421.74585    
   8130000   38.962716      133.08714      450.98968    
   8140000   56.274219      110.80591      375.48573    
   8150000   49.819089      121.52079      411.79503    
   8160000   46.810222      137.44872      465.76965    
   8170000   65.050811      115.73165      392.17748    
   8180000   72.424134      120.97085      409.93144    
   8190000   59.955765      123.13049      417.24979    
   8200000   49.701243      110.09664      373.08223    
   8210000   59.420746      118.32586      400.96842    
   8220000   41.64348       121.73086      412.50687    
   8230000   44.916134      137.10871      464.61747    
   8240000   57.40636       106.44078      360.6937     
   8250000   27.39695       123.53919      418.63473    
   8260000   43.826596      120.31191      407.69852    
   8270000   52.232894      111.04343      376.29061    
   8280000   61.474302      116.55892      394.98085    
   8290000   68.030552      137.43392      465.71951    
   8300000   63.938907      121.26803      410.93849    
   8310000   51.985776      142.11538      481.58348    
   8320000   73.740727      100.40974      340.25643    
   8330000   45.733389      130.34083      441.68332    
   8340000   55.79314       126.15382      427.49487    
   8350000   48.812079      116.62169      395.19355    
   8360000   64.324942      127.52735      432.14931    
   8370000   53.879052      133.26564      451.59455    
   8380000   65.281397      119.90941      406.33458    
   8390000   49.940867      134.89143      457.10383    
   8400000   46.851426      126.83084      429.78907    
   8410000   48.448377      114.35335      387.50687    
   8420000   46.494043      115.23086      390.48046    
   8430000   62.541211      122.37587      414.69261    
   8440000   41.368199      121.11057      410.40491    
   8450000   47.480616      107.87498      365.55375    
   8460000   45.217914      118.93348      403.02746    
   8470000   47.993189      137.99956      467.6363     
   8480000   69.914846      123.88908      419.82041    
   8490000   46.683609      145.43884      492.84563    
   8500000   52.526717      122.85947      416.33137    
   8510000   61.298676      119.30253      404.27803    
   8520000   61.541156      126.52721      428.76016    
   8530000   53.447142      125.78543      426.24651    
   8540000   48.384572      118.63839      402.02748    
   8550000   56.431625      104.56552      354.33905    
   8560000   50.764794      121.98058      413.35309    
   8570000   42.899534      130.02932      440.62769    
   8580000   60.117409      125.0693       423.81978    
   8590000   45.056676      127.4168       431.77469    
   8600000   61.660231      119.23997      404.06607    
   8610000   74.191644      141.22986      478.58273    
   8620000   63.403648      117.87287      399.43338    
   8630000   76.934173      125.42302      425.01841    
   8640000   54.43815       130.35354      441.72637    
   8650000   64.021547      124.85033      423.07775    
   8660000   70.855381      151.10789      512.0562     
   8670000   74.214294      131.48048      445.54521    
   8680000   71.394655      117.87812      399.45117    
   8690000   49.873961      134.37162      455.34235    
   8700000   56.022487      137.20773      464.95304    
   8710000   46.232942      120.30492      407.67481    
   8720000   43.417165      141.77044      480.41458    
   8730000   49.299593      132.24827      448.14701    
   8740000   50.397018      130.64375      442.70979    
   8750000   41.468401      127.57301      432.30405    
   8760000   46.590454      128.66324      435.99848    
   8770000   59.112627      131.98484      447.25434    
   8780000   57.56632       134.35771      455.29522    
   8790000   60.715721      109.19469      370.02582    
   8800000   74.348559      132.31662      448.37864    
   8810000   41.533365      129.97995      440.4604     
   8820000   46.078625      123.35061      417.9957     
   8830000   62.707606      127.21577      431.09347    
   8840000   59.300065      139.53668      472.84508    
   8850000   58.701114      124.4918       421.86281    
   8860000   65.154869      129.93659      440.31346    
   8870000   72.025562      139.83177      473.84508    
   8880000   51.456847      133.33734      451.83753    
   8890000   44.25823       124.09434      420.51594    
   8900000   54.039399      126.73624      429.4685     
   8910000   42.932412      132.62095      449.40991    
   8920000   44.027544      132.21463      448.03302    
   8930000   45.178359      136.82472      463.65514    
   8940000   57.442397      115.75381      392.25257    
   8950000   53.641119      107.84847      365.46392    
   8960000   57.41227       127.70604      432.75486    
   8970000   64.577052      118.40122      401.22378    
   8980000   61.217859      139.86376      473.95348    
   8990000   53.116392      130.92829      443.674      
   9000000   62.703712      118.61172      401.93709    
   9010000   46.403256      116.77877      395.72582    
   9020000   58.970485      123.71504      419.23064    
   9030000   60.705853      122.46479      414.99392    
   9040000   62.19468       114.91241      389.40132    
   9050000   39.611602      128.95277      436.97961    
   9060000   60.712465      131.04914      444.08354    
   9070000   52.44623       125.50505      425.29638    
   9080000   59.070408      127.73573      432.85546    
   9090000   42.68909       121.03138      410.13656    
   9100000   53.706321      124.1406       420.6727     
   9110000   45.804023      134.63588      456.23785    
   9120000   44.62595       144.44439      489.47576    
   9130000   57.960182      134.03224      454.19231    
   9140000   53.307816      117.81927      399.25177    
   9150000   57.574412      132.42867      448.75831    
   9160000   61.951446      111.47139      377.74083    
   9170000   57.429348      127.38085      431.65288    
   9180000   45.690211      125.25958      424.46459    
   9190000   46.865432      120.77424      409.26519    
   9200000   53.695414      124.99439      423.56592    
   9210000   45.153397      143.39738      485.92778    
   9220000   61.517884      126.42524      428.41462    
   9230000   56.131959      113.86259      385.84382    
   9240000   33.245397      142.86689      484.13011    
   9250000   55.982967      123.22684      417.57629    
   9260000   55.286356      118.86827      402.80647    
   9270000   50.387849      120.05267      406.82005    
   9280000   53.504554      116.90709      396.16065    
   9290000   39.072934      115.06753      389.927      
   9300000   41.507365      119.52486      405.03146    
   9310000   61.569037      120.64766      408.83626    
   9320000   49.361028      144.72879      490.4395     
   9330000   67.271353      113.63311      385.06618    
   9340000   65.160171      119.44367      404.75631    
   9350000   70.253387      131.7377       446.41687    
   9360000   64.256215      135.69491      459.82656    
   9370000   63.026149      128.42446      435.18933    
   9380000   60.299253      138.53939      469.46559    
   9390000   49.433196      131.23553      444.71516    
   9400000   49.709553      136.52211      462.62967    
   9410000   57.863982      135.22749      458.24262    
   9420000   81.572116      118.16322      400.41728    
   9430000   56.711751      126.04232      427.11703    
   9440000   64.13653       142.80832      483.93165    
   9450000   51.034363      130.09959      440.86584    
   9460000   55.475207      151.60814      513.75139    
   9470000   38.483669      138.08238      467.91695    
   9480000   71.195657      125.53784      425.40752    
   9490000   88.523543      131.42939      445.3721     
   9500000   57.325911      137.26082      465.13294    
   9510000   58.468843      130.58806      442.52107    
   9520000   71.356141      120.0326       406.75203    
   9530000   79.972847      138.86473      470.56808    
   9540000   81.106808      134.52         455.84517    
   9550000   66.324377      134.99098      457.44119    
   9560000   70.070278      131.83751      446.75507    
   9570000   59.310632      139.3366       472.16711    
   9580000   68.763227      128.41399      435.15386    
   9590000   54.623303      124.77238      422.81362    
   9600000   82.420831      131.67303      446.1977     
   9610000   70.741738      145.82957      494.16969    
   9620000   59.704988      141.45378      479.34152    
   9630000   56.873549      142.22357      481.95011    
   9640000   57.884706      151.5262       513.47374    
   9650000   70.233285      152.4371       516.5605     
   9660000   59.016806      126.97601      430.28101    
   9670000   50.789465      129.22203      437.89205    
   9680000   47.291985      117.7707       399.08716    
   9690000   52.980643      120.15082      407.15262    
   9700000   46.035192      135.17567      458.06704    
   9710000   57.579614      127.68768      432.69264    
   9720000   66.038993      127.5937       432.37417    
   9730000   76.37828       125.99134      426.94428    
   9740000   63.277923      116.36628      394.32803    
   9750000   61.202455      122.85094      416.30248    
   9760000   61.422604      124.4753       421.80689    
   9770000   69.649585      140.21584      475.14656    
   9780000   75.623486      123.09552      417.13128    
   9790000   69.731373      150.46656      509.88297    
   9800000   69.7927        139.71875      473.46209    
   9810000   65.472271      133.00934      450.72602    
   9820000   95.335942      130.75944      443.10184    
   9830000   55.660098      119.51224      404.98868    
   9840000   54.136621      127.16413      430.91848    
   9850000   60.001735      120.19938      407.31719    
   9860000   45.275495      122.99925      416.80503    
   9870000   60.923227      124.73913      422.70095    
   9880000   70.120836      133.74054      453.20385    
   9890000   66.1471        133.97298      453.99151    
   9900000   51.698922      128.64405      435.93346    
   9910000   58.875678      141.35974      479.02286    
   9920000   71.420432      149.51735      506.66638    
   9930000   67.982072      158.25248      536.26696    
   9940000   61.500045      136.07599      461.11792    
   9950000   55.580204      137.23527      465.04637    
   9960000   52.065667      142.23615      481.99272    
   9970000   50.103846      115.54039      391.52937    
   9980000   53.394681      115.36066      390.92032    
   9990000   69.668869      115.65264      391.90974    
  10000000   84.483632      131.218        444.65575    
  10010000   64.661503      134.16089      454.62828    
  10020000   64.497782      146.16933      495.32102    
  10030000   51.024484      139.68162      473.33625    
  10040000   41.911573      124.5204       421.95975    
  10050000   58.342112      125.15428      424.10775    
  10060000   63.026299      140.84801      477.28878    
  10070000   66.458543      144.04165      488.11098    
  10080000   64.501449      125.11416      423.9718     
  10090000   74.121975      132.3333       448.43516    
  10100000   87.491998      122.2402       414.23285    
  10110000   66.247244      140.08891      474.71642    
  10120000   86.051495      118.55736      401.7529     
  10130000   90.537136      109.6456       371.5538     
  10140000   69.309238      122.86439      416.34804    
  10150000   76.26791       125.58777      425.57672    
  10160000   85.940043      138.33331      468.76727    
  10170000   70.303752      139.03675      471.151      
  10180000   48.371488      141.54969      479.66653    
  10190000   63.173642      124.80318      422.91798    
  10200000   73.077879      129.05849      437.33786    
  10210000   62.198654      126.71942      429.4115     
  10220000   65.494098      119.2912       404.23965    
  10230000   70.572705      132.03217      447.41471    
  10240000   80.748696      131.43726      445.39875    
  10250000   72.092024      146.8279       497.5527     
  10260000   55.123711      148.72087      503.96739    
  10270000   47.723567      119.10345      403.60344    
  10280000   81.403142      115.97246      392.9935     
  10290000   68.956901      128.46049      435.31143    
  10300000   62.030452      126.85231      429.86182    
  10310000   69.603317      125.05826      423.78237    
  10320000   66.150121      141.89248      480.82814    
  10330000   69.122458      144.88136      490.9565     
  10340000   82.70712       119.53493      405.06557    
  10350000   69.37843       154.50965      523.58369    
  10360000   56.966423      127.90399      433.42565    
  10370000   59.041395      141.01082      477.84047    
  10380000   91.123019      128.00042      433.75242    
  10390000   62.106565      159.63039      540.93623    
  10400000   71.761853      130.98737      443.87424    
  10410000   66.719363      134.67334      456.36479    
  10420000   98.445188      132.75827      449.87525    
  10430000   79.802192      148.8095       504.26773    
  10440000   91.968229      132.59266      449.31405    
  10450000   105.1009       125.8115       426.33486    
  10460000   88.0419        145.6524       493.56932    
  10470000   98.018579      140.45844      475.96865    
  10480000   91.173681      147.64355      500.31669    
  10490000   87.460546      147.17915      498.74299    
  10500000   102.17845      124.51286      421.93419    
  10510000   88.417062      124.13908      420.66758    
  10520000   80.28101       128.41896      435.17072    
  10530000   80.349209      131.23488      444.71295    
  10540000   98.85093       133.2282       451.46768    
  10550000   82.944517      149.00429      504.92778    
  10560000   82.501345      150.59         510.30127    
  10570000   92.857819      117.22708      397.24501    
  10580000   71.827207      134.69239      456.42935    
  10590000   94.627405      144.94789      491.18197    
  10600000   79.624389      153.43331      519.93632    
  10610000   89.246797      127.33313      431.49117    
  10620000   99.671477      127.08708      430.65738    
  10630000   81.117277      127.87369      433.32294    
  10640000   96.606387      149.79803      507.61751    
  10650000   105.75346      143.49107      486.24526    
  10660000   83.890024      140.11503      474.80495    
  10670000   81.291692      127.1683       430.93264    
  10680000   68.776462      129.29235      438.13035    
  10690000   53.424348      154.94167      525.04766    
  10700000   76.630136      155.5198       527.00676    
  10710000   76.732887      114.61941      388.40846    
  10720000   76.974137      140.47986      476.04125    
  10730000   62.231341      142.19754      481.86189    
  10740000   63.408007      155.92576      528.38244    
  10750000   86.350519      136.37592      462.13428    
  10760000   65.262837      127.69515      432.71795    
  10770000   74.273104      134.63166      456.22357    
  10780000   70.293589      128.10555      434.10867    
  10790000   87.849164      134.37204      455.3438     
  10800000   94.990846      135.27705      458.41056    
  10810000   81.628397      144.74726      490.50209    
  10820000   84.999092      133.47412      452.30103    
  10830000   110.94649      125.41821      425.00214    
  10840000   99.073681      142.20441      481.88517    
  10850000   89.015659      155.36547      526.4838     
  10860000   89.42696       166.38261      563.81734    
  10870000   93.490386      133.64883      452.89306    
  10880000   96.60219       140.13514      474.8731     
  10890000   83.444264      145.66149      493.6001     
  10900000   77.722967      129.93247      440.29949    
  10910000   87.669993      150.27834      509.24515    
  10920000   85.08898       132.32966      448.4228     
  10930000   89.945713      127.31615      431.43364    
  10940000   85.743158      162.9378       552.14398    
  10950000   106.84394      162.43893      550.45348    
  10960000   88.682926      167.18519      566.53702    
  10970000   93.117         134.83437      456.91046    
  10980000   95.907819      154.81367      524.61392    
  10990000   93.031851      151.64534      513.87747    
  11000000   103.704        156.62329      530.74616    
  11010000   97.30516       141.78673      480.4698     
  11020000   101.76866      134.02028      454.15179    
  11030000   109.26072      137.9243       467.38126    
  11040000   89.027533      140.06881      474.64831    
  11050000   77.598913      138.93581      470.80896    
  11060000   90.629294      134.78078      456.72889    
  11070000   80.821836      133.44282      452.19494    
  11080000   86.482429      152.86422      518.00787    
  11090000   90.356223      144.45944      489.52675    
  11100000   76.489992      151.4846       513.33277    
  11110000   78.884313      157.74217      534.53768    
  11120000   82.72027       136.11135      461.23773    
  11130000   91.251806      135.995        460.84347    
  11140000   88.500079      127.3994       431.71575    
  11150000   76.545865      147.31038      499.18767    
  11160000   99.502649      143.84947      487.45975    
  11170000   80.004414      151.88867      514.70205    
  11180000   85.102994      144.79113      490.65076    
  11190000   95.435724      160.85857      545.09816    
  11200000   88.499381      136.71223      463.27395    
  11210000   101.44603      130.87004      443.47663    
  11220000   79.525096      133.57353      452.6379     
  11230000   85.137408      166.9755       565.82647    
  11240000   99.208655      145.01302      491.40265    
  11250000   110.94073      138.20984      468.34885    
  11260000   110.80891      146.33977      495.89858    
  11270000   90.483318      134.59481      456.09867    
  11280000   89.333244      136.19032      461.50536    
  11290000   89.88573       156.30517      529.66815    
  11300000   87.221798      143.81377      487.3388     
  11310000   90.946098      139.27807      471.96877    
  11320000   90.298166      136.68963      463.19737    
  11330000   86.085078      149.22891      505.68896    
  11340000   106.85934      139.6878       473.3572     
  11350000   91.422747      144.28744      488.9439     
  11360000   85.192585      137.7272       466.71334    
  11370000   76.191895      126.58599      428.95936    
  11380000   83.553593      146.31726      495.82231    
  11390000   109.04952      129.96947      440.42487    
  11400000   94.939839      117.97943      399.7945     
  11410000   79.541636      138.44485      469.14522    
  11420000   75.665079      139.24199      471.84647    
  11430000   83.983316      139.9167       474.13285    
  11440000   89.489766      175.06555      593.24106    
  11450000   82.417426      147.79386      500.82604    
  11460000   83.662813      146.71893      497.18342    
  11470000   88.853873      132.09567      447.62989    
  11480000   78.304186      140.28286      475.37365    
  11490000   95.814107      149.03512      505.03225    
  11500000   109.65933      124.76689      422.79502    
  11510000   102.25964      152.91313      518.17361    
  11520000   104.56263      133.14913      451.19973    
  11530000   102.8794       133.93051      453.84759    
  11540000   83.806908      148.47596      503.13746    
  11550000   80.804699      155.19798      525.91623    
  11560000   87.958582      140.46203      475.98082    
  11570000   93.649032      153.56351      520.37753    
  11580000   89.065415      153.06015      518.67179    
  11590000   107.9316       158.49704      537.09567    
  11600000   95.904798      162.2821       549.92203    
  11610000   106.07402      169.6995       575.05722    
  11620000   104.33603      138.7664       470.23488    
  11630000   96.687946      135.3711       458.7293     
  11640000   101.31644      151.94064      514.87815    
  11650000   72.272887      155.51379      526.98639    
  11660000   89.051881      149.11834      505.31428    
  11670000   92.921369      142.93726      484.36856    
  11680000   99.121002      135.61348      459.55062    
  11690000   91.533962      134.69971      456.45416    
  11700000   91.268791      143.60063      486.61651    
  11710000   87.374195      140.0322       474.52426    
  11720000   91.167299      153.84748      521.3398     
  11730000   108.93975      144.78405      490.62674    
  11740000   96.531605      163.3376       553.4988     
  11750000   88.127251      156.72349      531.0857     
  11760000   88.685647      166.45106      564.0493     
  11770000   80.464008      149.74879      507.45066    
  11780000   102.60823      143.82375      487.37262    
  11790000   85.726612      156.42103      530.06074    
  11800000   101.93945      136.45721      462.40977    
  11810000   111.63359      148.26972      502.43855    
  11820000   84.538263      156.37929      529.9193     
  11830000   85.492951      141.34258      478.96471    
  11840000   92.203549      141.90054      480.85545    
  11850000   95.147596      158.50132      537.11018    
  11860000   99.383987      189.31772      641.5371     
  11870000   101.45875      151.40899      513.07654    
  11880000   98.633641      140.29423      475.41218    
  11890000   104.8502       147.14173      498.61618    
  11900000   102.25981      136.56214      462.76534    
  11910000   91.241195      150.51796      510.05715    
  11920000   96.10164       133.92794      453.83888    
  11930000   104.41074      151.51938      513.45064    
  11940000   103.74352      155.98762      528.59205    
  11950000   107.39276      141.67333      480.08552    
  11960000   91.288327      154.50645      523.57285    
  11970000   71.89448       130.8724       443.48461    
  11980000   74.995374      149.80161      507.62966    
  11990000   91.857222      144.71263      490.38475    
  12000000   90.137235      162.74524      551.49148    
Loop time of 415.998 on 1 procs for 8000000 steps with 100 atoms

Performance: 16615.467 ns/day, 0.001 hours/ns, 19230.865 timesteps/s, 1.923 Matom-step/s
99.2% CPU use with 1 MPI tasks x 1 OpenMP threads

MPI task timing breakdown:
Section |  min time  |  avg time  |  max time  |%varavg| %total
---------------------------------------------------------------
Pair    | 349.03     | 349.03     | 349.03     |   0.0 | 83.90
Bond    | 39.332     | 39.332     | 39.332     |   0.0 |  9.45
Neigh   | 4.0145     | 4.0145     | 4.0145     |   0.0 |  0.97
Comm    | 4.0307     | 4.0307     | 4.0307     |   0.0 |  0.97
Output  | 0.23855    | 0.23855    | 0.23855    |   0.0 |  0.06
Modify  | 17.535     | 17.535     | 17.535     |   0.0 |  4.22
Other   |            | 1.814      |            |       |  0.44

Nlocal:            100 ave         100 max         100 min
Histogram: 1 0 0 0 0 0 0 0 0 0
Nghost:              0 ave           0 max           0 min
Histogram: 1 0 0 0 0 0 0 0 0 0
Neighs:            300 ave         300 max         300 min
Histogram: 1 0 0 0 0 0 0 0 0 0

Total # of neighbors = 300
Ave neighs/atom = 3
Ave special neighs/atom = 5.88
Neighbor list builds = 23013
Dangerous builds = 0
Generated 0 of 6 mixed pair_coeff terms from geometric mixing rule
Setting up Verlet run ...
  Unit style    : real
  Current step  : 12000000
  Time step     : 10
Per MPI rank memory allocation (min/avg/max) = 9.633 | 9.633 | 9.633 Mbytes
   Step         PotEng         KinEng          Temp     
  12000000   90.137235      162.74524      551.49148    
  12010000   95.475418      147.64788      500.33134    
  12020000   96.495605      138.22656      468.40552    
  12030000   83.130412      153.49814      520.156      
  12040000   84.847659      163.54547      554.2032     
  12050000   94.238884      167.1667       566.47437    
  12060000   86.046032      145.88989      494.3741     
  12070000   104.577        145.1397       491.83194    
  12080000   89.613626      159.52266      540.57117    
  12090000   102.07191      171.55542      581.34636    
  12100000   93.613335      155.47142      526.84282    
  12110000   103.59058      150.42082      509.72796    
  12120000   95.586918      144.17744      488.57114    
  12130000   99.747192      125.24162      424.40373    
  12140000   97.98329       142.76194      483.77447    
  12150000   84.710822      152.92787      518.22355    
  12160000   98.145526      149.76683      507.51178    
  12170000   98.658201      145.21594      492.09028    
  12180000   95.796621      149.23729      505.71737    
  12190000   100.16338      137.80082      466.96284    
  12200000   97.152723      149.50952      506.63984    
  12210000   96.53866       149.01193      504.95367    
  12220000   96.657149      164.87321      558.70248    
  12230000   92.996886      144.27299      488.89493    
  12240000   98.018886      158.19266      536.06424    
  12250000   79.227517      136.28925      461.8406     
  12260000   71.477978      166.95476      565.75619    
  12270000   79.302497      137.02685      464.34008    
  12280000   69.22211       133.22109      451.44359    
  12290000   82.660394      127.88329      433.35551    
  12300000   75.068001      157.12233      532.43724    
  12310000   93.333635      143.23554      485.37936    
  12320000   85.970382      176.63592      598.56255    
  12330000   102.1324       164.46669      557.32493    
  12340000   92.327072      161.46152      547.14136    
  12350000   124.12202      157.30587      533.05918    
  12360000   109.99497      156.8029       531.35477    
  12370000   99.657582      136.19594      461.52441    
  12380000   81.390572      144.75822      490.53923    
  12390000   97.615744      125.84739      426.45648    
  12400000   78.707516      149.09068      505.22055    
  12410000   93.402319      147.69109      500.47777    
  12420000   86.909111      148.78361      504.17997    
  12430000   95.449933      151.74265      514.20721    
  12440000   103.88007      159.97055      542.08895    
  12450000   107.43388      146.1386       495.21689    
  12460000   95.910013      139.9268       474.16708    
  12470000   96.184191      139.57123      472.96218    
  12480000   81.028747      137.28876      465.22763    
  12490000   85.706074      143.44201      486.079      
  12500000   104.71758      146.39426      496.08323    
  12510000   101.51149      148.63019      503.66009    
  12520000   94.349437      147.87714      501.10824    
  12530000   110.02406      164.44716      557.25872    
  12540000   86.973527      136.77467      463.48553    
  12550000   97.254472      145.58091      493.32706    
  12560000   87.99822       151.69494      514.04554    
  12570000   103.7833       169.66785      574.94996    
  12580000   83.106563      153.04189      518.60994    
  12590000   92.356849      170.4802       577.70278    
  12600000   104.82595      175.10181      593.36394    
  12610000   78.807456      164.82211      558.52933    
  12620000   95.832304      163.02091      552.42563    
  12630000   100.51517      145.17472      491.95059    
  12640000   99.944067      143.83074      487.39629    
  12650000   101.93948      138.73742      470.13668    
  12660000   104.67048      155.12906      525.68268    
  12670000   81.396003      146.2632       495.63913    
  12680000   97.242851      151.83362      514.5155     
  12690000   98.622716      159.98291      542.13082    
  12700000   97.240825      139.53496      472.83928    
  12710000   96.642956      148.79677      504.22459    
  12720000   110.42789      152.94526      518.28248    
  12730000   89.392387      139.57459      472.97355    
  12740000   76.133283      117.24785      397.31541    
  12750000   97.193965      138.66595      469.89447    
  12760000   97.584493      155.54209      527.08231    
  12770000   110.48568      148.27724      502.46404    
  12780000   106.85633      154.19958      522.53297    
  12790000   97.177313      146.84039      497.59502    
  12800000   110.57621      141.76412      480.39319    
  12810000   73.802645      158.50295      537.11569    
  12820000   86.185801      121.01203      410.07098    
  12830000   78.247216      148.48238      503.1592     
  12840000   109.69143      143.86202      487.5023     
  12850000   99.849109      144.26317      488.86165    
  12860000   99.129386      159.07046      539.03882    
  12870000   88.05933       156.0086       528.66316    
  12880000   77.487245      164.7732       558.36357    
  12890000   76.092007      170.05738      576.26997    
  12900000   98.978931      140.18384      475.03812    
  12910000   76.665316      146.49063      496.4098     
  12920000   90.180378      120.41947      408.06301    
  12930000   100.09458      118.71023      402.27093    
  12940000   100.03535      150.46491      509.87737    
  12950000   118.52391      149.03336      505.02629    
  12960000   94.014027      154.26526      522.75554    
  12970000   81.909073      150.90958      511.38421    
  12980000   89.184849      123.62397      418.92204    
  12990000   91.743896      135.53918      459.29885    
  13000000   92.8367        140.27941      475.36197    
  13010000   96.829669      138.06711      467.86519    
  13020000   98.315289      174.8257       592.42828    
  13030000   94.402068      140.84392      477.2749     
  13040000   112.63271      155.7608       527.82344    
  13050000   99.550119      149.92052      508.03259    
  13060000   101.9716       137.79449      466.94137    
[...]
 228780000   60.190512      107.01865      362.65191    
 228790000   71.955375      103.71374      351.45263    
 228800000   72.953733      131.63181      446.05802    
 228810000   79.497768      114.16039      386.85299    
 228820000   89.515972      119.76742      405.85341    
 228830000   64.473972      118.53802      401.68736    
 228840000   78.789762      111.47504      377.75321    
 228850000   72.267663      122.91149      416.50767    
 228860000   64.069399      104.96253      355.68436    
 228870000   73.552435      114.82504      389.10527    
 228880000   71.933912      117.89903      399.52203    
 228890000   62.620371      121.73508      412.52117    
 228900000   53.974234      108.73384      368.46415    
 228910000   65.272349      117.68587      398.79971    
 228920000   80.660014      112.66559      381.78757    
 228930000   72.902196      111.33308      377.27214    
 228940000   63.249296      122.69013      415.75754    
 228950000   75.833182      101.1895       342.89878    
 228960000   73.851887      108.86582      368.91137    
 228970000   66.746088      116.82009      395.86584    
 228980000   79.626716      118.36106      401.0877     
 228990000   49.109882      112.07147      379.77429    
 229000000   51.817607      112.952        382.75812    
 229010000   50.378122      96.627846      327.44081    
 229020000   63.879983      108.18862      366.61656    
 229030000   50.953795      113.33495      384.05583    
 229040000   43.468471      101.66957      344.5256     
 229050000   50.888831      102.76969      348.25356    
 229060000   40.002633      117.07047      396.71431    
 229070000   34.764857      117.17194      397.05817    
 229080000   51.476821      117.05654      396.66709    
 229090000   62.602147      120.48855      408.29708    
 229100000   58.960896      109.02227      369.44154    
 229110000   59.068815      112.97638      382.84074    
 229120000   51.304944      112.92959      382.68221    
 229130000   59.496287      111.56444      378.05613    
 229140000   68.445329      115.26469      390.5951     
 229150000   56.631722      116.57415      395.03243    
 229160000   61.583431      118.71924      402.30146    
 229170000   70.343117      133.00098      450.69769    
 229180000   49.631769      128.621        435.85536    
 229190000   34.716502      127.10436      430.71595    
 229200000   51.410203      112.49566      381.21176    
 229210000   46.199932      120.5584       408.53379    
 229220000   48.044676      128.05219      433.92785    
 229230000   63.262242      123.0936       417.12475    
 229240000   56.619252      104.09234      352.73558    
 229250000   52.462681      108.57792      367.93579    
 229260000   54.834194      109.30202      370.38951    
 229270000   34.523069      108.85936      368.88948    
 229280000   34.875894      112.7228       381.98143    
 229290000   57.669981      116.3523       394.28067    
 229300000   50.909503      123.53658      418.62588    
 229310000   60.729401      112.85578      382.43207    
 229320000   53.466964      115.92198      392.82245    
 229330000   54.096111      111.37751      377.42268    
 229340000   67.221227      113.68001      385.22511    
 229350000   75.273553      107.98731      365.93439    
 229360000   75.009004      120.56518      408.55678    
 229370000   75.448051      142.83281      484.01461    
 229380000   77.787037      125.75792      426.15329    
 229390000   75.072975      115.15784      390.23303    
 229400000   72.227601      112.35556      380.73699    
 229410000   77.927763      132.66744      449.56743    
 229420000   64.194152      114.4943       387.98449    
 229430000   65.170971      117.31863      397.55525    
 229440000   67.040832      113.35894      384.13711    
 229450000   58.277349      101.59054      344.25779    
 229460000   62.285831      106.86555      362.13311    
 229470000   61.876207      99.927126      338.62101    
 229480000   60.930718      130.78942      443.20344    
 229490000   67.979953      132.44315      448.8074     
 229500000   74.817633      127.48153      431.99407    
 229510000   59.491649      111.75855      378.71393    
 229520000   54.301898      118.01058      399.90004    
 229530000   67.434826      98.501605      333.79038    
 229540000   54.930038      113.10178      383.2657     
 229550000   44.974873      112.76162      382.11299    
 229560000   58.926968      123.52689      418.59304    
 229570000   49.529904      135.42468      458.91086    
 229580000   55.223636      95.90274       324.98366    
 229590000   30.779317      119.73157      405.73193    
 229600000   48.28592       95.984499      325.26071    
 229610000   45.185672      115.16439      390.25523    
 229620000   61.304389      101.01279      342.29999    
 229630000   49.726621      124.89958      423.24465    
 229640000   37.649711      129.07185      437.38313    
 229650000   46.818842      94.627663      320.66283    
 229660000   48.75964       102.29677      346.65096    
 229670000   28.744886      132.54256      449.14427    
 229680000   24.779199      132.00667      447.32829    
 229690000   41.625719      123.6577       419.03632    
 229700000   46.118917      109.24657      370.20161    
 229710000   36.723832      101.1545       342.78018    
 229720000   25.326378      128.19342      434.40642    
 229730000   26.858011      107.39653      363.93241    
 229740000   34.637417      111.3926       377.47382    
 229750000   40.870542      123.97774      420.12082    
 229760000   35.63415       121.43068      411.48965    
 229770000   44.404542      108.77328      368.5978     
 229780000   33.74732       116.00074      393.08934    
 229790000   24.300831      105.77595      358.44079    
 229800000   30.054193      112.14669      380.02919    
 229810000   27.126682      126.95464      430.20858    
 229820000   32.626731      99.670465      337.75127    
 229830000   28.84637       101.55816      344.14807    
 229840000   22.380031      102.90149      348.70016    
 229850000   29.914171      109.12711      369.7968     
 229860000   29.850732      102.33299      346.77372    
 229870000   39.116934      95.920201      325.04283    
 229880000   34.922253      95.387367      323.23722    
 229890000   37.461909      117.97489      399.7791     
 229900000   52.119647      113.60235      384.96196    
 229910000   41.890024      125.7864       426.24979    
 229920000   63.814732      92.745942      314.28628    
 229930000   68.846958      115.04838      389.86208    
 229940000   56.470615      124.85811      423.10413    
 229950000   65.907317      123.77672      419.43965    
 229960000   69.870128      100.12596      339.2948     
 229970000   76.456555      114.94412      389.50879    
 229980000   80.432         116.74427      395.60894    
 229990000   71.874111      122.41621      414.82929    
 230000000   65.159658      121.23909      410.84042    
 230010000   68.280036      110.72221      375.20208    
 230020000   66.71276       104.68135      354.73154    
 230030000   72.500788      105.46127      357.37444    
 230040000   61.186698      120.88931      409.65513    
 230050000   63.60487       109.97685      372.67631    
 230060000   61.677288      105.93394      358.97618    
 230070000   70.866952      101.7503       344.79915    
 230080000   64.065165      117.16411      397.03164    
 230090000   66.007438      105.66025      358.04874    
 230100000   61.249687      116.49699      394.77096    
 230110000   72.345439      123.56866      418.73459    
 230120000   60.924762      89.355646      302.79765    
 230130000   58.274629      108.5822       367.95028    
 230140000   63.885787      116.0329       393.19831    
 230150000   78.802113      111.93475      379.311      
 230160000   55.73228       109.95041      372.58669    
 230170000   49.777278      114.04596      386.46523    
 230180000   56.720947      123.94186      419.99923    
 230190000   53.577597      110.53593      374.57086    
 230200000   50.733898      104.42819      353.87368    
 230210000   43.774822      115.08076      389.97183    
 230220000   64.917056      111.99751      379.52368    
 230230000   45.130771      118.97521      403.16888    
 230240000   47.118253      98.805187      334.81912    
 230250000   53.003009      116.87378      396.04779    
 230260000   69.00311       107.32361      363.68532    
 230270000   67.037314      112.69197      381.87697    
 230280000   71.576914      118.53588      401.68011    
 230290000   43.572072      102.78778      348.31486    
 230300000   56.828406      111.76616      378.7397     
 230310000   48.459117      101.69197      344.60152    
 230320000   36.117245      108.87038      368.92685    
 230330000   59.30807       101.21329      342.97942    
 230340000   62.678308      116.90818      396.16436    
 230350000   52.367233      127.24153      431.18077    
 230360000   69.170087      119.44577      404.76344    
 230370000   55.847527      123.05694      417.00055    
 230380000   31.822155      114.40122      387.66908    
 230390000   59.343579      97.143667      329.18876    
 230400000   45.550856      111.75426      378.69938    
 230410000   45.459526      104.33659      353.56326    
 230420000   43.089553      108.9245       369.11024    
 230430000   53.01282       101.36842      343.5051     
 230440000   58.23912       115.06593      389.92158    
 230450000   48.599095      103.79073      351.71353    
 230460000   46.25095       114.9591       389.55956    
 230470000   42.725389      101.78643      344.92158    
 230480000   39.489194      111.39375      377.47771    
 230490000   24.800381      97.744038      331.22323    
 230500000   38.05003       96.064258      325.53099    
 230510000   44.481376      116.67052      395.35899    
 230520000   47.504419      120.10291      406.99027    
 230530000   35.294298      110.97031      376.04281    
 230540000   36.276819      99.618719      337.57592    
 230550000   34.563538      114.77467      388.93458    
 230560000   51.658344      119.8557       406.15255    
 230570000   48.789697      115.87659      392.66862    
 230580000   49.088801      121.02294      410.10796    
 230590000   64.672898      105.52581      357.59317    
 230600000   52.276217      111.9177       379.25322    
 230610000   49.994928      109.05296      369.54555    
 230620000   49.136368      116.96818      396.36767    
 230630000   61.908742      116.80355      395.8098     
 230640000   61.107433      113.10341      383.27121    
 230650000   51.794404      112.70496      381.92101    
 230660000   45.419445      89.46299       303.16141    
 230670000   48.235125      100.74207      341.38259    
 230680000   42.075561      104.47546      354.03387    
 230690000   37.530164      119.94908      406.469      
 230700000   51.588279      113.36546      384.15921    
 230710000   19.433634      101.97777      345.56999    
 230720000   22.440144      109.22678      370.13456    
 230730000   32.544199      122.39893      414.77076    
 230740000   28.474672      110.35622      373.96188    
 230750000   22.095819      106.2449       360.02991    
 230760000   28.139734      96.333871      326.44462    
 230770000   23.847083      110.61359      374.834      
 230780000   21.785662      99.714438      337.90028    
 230790000   23.729922      107.11629      362.98277    
 230800000   8.4598169      110.90464      375.82029    
 230810000   37.70947       96.280662      326.26431    
 230820000   21.901625      104.43568      353.89907    
 230830000   23.461212      107.11167      362.96714    
 230840000   28.957059      122.51461      415.16275    
 230850000   44.190288      113.51747      384.67432    
 230860000   23.372645      108.82014      368.75658    
 230870000   24.576329      111.08789      376.44127    
 230880000   25.930056      111.66602      378.40037    
 230890000   31.990861      100.26164      339.75458    
 230900000   50.277405      89.811634      304.34285    
 230910000   29.226968      122.75668      415.98305    
 230920000   18.546662      135.98584      460.81245    
 230930000   34.205515      114.27673      387.24722    
 230940000   46.125154      108.34523      367.14727    
 230950000   55.305976      116.77109      395.69981    
 230960000   23.547785      114.95631      389.5501     
 230970000   31.695351      120.44249      408.14101    
 230980000   38.790316      106.08378      359.48395    
 230990000   28.422581      103.28263      349.99175    
 231000000   37.036978      111.98488      379.48088    
 231010000   20.352954      109.57893      371.32788    
 231020000   15.777824      126.80219      429.69199    
 231030000   30.505416      112.62309      381.64357    
 231040000   38.997741      96.515372      327.05967    
 231050000   21.166723      103.61891      351.13127    
 231060000   26.783395      109.34615      370.53905    
 231070000   18.933958      118.78023      402.50813    
 231080000   42.713171      100.12669      339.29726    
 231090000   43.900052      97.467228      330.2852     
 231100000   56.880956      120.08895      406.94298    
 231110000   33.05427       122.53983      415.24822    
 231120000   37.761745      110.31044      373.80673    
 231130000   35.46764       103.1348       349.49079    
 231140000   43.716382      108.15356      366.49776    
 231150000   49.765485      95.590929      323.92703    
 231160000   44.372841      106.27425      360.12939    
 231170000   39.724487      111.41192      377.5393     
 231180000   45.639064      117.30547      397.51064    
 231190000   44.646506      108.8889       368.98958    
 231200000   36.527011      113.105        383.27659    
 231210000   24.953806      104.24141      353.24073    
 231220000   41.770744      115.98549      393.03766    
 231230000   47.44575       111.59144      378.14763    
 231240000   44.163486      109.03055      369.4696     
 231250000   50.129435      113.77901      385.56059    
 231260000   40.951642      113.73077      385.39713    
 231270000   35.164775      110.96996      376.04165    
 231280000   39.470769      109.95649      372.6073     
 231290000   33.232994      102.36996      346.89899    
 231300000   20.922596      111.06051      376.34849    
 231310000   45.511783      97.47582       330.31432    
 231320000   51.798284      86.377787      292.70664    
 231330000   46.705872      110.34436      373.92167    
 231340000   43.327409      91.755774      310.93092    
 231350000   44.646716      111.01889      376.20744    
 231360000   36.084973      108.70294      368.35944    
 231370000   36.328527      100.74878      341.40534    
 231380000   41.97794       102.09937      345.98205    
 231390000   40.643177      121.44069      411.52358    
 231400000   33.234422      108.96015      369.23105    
 231410000   40.055288      104.47944      354.04734    
 231420000   43.457031      104.92162      355.54576    
 231430000   41.162276      116.69553      395.44375    
 231440000   25.396099      102.55308      347.51951    
 231450000   22.912148      108.05459      366.1624     
 231460000   41.591403      94.28254       319.49332    
 231470000   42.10764       106.33262      360.32719    
 231480000   37.803791      101.36697      343.50018    
 231490000   52.943597      98.991017      335.44884    
 231500000   27.128619      121.66269      412.27587    
 231510000   46.907917      105.03312      355.9236     
 231520000   55.034283      111.01344      376.18899    
 231530000   69.720493      113.34569      384.09223    
 231540000   51.794872      129.99891      440.52466    
 231550000   53.448402      115.95816      392.94505    
 231560000   48.815002      120.44507      408.14974    
 231570000   48.12629       124.24584      421.02935    
 231580000   52.856822      114.68074      388.61628    
 231590000   28.385421      111.18206      376.76038    
 231600000   17.554071      103.85792      351.94121    
 231610000   17.857854      97.58456       330.68281    
 231620000   16.296241      112.63777      381.6933     
 231630000   38.450363      104.50427      354.1315     
 231640000   28.114548      116.47107      394.68314    
 231650000   15.192635      109.49117      371.0305     
 231660000   29.926868      101.26552      343.15638    
 231670000   11.338562      114.92908      389.45782    
 231680000   16.399943      110.76989      375.36365    
 231690000   30.01267       131.60169      445.95597    
 231700000   19.560467      122.86303      416.34345    
 231710000   13.132772      98.33378       333.22167    
 231720000   6.2287903      89.829782      304.40435    
 231730000   10.388755      86.79246       294.11184    
 231740000   26.031822      97.409204      330.08858    
 231750000   21.549516      102.85626      348.54691    
 231760000   4.9738128      99.848204      338.35357    
 231770000   10.548616      100.47645      340.4825     
 231780000  -7.5921825      110.62334      374.86705    
 231790000  -13.051435      102.43016      347.10299    
 231800000   4.5870721      91.709686      310.77474    
 231810000   3.544022       85.559582      289.93401    
 231820000  -0.5811736      101.43112      343.71755    
 231830000   7.5484407      105.0922       356.1238     
 231840000   6.0547354      99.821993      338.26475    
 231850000   16.32288       101.47191      343.85577    
 231860000   4.4767886      94.213652      319.25988    
 231870000  -2.5154048      113.71719      385.35112    
 231880000   12.216792      98.815268      334.85328    
 231890000   23.770207      103.45667      350.5815     
 231900000   33.180906      113.1014       383.26441    
 231910000   30.575677      103.07889      349.30132    
 231920000   19.706908      90.976552      308.29038    
 231930000   4.3406506      106.52548      360.98072    
 231940000  -2.0305128      100.6507       341.07298    
 231950000   3.7140644      92.509452      313.48489    
 231960000  -4.2987839      97.10868       329.0702     
 231970000   10.111668      80.857309      273.99951    
 231980000   21.015833      104.49134      354.08766    
 231990000   17.240383      92.161924      312.30723    
 232000000   9.2574756      109.35511      370.56943    
 232010000   5.2039892      105.96653      359.08662    
 232020000  -1.0356146      107.71935      365.02637    
 232030000   11.545033      106.76726      361.80002    
 232040000   7.6507304      104.30078      353.44192    
 232050000  -4.2012901      108.34109      367.13325    
 232060000   15.178141      103.81933      351.81046    
 232070000   21.648114      99.990034      338.83419    
 232080000   21.175439      106.94575      362.40488    
 232090000   19.665328      92.651813      313.9673     
 232100000   20.212811      98.644793      334.2756     
 232110000   16.169078      101.51461      344.00049    
 232120000   19.456096      98.969576      335.37618    
 232130000   2.1805266      102.94498      348.84754    
 232140000   9.4874997      104.47206      354.02232    
 232150000   6.1000114      107.80954      365.33198    
 232160000   2.8205286      91.588663      310.36463    
 232170000  -28.599584      116.06942      393.32207    
 232180000  -17.914844      98.849203      334.96828    
 232190000  -22.019237      92.210034      312.47026    
 232200000   5.8626679      104.99747      355.80278    
 232210000   0.67270469     109.48709      371.01666    
 232220000   1.2945286      93.288328      316.12425    
 232230000  -11.037649      102.88252      348.6359     
 232240000   2.9357044      96.908266      328.39106    
srun: Job step aborted: Waiting up to 47 seconds for job step to finish.
[2025-11-21T03:05:23.601] error: *** JOB 2468716 ON della-h12n18 CANCELLED AT 2025-11-21T03:05:23 DUE to SIGNAL Terminated ***
