LAMMPS (29 Aug 2024)
  using 1 OpenMP thread(s) per MPI task
Reading data file ...
  orthogonal box = (-1000.6 -1000.6 -1800.6) to (1000.6 1000.6 1000.6)
  1 by 1 by 1 MPI processor grid
  reading atoms ...
  200 atoms
  scanning bonds ...
  1 = max bonds/atom
  scanning angles ...
  1 = max angles/atom
  orthogonal box = (-1000.6 -1000.6 -1800.6) to (1000.6 1000.6 1000.6)
  1 by 1 by 1 MPI processor grid
  reading bonds ...
  199 bonds
  reading angles ...
  198 angles
Finding 1-2 1-3 1-4 neighbors ...
  special bond factors lj:    0        0        0       
  special bond factors coul:  0        0        0       
     2 = max # of 1-2 neighbors
     2 = max # of 1-3 neighbors
     4 = max # of 1-4 neighbors
     6 = max # of special neighbors
  special bonds CPU = 0.000 seconds
  read_data CPU = 0.029 seconds
Finding 1-2 1-3 1-4 neighbors ...
  special bond factors lj:    0        0        1       
  special bond factors coul:  0        0        0       
     2 = max # of 1-2 neighbors
     2 = max # of 1-3 neighbors
     4 = max # of 1-4 neighbors
     6 = max # of special neighbors
  special bonds CPU = 0.000 seconds

CITE-CITE-CITE-CITE-CITE-CITE-CITE-CITE-CITE-CITE-CITE-CITE-CITE

Your simulation uses code contributions which should be cited:
- Type Label Framework: https://doi.org/10.1021/acs.jpcb.3c08419
The log file lists these citations in BibTeX format.

CITE-CITE-CITE-CITE-CITE-CITE-CITE-CITE-CITE-CITE-CITE-CITE-CITE

Generated 0 of 6 mixed pair_coeff terms from geometric mixing rule
Neighbor list info ...
  update: every = 10 steps, delay = 0 steps, check = yes
  max neighbors/atom: 2000, page size: 100000
  master list distance cutoff = 33
  ghost atom cutoff = 33
  binsize = 16.5, bins = 122 122 170
  2 neighbor lists, perpetual/occasional/extra = 2 0 0
  (1) pair lj/cut, perpetual, trim from (2)
      attributes: half, newton on, cut 25
      pair build: trim
      stencil: none
      bin: none
  (2) pair base/rna, perpetual
      attributes: half, newton on
      pair build: half/bin/newton
      stencil: half/bin/3d
      bin: standard
Setting up Verlet run ...
  Unit style    : real
  Current step  : 0
  Time step     : 10
Per MPI rank memory allocation (min/avg/max) = 18.06 | 18.06 | 18.06 Mbytes
   Step         PotEng         KinEng          Temp     
         0   271.41412      176.768        298          
      1000   190.57884      235.38306      396.81476    
      2000   140.55686      265.51615      447.6139     
      3000   117.4891       272.02392      458.58487    
      4000   112.62302      248.57608      419.0559     
      5000   113.54352      236.49178      398.68388    
      6000   113.59902      223.33086      376.49686    
      7000   116.86052      203.55981      343.16632    
      8000   112.75769      200.91295      338.70418    
      9000   121.288        191.44051      322.7353     
     10000   111.36399      199.47371      336.27787    
     11000   114.19476      201.79791      340.19606    
     12000   95.977042      221.56317      373.51685    
     13000   126.50068      196.29304      330.91582    
     14000   121.98529      204.00394      343.91505    
     15000   121.25842      189.33496      319.1857     
     16000   119.63014      191.37028      322.6169     
     17000   102.04494      204.11538      344.10291    
     18000   112.40864      185.51526      312.74636    
     19000   104.32461      188.49443      317.76872    
     20000   114.04684      176.49632      297.54199    
     21000   121.53508      174.07793      293.46502    
     22000   121.86275      169.24168      285.31194    
     23000   110.41225      186.08623      313.70891    
     24000   113.41075      177.75823      299.66936    
     25000   106.67113      183.45947      309.28065    
     26000   116.02759      171.93263      289.84841    
     27000   108.67594      174.17277      293.6249     
     28000   112.26547      164.81321      277.84632    
     29000   111.34467      165.81195      279.53002    
     30000   108.9422       170.14581      286.83616    
     31000   114.53535      177.51871      299.26556    
     32000   111.33151      179.48965      302.58823    
     33000   116.17602      174.37323      293.96285    
     34000   110.2499       182.04708      306.89961    
     35000   120.38435      166.2377       280.24776    
     36000   116.32431      163.42364      275.50375    
     37000   102.82468      170.46282      287.37056    
     38000   106.01904      165.97893      279.81151    
     39000   95.242183      165.29817      278.66388    
     40000   102.39877      162.17871      273.40501    
     41000   92.745105      168.34373      283.79815    
     42000   103.43775      149.74623      252.44601    
     43000   100.02161      156.8059       264.34738    
     44000   97.033045      169.46353      285.68594    
     45000   107.9038       165.3145       278.69141    
     46000   101.5037       176.4756       297.50706    
     47000   110.43972      167.21785      281.90012    
     48000   96.754846      176.34889      297.29346    
     49000   108.23921      158.63283      267.42728    
     50000   112.70252      154.16997      259.90367    
     51000   104.05303      167.47226      282.32901    
     52000   108.13161      163.25209      275.21453    
     53000   119.06359      156.70821      264.18271    
     54000   116.29817      156.28432      263.4681     
     55000   106.91921      160.35913      270.33752    
     56000   100.63179      168.79474      284.55848    
     57000   101.93662      170.10404      286.76574    
     58000   101.68651      170.45241      287.35302    
     59000   105.52124      168.02449      283.25997    
     60000   105.59609      173.21991      292.01855    
     61000   105.57335      173.21301      292.00691    
     62000   106.07107      158.01253      266.38155    
     63000   103.38617      176.62573      297.76016    
     64000   115.73801      160.45112      270.4926     
     65000   110.07817      170.97019      288.2259     
     66000   100.70537      172.95195      291.5668     
     67000   114.43654      163.81114      276.157      
     68000   111.41481      163.02657      274.83435    
     69000   107.28266      174.77421      294.63882    
     70000   116.26205      166.07684      279.97658    
     71000   108.21738      188.17559      317.23121    
     72000   126.39792      176.67784      297.84801    
     73000   117.53767      188.48312      317.74966    
     74000   117.14877      186.27348      314.02459    
     75000   122.38212      180.05678      303.54431    
     76000   120.15641      187.07763      315.38024    
     77000   122.01482      174.06112      293.43667    
     78000   107.84801      186.86036      315.01397    
     79000   106.78649      184.61756      311.23299    
     80000   99.584674      183.0793       308.63975    
     81000   118.81702      171.38007      288.9169     
     82000   111.80257      178.33649      300.6442     
     83000   112.95783      171.32993      288.83236    
     84000   106.20508      170.93014      288.1584     
     85000   95.609444      178.44384      300.82518    
     86000   111.2002       168.77353      284.52272    
     87000   104.16245      169.07649      285.03347    
     88000   110.41232      164.17563      276.77146    
     89000   109.51039      173.75574      292.92186    
     90000   112.36952      174.03299      293.38925    
     91000   119.57962      170.98781      288.25562    
     92000   120.2625       174.31936      293.87202    
     93000   100.20266      192.99373      325.35376    
     94000   91.170013      197.75616      333.38237    
     95000   114.63993      170.73948      287.83698    
     96000   128.36704      153.82556      259.32305    
     97000   101.33539      174.97063      294.96995    
     98000   103.35379      168.51633      284.08912    
     99000   102.17774      168.51554      284.0878     
    100000   108.34898      169.58024      285.8827     
Loop time of 4.62146 on 1 procs for 100000 steps with 200 atoms

Performance: 18695.380 ns/day, 0.001 hours/ns, 21638.171 timesteps/s, 4.328 Matom-step/s
98.9% CPU use with 1 MPI tasks x 1 OpenMP threads

MPI task timing breakdown:
Section |  min time  |  avg time  |  max time  |%varavg| %total
---------------------------------------------------------------
Pair    | 2.2033     | 2.2033     | 2.2033     |   0.0 | 47.68
Bond    | 1.0396     | 1.0396     | 1.0396     |   0.0 | 22.49
Neigh   | 0.54766    | 0.54766    | 0.54766    |   0.0 | 11.85
Comm    | 0.34254    | 0.34254    | 0.34254    |   0.0 |  7.41
Output  | 0.041542   | 0.041542   | 0.041542   |   0.0 |  0.90
Modify  | 0.4214     | 0.4214     | 0.4214     |   0.0 |  9.12
Other   |            | 0.02548    |            |       |  0.55

Nlocal:            200 ave         200 max         200 min
Histogram: 1 0 0 0 0 0 0 0 0 0
Nghost:              0 ave           0 max           0 min
Histogram: 1 0 0 0 0 0 0 0 0 0
Neighs:            622 ave         622 max         622 min
Histogram: 1 0 0 0 0 0 0 0 0 0

Total # of neighbors = 622
Ave neighs/atom = 3.11
Ave special neighs/atom = 5.94
Neighbor list builds = 323
Dangerous builds = 0
Total wall time: 0:00:04
