LAMMPS (29 Aug 2024)
  using 1 OpenMP thread(s) per MPI task
  using 1 OpenMP thread(s) per MPI task
Reading data file ...
  orthogonal box = (-500.6 -500.6 -500.6) to (500.6 500.6 500.6)
  1 by 1 by 1 MPI processor grid
  reading atoms ...
  100 atoms
  scanning bonds ...
  1 = max bonds/atom
  scanning angles ...
  1 = max angles/atom
  orthogonal box = (-500.6 -500.6 -500.6) to (500.6 500.6 500.6)
  1 by 1 by 1 MPI processor grid
  reading bonds ...
  99 bonds
  reading angles ...
  98 angles
Finding 1-2 1-3 1-4 neighbors ...
  special bond factors lj:    0        0        0       
  special bond factors coul:  0        0        0       
     2 = max # of 1-2 neighbors
     2 = max # of 1-3 neighbors
     4 = max # of 1-4 neighbors
     6 = max # of special neighbors
  special bonds CPU = 0.000 seconds
  read_data CPU = 0.029 seconds
Finding 1-2 1-3 1-4 neighbors ...
  special bond factors lj:    0        0        1       
  special bond factors coul:  0        0        0       
     2 = max # of 1-2 neighbors
     2 = max # of 1-3 neighbors
     4 = max # of 1-4 neighbors
     6 = max # of special neighbors
  special bonds CPU = 0.000 seconds

CITE-CITE-CITE-CITE-CITE-CITE-CITE-CITE-CITE-CITE-CITE-CITE-CITE

Your simulation uses code contributions which should be cited:
- Type Label Framework: https://doi.org/10.1021/acs.jpcb.3c08419
The log file lists these citations in BibTeX format.

CITE-CITE-CITE-CITE-CITE-CITE-CITE-CITE-CITE-CITE-CITE-CITE-CITE

Generated 0 of 6 mixed pair_coeff terms from geometric mixing rule
Neighbor list info ...
  update: every = 10 steps, delay = 0 steps, check = yes
  max neighbors/atom: 2000, page size: 100000
  master list distance cutoff = 33
  ghost atom cutoff = 33
  binsize = 16.5, bins = 61 61 61
  2 neighbor lists, perpetual/occasional/extra = 2 0 0
  (1) pair lj/cut, perpetual, trim from (2)
      attributes: half, newton on, cut 25
      pair build: trim
      stencil: none
      bin: none
  (2) pair base/rna, perpetual
      attributes: half, newton on
      pair build: half/bin/newton
      stencil: half/bin/3d
      bin: standard
Setting up Verlet run ...
  Unit style    : real
  Current step  : 0
  Time step     : 10
Per MPI rank memory allocation (min/avg/max) = 8.37 | 8.37 | 8.37 Mbytes
   Step         PotEng         KinEng          Temp     
         0   134.33628      0              0            
     10000   58.495424      95.868556      324.86782    
     20000   56.640548      90.365647      306.22022    
     30000   60.4071        78.698655      266.68452    
     40000   56.757591      78.985914      267.65795    
     50000   51.678054      88.488423      299.85891    
     60000   48.630841      98.466952      333.67295    
     70000   62.649073      97.944505      331.90254    
     80000   58.660524      82.204425      278.56446    
     90000   62.75521       82.310378      278.9235     
    100000   55.650827      79.8349        270.53489    
    110000   52.766233      91.435951      309.84714    
    120000   65.553599      88.596582      300.22543    
    130000   49.31314       91.965997      311.64329    
    140000   47.915314      95.48696       323.57471    
    150000   38.186691      99.332996      336.60769    
    160000   35.331688      85.9988        291.42238    
    170000   31.587633      90.546282      306.83234    
    180000   45.070421      82.827998      280.67754    
    190000   30.673447      102.02627      345.73434    
    200000   38.492667      94.801664      321.25246    
    210000   51.013883      92.160877      312.30368    
    220000   41.722472      99.969487      338.76456    
    230000   40.984256      88.57183       300.14155    
    240000   29.529281      92.777158      314.39206    
    250000   21.202212      104.92117      355.54423    
    260000   30.611485      81.278887      275.4281     
    270000   31.286815      80.850637      273.9769     
    280000   33.491674      75.860695      257.06759    
    290000   17.538213      83.287456      282.2345     
    300000   15.864069      87.722209      297.26246    
    310000   18.69294       89.316136      302.66376    
    320000   13.466762      93.926694      318.28747    
    330000   1.2879208      87.872222      297.7708     
    340000   10.842856      83.601728      283.29947    
    350000   11.606515      95.597123      323.94802    
    360000   11.322722      84.704412      287.03611    
    370000   4.7224189      82.750076      280.41349    
    380000   3.4358781      88.466961      299.78618    
    390000   15.074917      73.818795      250.14824    
    400000   22.177849      86.377979      292.70729    
    410000   16.96948       92.643485      313.93908    
    420000   31.668248      96.383406      326.61248    
    430000   24.111368      86.480813      293.05576    
    440000   19.754184      86.964119      294.69353    
    450000   18.998519      96.423737      326.74915    
    460000   21.506065      83.752021      283.80876    
    470000   13.228266      77.355714      262.13373    
    480000   13.814671      89.576423      303.54579    
    490000  -3.7586337      88.719187      300.6409     
    500000   19.429415      79.204486      268.39862    
    510000   17.489398      95.692837      324.27236    
    520000   18.666024      94.403939      319.9047     
    530000   20.657653      76.12168       257.95198    
    540000   18.580546      87.495212      296.49324    
    550000   18.139821      89.386482      302.90215    
    560000   5.5686732      93.234066      315.94038    
    570000  -5.6221568      90.385975      306.28911    
    580000   4.5660641      91.579324      310.33298    
    590000  -5.7960956      89.531327      303.39298    
    600000   5.7904249      83.252479      282.11598    
    610000   6.60686        80.633723      273.24185    
    620000  -9.5425619      85.748701      290.57487    
    630000  -1.7702119      90.747358      307.51372    
    640000  -3.4299561      91.982884      311.70052    
    650000  -5.2278704      96.749748      327.8539     
    660000  -1.6406808      84.223906      285.40783    
    670000  -6.5197694      90.320164      306.0661     
    680000  -19.029559      93.864037      318.07514    
    690000  -2.330146       93.629203      317.27937    
    700000  -1.942414       96.9625        328.57484    
    710000   10.516596      75.666082      256.4081     
    720000   7.0313282      85.57234       289.97724    
    730000   9.2280822      80.386853      272.40528    
    740000   1.5865096      80.276093      272.02996    
    750000  -6.5405123      85.666915      290.29772    
    760000  -21.870307      82.598764      279.90074    
    770000  -22.025238      88.19885       298.87764    
    780000  -22.854181      80.735182      273.58566    
    790000  -32.036989      100.69208      341.21321    
    800000  -2.7207271      85.386445      289.3473     
    810000  -22.379761      93.329237      316.26288    
    820000  -30.288112      88.987476      301.55004    
    830000  -33.301986      87.316569      295.88787    
    840000  -47.672576      96.198431      325.98566    
    850000  -37.535787      83.239331      282.07142    
    860000  -35.420142      86.051883      291.60226    
    870000  -24.084397      80.650292      273.298      
    880000  -31.96975       87.359147      296.03215    
    890000  -19.244624      80.927195      274.23633    
    900000  -10.868857      83.877031      284.23238    
    910000  -15.207953      81.279067      275.42871    
    920000  -29.107976      100.53083      340.66678    
    930000  -17.09626       93.721594      317.59245    
    940000  -14.718995      87.511769      296.54934    
    950000  -20.782064      79.930309      270.85821    
    960000  -23.348251      101.61353      344.3357     
    970000  -20.099841      83.80556       283.99019    
    980000  -23.53146       104.14334      352.90842    
    990000  -20.529497      84.85967       287.56223    
   1000000  -26.92947       89.739518      304.09847    
   1010000  -29.978035      100.95093      342.09037    
   1020000  -9.2744926      84.902914      287.70877    
   1030000  -30.576037      76.219698      258.28413    
   1040000  -26.897098      81.590154      276.48289    
   1050000  -48.11427       88.26444       299.09991    
   1060000  -37.014101      87.77958       297.45687    
   1070000  -20.43994       75.789596      256.82665    
   1080000  -17.464946      88.164858      298.76245    
   1090000  -36.574635      92.818872      314.53341    
   1100000  -27.565082      94.579247      320.49876    
   1110000  -6.631978       77.72453       263.38353    
   1120000  -18.929799      95.743114      324.44273    
   1130000  -7.5680434      70.898061      240.25081    
   1140000  -34.081526      80.389594      272.41457    
   1150000  -12.476052      90.804742      307.70817    
   1160000  -15.440023      92.250567      312.60761    
   1170000  -9.1132724      86.764333      294.01652    
   1180000  -32.229541      83.323816      282.35771    
   1190000  -44.010408      97.081968      328.97968    
   1200000  -22.162278      88.084744      298.49097    
   1210000  -11.026358      89.516318      303.34212    
   1220000  -24.355761      97.62425       330.8173     
   1230000  -31.978726      86.409163      292.81296    
   1240000  -5.5028394      84.098208      284.98188    
   1250000  -1.269446       85.128629      288.47364    
   1260000  -11.132012      91.44229       309.86862    
   1270000  -10.813509      104.98895      355.77392    
   1280000  -0.15130609     93.467945      316.73291    
   1290000  -17.53036       87.980473      298.13763    
   1300000  -23.608961      92.580981      313.72728    
   1310000  -24.41368       77.758466      263.49853    
   1320000  -38.014861      98.16665       332.65532    
   1330000  -24.643021      78.767739      266.91863    
   1340000  -31.198583      80.999977      274.48297    
   1350000  -30.239486      99.766182      338.07562    
   1360000  -26.707942      80.721077      273.53787    
   1370000  -24.16971       89.531257      303.39274    
   1380000  -23.915347      99.632083      337.6212     
   1390000  -18.815506      94.826632      321.33707    
   1400000  -23.935672      81.431091      275.94388    
   1410000  -28.639964      87.484336      296.45638    
   1420000  -35.612088      85.092002      288.34953    
   1430000  -31.30861       80.493867      272.76792    
   1440000  -38.857716      90.894386      308.01195    
   1450000  -27.091876      91.433021      309.83721    
   1460000  -19.260997      86.972335      294.72138    
   1470000  -25.878214      103.48196      350.66721    
   1480000  -23.070943      82.239592      278.68363    
   1490000  -33.32903       92.553656      313.63468    
   1500000  -25.098036      76.369387      258.79138    
   1510000  -33.416354      78.966365      267.59171    
   1520000  -26.418002      92.930194      314.91065    
   1530000  -23.105936      87.356283      296.02245    
   1540000  -39.913036      89.257428      302.46482    
   1550000  -41.718246      80.643149      273.27379    
   1560000  -37.245993      74.508647      252.48593    
   1570000  -27.559905      74.697162      253.12475    
   1580000  -40.656488      100.26502      339.76601    
   1590000  -24.265323      88.62349       300.31661    
   1600000  -33.608164      88.433785      299.67376    
   1610000  -50.384109      98.987863      335.43815    
   1620000  -42.648226      83.884888      284.25901    
   1630000  -55.627331      85.467833      289.6231     
   1640000  -55.660452      82.66495       280.12503    
   1650000  -43.038915      88.725835      300.66343    
   1660000  -39.964968      97.847924      331.57526    
   1670000  -14.730959      90.287553      305.95558    
   1680000  -0.41384401     91.095575      308.69371    
   1690000  -21.19565       88.357754      299.41611    
   1700000  -36.435592      82.679695      280.17499    
   1710000  -47.826417      83.675238      283.54857    
   1720000  -43.638681      73.445549      248.88343    
   1730000  -29.394754      75.424471      255.58936    
   1740000  -42.634571      75.801199      256.86597    
   1750000  -44.259464      82.72626       280.33279    
   1760000  -22.523423      81.787308      277.15098    
   1770000  -24.239957      75.476902      255.76703    
   1780000  -27.051584      87.241081      295.63207    
   1790000  -38.919268      89.68967       303.92955    
   1800000  -36.312147      94.508992      320.26069    
   1810000  -18.934639      83.64931       283.46071    
   1820000  -19.294059      83.244012      282.08728    
   1830000  -12.758772      86.737496      293.92558    
   1840000  -28.130729      96.147152      325.81189    
   1850000  -24.824593      90.036119      305.10356    
   1860000  -26.337189      78.052785      264.49588    
   1870000  -25.641129      84.968383      287.93062    
   1880000  -25.424034      92.508879      313.48295    
   1890000  -30.49203       85.436753      289.51778    
   1900000  -18.862879      93.610932      317.21745    
   1910000  -18.578229      89.387512      302.90563    
   1920000  -21.286126      85.262721      288.92804    
   1930000  -31.503205      97.1895        329.34407    
   1940000  -12.567772      84.596793      286.67142    
   1950000  -23.95321       90.454714      306.52204    
   1960000   0.42215401     100.04162      339.00899    
   1970000  -9.8907123      77.604888      262.9781     
   1980000  -4.1728913      87.766476      297.41247    
   1990000  -17.176379      92.007848      311.78512    
   2000000  -13.751554      86.386866      292.73741    
   2010000  -15.017594      104.61712      354.51389    
   2020000  -23.936411      96.928161      328.45848    
   2030000  -22.263381      87.19724       295.4835     
   2040000  -27.632499      95.031928      322.03275    
   2050000  -16.164389      81.301906      275.50611    
   2060000  -32.644449      98.697786      334.45517    
   2070000  -20.272645      92.132265      312.20672    
   2080000  -17.531774      83.76982       283.86908    
   2090000  -40.843403      92.166038      312.32117    
   2100000  -20.911593      97.007281      328.72659    
   2110000  -16.253625      87.181724      295.43093    
   2120000  -14.998371      105.0881       356.10991    
   2130000  -30.401816      103.6393       351.20039    
   2140000  -20.558135      84.678968      286.94989    
   2150000  -25.510876      84.673279      286.93061    
   2160000  -25.529983      75.665326      256.40554    
   2170000  -28.144559      86.319758      292.51       
   2180000  -12.554457      78.832658      267.13862    
   2190000  -4.4331244      87.466794      296.39694    
   2200000  -4.9262453      87.103421      295.16558    
   2210000  -7.2316624      87.650978      297.02108    
   2220000  -33.84907       87.03653       294.93891    
   2230000  -34.289215      88.606232      300.25813    
   2240000  -13.960734      88.327913      299.315      
   2250000  -10.048064      104.0696       352.65852    
   2260000   0.3680323      95.206625      322.62475    
   2270000  -23.312379      94.049524      318.7037     
   2280000  -16.619584      75.754204      256.70672    
   2290000  -12.61406       88.746277      300.7327     
   2300000  -20.744283      95.073484      322.17357    
   2310000  -24.104304      106.46236      360.76682    
   2320000  -29.215871      89.256474      302.46159    
   2330000  -46.886552      89.123732      302.01177    
   2340000  -36.026064      85.482823      289.6739     
   2350000  -43.888452      96.900314      328.36411    
   2360000  -39.558851      76.659392      259.77412    
   2370000  -41.940954      90.385358      306.28702    
   2380000  -32.580604      87.053298      294.99573    
   2390000  -45.101102      100.30822      339.91243    
   2400000  -35.586624      79.437145      269.18703    
   2410000  -29.193539      89.612763      303.66894    
   2420000  -17.145606      83.538708      283.08591    
   2430000  -8.0930724      82.877911      280.84668    
   2440000  -19.513205      95.531524      323.72572    
   2450000  -15.503285      99.529033      337.272      
   2460000  -12.12275       90.344498      306.14855    
   2470000  -20.560781      97.779393      331.34303    
   2480000  -18.517888      89.040902      301.73109    
   2490000  -5.7825607      97.255741      329.56854    
   2500000  -3.5796873      104.90691      355.49589    
   2510000   4.4722818      92.474949      313.36797    
   2520000  -12.024418      85.693262      290.387      
   2530000  -25.6177        83.638355      283.42358    
   2540000  -25.963825      84.82277       287.43719    
   2550000  -27.898223      83.973349      284.55877    
   2560000  -15.325027      87.654407      297.0327     
   2570000  -23.836269      94.629871      320.67031    
   2580000  -25.162793      79.607155      269.76314    
   2590000  -14.59417       83.482552      282.89562    
   2600000  -25.840597      91.703096      310.75241    
   2610000  -32.948433      84.87662       287.61967    
   2620000  -24.36603       69.571019      235.75389    
   2630000  -40.427539      79.59205       269.71195    
   2640000  -24.52283       82.877551      280.84546    
   2650000  -17.668573      85.531161      289.8377     
   2660000  -12.914395      109.19599      370.03022    
   2670000  -3.5951102      88.247395      299.04214    
   2680000  -12.887027      81.704375      276.86995    
   2690000  -24.58388       83.143269      281.7459     
   2700000  -30.8261        84.045949      284.80479    
   2710000  -26.501441      101.37166      343.51606    
   2720000  -29.246735      92.809049      314.50013    
   2730000  -33.113264      95.159003      322.46337    
   2740000  -42.88964       87.977465      298.12744    
   2750000  -26.48867       80.760124      273.67018    
   2760000  -16.275725      83.19718       281.92858    
   2770000  -28.79635       99.571157      337.41475    
   2780000  -33.725001      94.758209      321.10521    
   2790000  -43.157057      84.57947       286.61272    
   2800000  -29.400246      87.814025      297.57359    
   2810000  -31.056511      91.66474       310.62243    
   2820000  -27.587612      101.81231      345.00929    
   2830000  -6.6817317      96.93344       328.47637    
   2840000  -18.518589      87.365014      296.05204    
   2850000  -23.070706      84.40359       286.01672    
   2860000  -23.218554      88.307671      299.2464     
   2870000  -30.657663      80.802091      273.8124     
   2880000  -35.244763      76.343417      258.70338    
   2890000  -34.795856      84.485478      286.29421    
   2900000  -23.379466      96.980551      328.63601    
   2910000  -33.284736      90.262382      305.87029    
   2920000  -30.278531      88.968031      301.48415    
   2930000  -30.857605      93.070659      315.38664    
   2940000  -44.047408      77.500754      262.62522    
   2950000  -33.165267      76.73189       260.01979    
   2960000  -44.440899      106.01268      359.24302    
   2970000  -39.306208      104.99673      355.80029    
   2980000  -34.343159      86.2912        292.41322    
   2990000  -8.8558033      80.258883      271.97164    
   3000000  -20.116944      77.765939      263.52385    
   3010000  -17.268648      102.08126      345.92067    
   3020000  -17.012721      78.242061      265.13727    
   3030000  -23.734702      82.840452      280.71975    
   3040000  -31.716563      81.711025      276.89248    
   3050000  -31.448924      89.993389      304.95876    
   3060000  -26.360513      88.981264      301.52899    
   3070000  -30.937022      94.124435      318.95755    
   3080000  -35.183213      92.306324      312.79655    
   3090000  -31.741503      80.878713      274.07204    
   3100000  -25.504806      75.006601      254.17334    
   3110000  -22.690397      88.875342      301.17005    
   3120000  -33.447452      95.409863      323.31345    
   3130000  -29.023226      96.380488      326.60259    
   3140000  -32.397122      94.627384      320.66188    
   3150000  -29.561935      79.272267      268.62831    
   3160000  -16.511577      96.841653      328.16533    
   3170000  -23.326016      81.531039      276.28257    
   3180000  -15.346501      88.755165      300.76281    
   3190000  -21.006774      104.02214      352.49771    
   3200000  -20.096773      95.674872      324.21148    
   3210000  -20.623882      114.21548      387.03965    
   3220000  -25.814126      98.711427      334.5014     
   3230000  -7.4431861      91.658805      310.60232    
   3240000  -28.730025      93.202227      315.83248    
   3250000  -35.280728      95.784217      324.58202    
   3260000  -33.731432      78.523546      266.09114    
   3270000  -25.51445       90.314436      306.04668    
   3280000  -34.781109      89.419368      303.01358    
   3290000  -25.629021      91.795351      311.06503    
   3300000  -20.737479      78.854975      267.21424    
   3310000  -20.65158       104.17681      353.02182    
   3320000  -32.443468      82.246845      278.7082     
   3330000  -41.819002      83.558054      283.15147    
   3340000  -19.491111      90.429505      306.43661    
   3350000  -17.264189      86.272255      292.34903    
   3360000  -19.906958      84.983193      287.98081    
   3370000  -28.573858      83.819409      284.03712    
   3380000  -26.764936      89.118165      301.9929     
   3390000  -30.935772      97.333694      329.8327     
   3400000  -25.933234      91.833771      311.19522    
   3410000  -26.672875      86.718724      293.86197    
   3420000  -26.23908       79.76203       270.28796    
   3430000  -41.343282      84.493989      286.32306    
   3440000  -42.574544      91.892395      311.39388    
   3450000  -40.288061      90.204055      305.67264    
   3460000  -49.12358       93.022634      315.2239     
   3470000  -44.006129      89.13865       302.06232    
   3480000  -35.439976      90.671592      307.25697    
   3490000  -20.562979      94.297182      319.54293    
   3500000  -16.894716      91.868935      311.31438    
   3510000  -22.600425      90.553263      306.85599    
   3520000  -22.090238      86.541503      293.26142    
   3530000  -28.674752      87.624759      296.93223    
   3540000  -30.458919      84.620796      286.75276    
   3550000  -10.189811      78.346717      265.49192    
   3560000  -28.282623      89.59864       303.62108    
   3570000  -32.283751      102.46867      347.23348    
   3580000  -26.931239      99.695287      337.83538    
   3590000  -5.6344336      77.62571       263.04866    
   3600000  -15.003897      81.632638      276.62685    
   3610000  -20.191135      88.445727      299.71423    
   3620000  -28.130263      82.139802      278.34547    
   3630000  -16.982828      79.194951      268.36631    
   3640000  -8.1334126      91.715926      310.79588    
   3650000  -10.209488      83.103643      281.61162    
   3660000  -22.82894       78.22088       265.0655     
   3670000  -24.719602      87.465311      296.39191    
   3680000  -24.048782      92.561963      313.66283    
   3690000  -6.5382118      89.9099        304.67584    
   3700000  -12.920697      84.846718      287.51834    
   3710000  -24.674886      95.936016      325.09642    
   3720000  -18.775708      83.311022      282.31436    
   3730000  -11.37477       94.018231      318.59766    
   3740000  -18.467136      103.81401      351.79242    
   3750000  -28.389519      85.172407      288.62199    
   3760000  -31.34918       79.874071      270.66763    
   3770000  -40.946152      97.681244      331.01044    
   3780000  -15.214275      83.458701      282.8148     
   3790000  -27.141627      88.466939      299.78611    
   3800000  -11.021919      77.914504      264.02729    
   3810000  -27.118639      92.148481      312.26167    
   3820000  -22.607267      99.957285      338.72321    
   3830000  -36.200708      98.446064      333.60216    
   3840000  -18.5192        93.056975      315.34027    
   3850000  -17.732007      95.980706      325.24786    
   3860000  -16.255474      94.795687      321.23221    
   3870000  -38.167821      96.068911      325.54676    
   3880000  -29.618052      97.331586      329.82556    
   3890000  -27.919273      80.351511      272.28552    
   3900000  -24.671527      87.890688      297.83338    
   3910000  -28.229797      98.964622      335.35939    
   3920000  -34.410284      84.343349      285.81258    
   3930000  -10.667543      83.317201      282.3353     
   3940000  -25.788361      98.98216       335.41882    
   3950000  -16.466449      88.836268      301.03764    
   3960000  -25.976944      84.985413      287.98833    
   3970000  -28.171804      79.775414      270.33331    
   3980000  -49.24034       88.696174      300.56291    
   3990000  -40.932141      82.11128       278.24882    
   4000000  -36.790758      75.735195      256.64231    
Loop time of 348.152 on 1 procs for 4000000 steps with 100 atoms

Performance: 9926.686 ns/day, 0.002 hours/ns, 11489.220 timesteps/s, 1.149 Matom-step/s
99.5% CPU use with 1 MPI tasks x 1 OpenMP threads

MPI task timing breakdown:
Section |  min time  |  avg time  |  max time  |%varavg| %total
---------------------------------------------------------------
Pair    | 305.81     | 305.81     | 305.81     |   0.0 | 87.84
Bond    | 26.405     | 26.405     | 26.405     |   0.0 |  7.58
Neigh   | 1.8419     | 1.8419     | 1.8419     |   0.0 |  0.53
Comm    | 2.195      | 2.195      | 2.195      |   0.0 |  0.63
Output  | 0.62176    | 0.62176    | 0.62176    |   0.0 |  0.18
Modify  | 10.544     | 10.544     | 10.544     |   0.0 |  3.03
Other   |            | 0.7387     |            |       |  0.21

Nlocal:            100 ave         100 max         100 min
Histogram: 1 0 0 0 0 0 0 0 0 0
Nghost:              0 ave           0 max           0 min
Histogram: 1 0 0 0 0 0 0 0 0 0
Neighs:            974 ave         974 max         974 min
Histogram: 1 0 0 0 0 0 0 0 0 0

Total # of neighbors = 974
Ave neighs/atom = 9.74
Ave special neighs/atom = 5.88
Neighbor list builds = 8760
Dangerous builds = 0
Generated 0 of 6 mixed pair_coeff terms from geometric mixing rule
Setting up Verlet run ...
  Unit style    : real
  Current step  : 4000000
  Time step     : 10
Per MPI rank memory allocation (min/avg/max) = 9.632 | 9.632 | 9.632 Mbytes
   Step         PotEng         KinEng          Temp     
   4000000  -36.790758      75.735195      256.64231    
   4010000  -49.91404       68.56902       232.35844    
   4020000  -39.544425      85.248836      288.88099    
   4030000  -28.495866      84.542236      286.48655    
   4040000  -24.55272       85.493281      289.70934    
   4050000  -26.182703      91.543393      310.21123    
   4060000  -12.726249      82.87843       280.84844    
   4070000  -30.326853      97.587661      330.69331    
   4080000  -25.974494      92.828051      314.56452    
   4090000  -16.43727       93.294818      316.14624    
   4100000  -38.863226      107.98236      365.91763    
   4110000  -30.900482      94.667672      320.7984     
   4120000  -26.326346      101.77056      344.8678     
   4130000  -32.256893      89.246634      302.42825    
   4140000  -30.935766      85.616919      290.1283     
   4150000  -49.505767      88.762611      300.78805    
   4160000  -35.669488      93.802293      317.86591    
   4170000  -37.376415      95.133875      322.37822    
   4180000  -29.330642      88.759699      300.77818    
   4190000  -28.105435      84.408992      286.03503    
   4200000  -26.942831      84.363387      285.88049    
   4210000  -20.366719      103.14212      349.51558    
   4220000  -11.331154      95.250764      322.77432    
   4230000   1.8885925      101.59731      344.28073    
   4240000  -10.723966      87.042479      294.95907    
   4250000  -3.0260646      89.773437      304.21341    
   4260000   1.6124978      87.229843      295.59399    
   4270000   8.891806       94.615182      320.62053    
   4280000   1.2849789      106.46701      360.78259    
   4290000  -2.7060988      87.175064      295.40836    
   4300000  -2.4021037      84.605107      286.6996     
   4310000  -15.056706      97.378316      329.98391    
   4320000  -12.258475      90.966945      308.25783    
   4330000  -24.567477      109.73517      371.85731    
   4340000  -13.424576      109.23318      370.15624    
   4350000  -7.1804676      81.556647      276.36934    
   4360000  -18.663685      89.309898      302.64263    
   4370000  -17.408323      99.452251      337.01181    
   4380000  -27.666627      94.502854      320.23989    
   4390000  -2.148488       91.300869      309.38939    
   4400000  -14.938211      92.570136      313.69053    
   4410000  -8.0583341      94.657835      320.76507    
   4420000  -5.2814894      96.649509      327.51422    
   4430000   4.9257642      94.571055      320.471      
   4440000   6.0965125      77.192595      261.58097    
   4450000  -1.544131       87.032806      294.92629    
   4460000   7.9201558      100.65667      341.09321    
   4470000  -5.1462517      90.730354      307.4561     
   4480000  -3.6772653      92.796257      314.45678    
   4490000  -14.151457      94.501446      320.23512    
   4500000  -14.298513      89.862954      304.51675    
   4510000  -16.932806      76.834634      260.36795    
   4520000  -31.060038      94.813275      321.29181    
   4530000  -14.260112      92.463943      313.33067    
   4540000  -24.188292      85.572185      289.97672    
   4550000  -21.659148      84.258542      285.5252     
   4560000  -14.357671      101.50596      343.97118    
   4570000  -0.33997126     96.83438       328.14068    
   4580000  -17.438333      100.75487      341.42597    
   4590000  -2.536228       96.541212      327.14723    
   4600000   0.87662635     91.470622      309.96463    
   4610000   7.4694338      87.469621      296.40652    
   4620000   2.8146147      100.39165      340.19515    
   4630000   8.160294       103.66802      351.2977     
   4640000   31.821075      104.56116      354.32428    
   4650000   20.905101      95.058974      322.1244     
   4660000   20.111868      89.25052       302.44141    
   4670000   16.297675      89.923273      304.72116    
   4680000   23.251187      93.142979      315.63171    
   4690000   14.098443      96.699852      327.68481    
   4700000   11.460077      94.122421      318.95072    
   4710000   11.692011      95.528579      323.71574    
   4720000   19.028208      93.289365      316.12777    
   4730000   21.306238      83.786183      283.92453    
   4740000   11.784586      99.145115      335.97103    
   4750000   10.322952      85.426233      289.48213    
   4760000   10.740018      100.89678      341.90686    
   4770000   14.397666      103.5277       350.82221    
   4780000  -0.30344357     100.37537      340.13998    
   4790000   3.7840593      85.148635      288.54144    
   4800000   5.9329853      92.322135      312.85013    
   4810000  -1.2109642      89.54144       303.42725    
   4820000  -5.8944303      100.83431      341.69518    
   4830000   2.8092969      93.970986      318.43756    
   4840000   5.7413157      86.357019      292.63627    
   4850000   13.761645      91.589018      310.36583    
   4860000   19.424657      93.858227      318.05546    
   4870000   16.867108      91.19072       309.01613    
   4880000   11.221164      101.70858      344.6578     
   4890000   10.53722       111.28529      377.11017    
   4900000   27.834041      93.689807      317.48474    
   4910000   5.7363431      100.16025      339.41099    
   4920000   14.709484      101.70476      344.64485    
   4930000   39.117559      103.11204      349.41365    
   4940000   25.046786      111.56781      378.06757    
   4950000   28.7608        103.06443      349.25231    
   4960000   40.751035      96.981905      328.6406     
   4970000   33.987148      84.116731      285.04465    
   4980000   18.253039      93.806188      317.87911    
   4990000   22.382008      102.27977      346.59336    
   5000000   13.385267      100.0374       338.9947     
   5010000   30.816224      93.334474      316.28063    
   5020000   31.165268      104.33764      353.56681    
   5030000   39.605484      94.884259      321.53235    
   5040000   29.590868      105.42497      357.25143    
   5050000   37.128957      118.45287      401.39883    
   5060000   43.991698      99.624315      337.59488    
   5070000   32.552691      94.556858      320.42289    
   5080000   31.274368      101.02132      342.32889    
   5090000   36.660619      102.22165      346.39643    
   5100000   24.924417      94.904821      321.60203    
   5110000   33.005437      82.05067       278.04343    
   5120000   38.918096      88.041202      298.34342    
   5130000   39.399619      96.345357      326.48354    
   5140000   41.536687      101.73387      344.74347    
   5150000   49.346852      106.20656      359.90001    
   5160000   38.46999       93.240597      315.96251    
   5170000   48.566559      90.421281      306.40875    
   5180000   38.620465      106.00545      359.2185     
   5190000   47.883597      102.4274       347.09362    
   5200000   37.005629      113.21788      383.65911    
   5210000   38.712096      99.688583      337.81266    
   5220000   44.162616      96.089926      325.61797    
   5230000   48.240293      106.99339      362.56631    
   5240000   41.611274      90.693347      307.33069    
   5250000   31.595501      91.668185      310.6341     
   5260000   44.433037      98.524637      333.86843    
   5270000   33.633053      102.00094      345.64849    
   5280000   35.292529      90.032452      305.09113    
   5290000   52.428192      87.33735       295.95829    
   5300000   40.128974      98.131498      332.5362     
   5310000   37.54976       110.43803      374.2391     
   5320000   37.668622      109.19121      370.01403    
   5330000   41.673095      96.975984      328.62053    
   5340000   50.16221       101.24999      343.10376    
   5350000   59.648107      93.678106      317.44508    
   5360000   46.693973      99.974486      338.7815     
   5370000   67.773996      111.41343      377.54441    
   5380000   48.002558      106.72916      361.67091    
   5390000   41.297144      98.422028      333.52071    
   5400000   31.156684      93.283542      316.10803    
   5410000   40.955946      109.80213      372.08425    
   5420000   29.429742      108.97306      369.27477    
   5430000   50.90675       91.083663      308.65335    
   5440000   39.621239      101.95236      345.48388    
   5450000   34.589318      105.122        356.22478    
   5460000   41.481034      81.530869      276.28199    
   5470000   17.483769      107.96343      365.85346    
   5480000   12.291072      96.628442      327.44283    
   5490000   24.234353      90.525409      306.7616     
   5500000   27.070701      95.806335      324.65697    
   5510000   23.564248      98.145982      332.58528    
   5520000   32.211953      99.43291       336.94627    
   5530000   30.573038      112.94736      382.74242    
   5540000   35.287741      80.634392      273.24412    
   5550000   30.985293      85.449518      289.56103    
   5560000   10.144478      103.90924      352.11512    
   5570000   23.38432       102.03487      345.76346    
   5580000   48.097635      91.56587       310.28739    
   5590000   33.513747      90.432607      306.44713    
   5600000   35.909285      115.29936      390.71259    
   5610000   32.133336      94.471601      320.13398    
   5620000   23.62451       104.04524      352.57597    
   5630000   37.967074      107.79276      365.27512    
   5640000   45.469787      92.195122      312.41973    
   5650000   29.087253      94.078965      318.80347    
   5660000   26.565561      114.09283      386.62403    
   5670000   11.988005      91.675111      310.65757    
   5680000  -3.6418508      104.31289      353.48296    
   5690000   9.4035973      89.191647      302.24191    
   5700000   9.3131649      108.17555      366.57227    
   5710000   19.49193       101.02254      342.33301    
   5720000   14.477968      104.64863      354.62066    
   5730000   16.709014      93.870086      318.09564    
   5740000   28.120681      103.45502      350.5759     
   5750000   35.587586      96.856974      328.21725    
   5760000   43.71122       107.07387      362.83903    
   5770000   30.06578       103.28729      350.00753    
   5780000   34.475828      105.34093      356.96667    
   5790000   29.197523      101.83053      345.07104    
   5800000   46.559439      91.646215      310.55965    
   5810000   48.612021      105.97053      359.10016    
   5820000   30.976545      100.86744      341.80743    
   5830000   35.447609      93.58504       317.12971    
   5840000   25.604143      98.110831      332.46617    
   5850000   14.055885      100.69094      341.20935    
   5860000   7.1037653      102.31561      346.7148     
   5870000   28.769898      95.502825      323.62847    
   5880000   20.852648      101.7717       344.87168    
   5890000   23.882882      101.18672      342.88936    
   5900000   21.083971      99.717547      337.91081    
   5910000   31.804441      96.526118      327.09608    
   5920000   44.033683      109.93545      372.53601    
   5930000   44.998661      105.5106       357.54161    
   5940000   37.695782      112.74187      382.04606    
   5950000   25.432261      118.53109      401.66389    
   5960000   11.974259      103.41526      350.44118    
   5970000   11.24697       105.62776      357.93864    
   5980000   14.010818      100.82388      341.65981    
   5990000   14.544849      94.50954       320.26255    
   6000000   17.2983        92.848367      314.63336    
   6010000   25.244475      98.357092      333.30067    
   6020000   14.445033      106.37877      360.48357    
   6030000   16.54374       91.649108      310.56946    
   6040000   25.537595      114.03376      386.42388    
   6050000   15.281338      105.51931      357.57113    
   6060000   40.156643      100.07802      339.13235    
   6070000   32.778022      108.10818      366.34399    
   6080000   26.616829      118.79879      402.57103    
   6090000   39.340982      116.7638       395.67512    
   6100000   52.877873      95.887238      324.93112    
   6110000   35.808755      89.748612      304.12929    
   6120000   39.467879      103.57357      350.97763    
   6130000   52.287706      101.50832      343.97918    
   6140000   53.547903      109.43496      370.84001    
   6150000   48.948775      98.219323      332.83381    
   6160000   47.643387      121.35969      411.24911    
   6170000   63.376743      89.60134       303.63023    
   6180000   45.351483      103.07933      349.30281    
   6190000   52.314118      98.912559      335.18297    
   6200000   59.325363      107.05216      362.76547    
   6210000   52.619145      105.31548      356.88041    
   6220000   41.823758      105.63483      357.9626     
   6230000   47.043173      106.31662      360.27295    
   6240000   61.642624      108.73167      368.4568     
   6250000   45.956625      105.75734      358.37773    
   6260000   50.447224      99.181795      336.09532    
   6270000   53.82507       105.46439      357.38502    
   6280000   39.471746      102.66057      347.88379    
   6290000   46.025306      91.42359       309.80525    
   6300000   41.451837      101.90862      345.33567    
   6310000   46.282551      94.643079      320.71507    
   6320000   35.487271      105.57726      357.7675     
   6330000   60.408851      107.46721      364.17195    
   6340000   47.084875      106.71162      361.61147    
   6350000   49.154334      114.91215      389.40046    
   6360000   68.045752      110.5612       374.65647    
   6370000   70.195827      100.57943      340.83146    
   6380000   60.404904      112.52029      381.29521    
   6390000   66.579797      103.626        351.15532    
   6400000   72.689437      97.728947      331.17209    
   6410000   70.750537      98.74858       334.6273     
   6420000   66.326547      106.52729      360.98684    
   6430000   67.008919      123.6192       418.90586    
   6440000   53.477165      116.73928      395.59202    
   6450000   57.129796      107.47055      364.18326    
   6460000   41.823019      116.00838      393.11523    
   6470000   53.418836      103.89913      352.08087    
   6480000   49.79502       106.88295      362.19206    
   6490000   45.620243      120.34048      407.79533    
   6500000   59.433215      107.93261      365.74902    
   6510000   42.800119      118.3345       400.9977     
   6520000   62.273658      101.08242      342.53593    
   6530000   55.498651      109.20621      370.06487    
   6540000   42.882092      99.939013      338.66129    
   6550000   29.868033      105.70028      358.18438    
   6560000   22.771796      106.71808      361.63339    
   6570000   32.058606      104.16624      352.98601    
   6580000   37.921277      98.097324      332.4204     
   6590000   61.753558      91.854376      311.26505    
   6600000   73.966134      108.45461      367.51792    
   6610000   59.87321       94.004614      318.55151    
   6620000   63.852258      114.80073      389.02287    
   6630000   50.364773      107.41401      363.99167    
   6640000   52.915754      107.05657      362.78039    
   6650000   60.846995      103.59408      351.04714    
   6660000   64.956254      113.4077       384.30235    
   6670000   54.717565      125.69227      425.93082    
   6680000   51.642292      117.70065      398.8498     
   6690000   44.420564      115.73285      392.18153    
   6700000   58.723881      115.71615      392.12496    
   6710000   51.359914      97.426886      330.1485     
   6720000   49.514286      100.56084      340.76845    
   6730000   51.176181      110.15003      373.26314    
   6740000   48.193757      100.67708      341.16235    
   6750000   60.1648        106.60597      361.25347    
   6760000   40.615578      102.30611      346.68264    
   6770000   40.555405      115.15489      390.22303    
   6780000   52.652495      107.41601      363.99844    
   6790000   49.867853      115.0332       389.81064    
   6800000   43.775852      120.18036      407.25272    
   6810000   67.780435      102.26706      346.55031    
   6820000   36.71808       133.07613      450.95236    
   6830000   34.302083      120.19236      407.29338    
   6840000   24.419658      117.10042      396.81579    
   6850000   45.795656      101.17336      342.84411    
   6860000   54.608616      109.43587      370.84309    
   6870000   49.886704      97.944539      331.90266    
   6880000   40.323749      114.00995      386.34318    
   6890000   37.831181      115.53745      391.51938    
   6900000   54.042143      110.83993      375.60101    
   6910000   40.048777      115.3804       390.98722    
   6920000   34.241507      124.79696      422.89692    
   6930000   25.127925      117.73914      398.98021    
   6940000   53.91378       100.49247      340.53679    
   6950000   59.835264      108.71763      368.4092     
   6960000   52.834722      105.92131      358.93337    
   6970000   45.558225      103.815        351.79578    
   6980000   47.581953      93.071252      315.38865    
   6990000   60.306139      95.164545      322.48215    
   7000000   57.562454      113.79061      385.59991    
   7010000   40.468991      120.07175      406.88467    
   7020000   61.483885      100.69847      341.23483    
   7030000   58.500452      101.82678      345.05832    
   7040000   62.267656      119.20979      403.96378    
   7050000   64.437556      116.81089      395.83467    
   7060000   44.187397      109.42194      370.79591    
   7070000   40.64879       115.92202      392.82259    
   7080000   40.085484      104.82035      355.20259    
   7090000   50.231826      113.93729      386.09696    
   7100000   49.578747      114.22574      387.07444    
   7110000   65.467265      105.91945      358.92707    
   7120000   51.212036      115.93327      392.86069    
   7130000   49.454736      111.8706       379.09362    
   7140000   64.084128      107.32752      363.69857    
   7150000   66.16781       115.6218       391.80525    
   7160000   60.918901      101.18441      342.88153    
   7170000   59.007341      113.77654      385.55224    
   7180000   58.554075      106.03809      359.3291     
   7190000   54.489905      113.28525      383.8874     
   7200000   48.865688      107.10694      362.95111    
   7210000   65.814787      105.1372       356.27628    
   7220000   51.215237      104.21461      353.14992    
   7230000   56.086598      94.502888      320.24001    
   7240000   56.075288      128.43799      435.23519    
   7250000   73.415066      116.63263      395.23061    
   7260000   70.657561      126.15593      427.50203    
   7270000   66.913111      106.75489      361.75813    
   7280000   51.507479      106.35724      360.4106     
   7290000   70.135991      94.916634      321.64206    
   7300000   75.912368      112.04048      379.66928    
   7310000   77.326328      110.69894      375.12322    
   7320000   57.175046      136.18198      461.47711    
   7330000   71.337752      107.86578      365.52256    
   7340000   72.917324      115.75439      392.25452    
   7350000   57.258929      113.64475      385.10563    
   7360000   55.4939        126.48817      428.62789    
   7370000   67.696865      122.66532      415.67346    
   7380000   49.014701      102.33929      346.79505    
   7390000   68.768944      110.44246      374.25412    
   7400000   55.276536      118.2917       400.85267    
   7410000   54.549835      99.345327      336.64948    
   7420000   55.148625      122.79813      416.12352    
   7430000   54.889809      119.30463      404.28517    
   7440000   58.930826      106.20476      359.89389    
   7450000   52.416629      108.60869      368.04006    
   7460000   63.775561      119.82644      406.05339    
   7470000   64.61637       109.31899      370.44703    
   7480000   47.617883      127.17842      430.96692    
   7490000   45.339414      116.92316      396.21513    
   7500000   46.504179      106.73224      361.68135    
   7510000   59.820711      124.40077      421.55436    
   7520000   63.199774      103.42037      350.45848    
   7530000   60.42653       139.15599      471.55506    
   7540000   69.438432      121.77774      412.66573    
   7550000   61.986301      122.1264       413.84722    
   7560000   50.62468       95.56182       323.82839    
   7570000   55.661541      104.22756      353.19381    
   7580000   44.078935      112.51091      381.26343    
   7590000   59.856801      113.13553      383.38007    
   7600000   43.354563      110.9131       375.84895    
   7610000   52.893695      110.15211      373.27022    
   7620000   52.135663      113.84324      385.77825    
   7630000   54.824232      123.10195      417.15306    
   7640000   60.37037       121.9985       413.41383    
   7650000   69.220367      126.56559      428.89021    
   7660000   72.346653      122.5928       415.42772    
   7670000   66.11133       117.00476      396.49165    
   7680000   63.199776      116.03195      393.19511    
   7690000   79.774372      130.27335      441.45463    
   7700000   87.513615      107.01346      362.63433    
   7710000   65.256158      113.97034      386.20896    
   7720000   72.695704      97.675118      330.98967    
   7730000   67.489363      110.44484      374.26216    
   7740000   71.06767       124.50895      421.92095    
   7750000   82.668082      126.70963      429.37832    
   7760000   67.89491       116.91955      396.20288    
   7770000   61.114405      128.98424      437.08627    
   7780000   81.903083      129.69142      439.48265    
   7790000   90.850565      120.78067      409.28699    
   7800000   86.927884      108.78088      368.62355    
   7810000   74.284037      129.4585       438.69337    
   7820000   82.702357      108.18977      366.62045    
   7830000   75.638966      113.45067      384.44795    
   7840000   74.217182      114.59919      388.33993    
   7850000   60.455213      106.92825      362.34559    
   7860000   64.499992      93.912098      318.23801    
   7870000   62.738527      115.3886       391.01499    
   7880000   79.45141       100.71147      341.27889    
   7890000   62.150228      111.73868      378.64657    
   7900000   69.731236      109.15308      369.88479    
   7910000   59.837299      120.58398      408.62046    
   7920000   82.843353      128.2268       434.51952    
   7930000   78.865938      122.6741       415.70322    
   7940000   77.69853       96.025535      325.39977    
   7950000   80.881094      107.20245      363.27476    
   7960000   70.099787      125.6186       425.68118    
   7970000   85.876492      122.60034      415.45327    
   7980000   80.513405      135.39284      458.80294    
   7990000   82.084514      126.63404      429.12218    
   8000000   73.682845      117.05534      396.66303    
   8010000   73.257169      106.34914      360.38317    
   8020000   77.210725      108.53333      367.78466    
   8030000   77.466071      113.9217       386.04414    
   8040000   62.368503      121.06686      410.2568     
   8050000   60.967819      111.41524      377.55054    
   8060000   69.349493      108.6024       368.01872    
   8070000   81.205633      124.64581      422.38472    
   8080000   70.26067       114.45295      387.84437    
   8090000   72.839297      121.28682      411.00217    
   8100000   74.925939      138.57371      469.58189    
   8110000   78.671078      120.88143      409.62845    
   8120000   64.921022      128.14019      434.22605    
   8130000   73.500152      122.04586      413.57432    
   8140000   85.123504      117.79394      399.16592    
   8150000   83.730318      129.01717      437.19783    
   8160000   79.932049      114.74197      388.82377    
   8170000   74.725152      116.10101      393.42911    
   8180000   76.545175      121.55616      411.91488    
   8190000   73.654733      121.76664      412.62813    
   8200000   95.011854      102.22371      346.4034     
   8210000   84.757593      116.13255      393.53601    
   8220000   86.113506      107.77776      365.22429    
   8230000   74.442499      117.98932      399.82801    
   8240000   82.084995      101.36624      343.4977     
   8250000   78.682248      117.64989      398.67777    
   8260000   83.469376      110.54764      374.61054    
   8270000   87.14721       137.09476      464.5702     
   8280000   82.278891      122.73922      415.92389    
   8290000   71.309612      134.18485      454.70944    
   8300000   100.2781       136.90331      463.92146    
   8310000   89.557694      127.61639      432.45106    
   8320000   68.485836      122.39788      414.76718    
   8330000   81.894899      109.21762      370.10353    
   8340000   67.56423       137.47848      465.87051    
   8350000   79.940541      135.75886      460.04326    
   8360000   73.323953      126.19995      427.65119    
   8370000   80.324476      126.40568      428.34835    
   8380000   71.968237      126.56155      428.87654    
   8390000   72.17581       123.11823      417.20822    
   8400000   68.681094      117.19791      397.14615    
   8410000   77.46496       118.88344      402.85787    
   8420000   81.593357      122.9919       416.78013    
   8430000   87.467766      123.89315      419.83419    
   8440000   78.890904      128.44617      435.26292    
   8450000   76.025965      120.40743      408.02221    
   8460000   87.959234      106.20864      359.90706    
   8470000   84.20415       122.89305      416.44515    
   8480000   79.550745      120.97635      409.95008    
   8490000   76.550684      137.74654      466.77889    
   8500000   86.312774      121.81548      412.79362    
   8510000   72.999992      129.76         439.71504    
   8520000   77.257936      122.69491      415.77373    
   8530000   84.37107       121.85496      412.9274     
   8540000   80.543285      128.37162      435.01029    
   8550000   67.893792      139.88637      474.03008    
   8560000   64.998728      119.36765      404.49871    
   8570000   76.164208      127.20797      431.06705    
   8580000   83.468013      129.91989      440.25687    
   8590000   86.588579      126.00569      426.9929     
   8600000   69.038613      118.73759      402.36363    
   8610000   65.05811       101.55207      344.12741    
   8620000   80.242945      107.51157      364.32227    
   8630000   73.907545      114.11339      386.69371    
   8640000   79.152974      115.58474      391.67966    
   8650000   76.625478      127.5533       432.23726    
   8660000   82.107316      138.42895      469.09136    
   8670000   79.451931      124.48348      421.83463    
   8680000   93.496384      127.74374      432.88259    
   8690000   73.0046        113.9185       386.03331    
   8700000   64.227423      126.8671       429.91196    
   8710000   68.783733      114.44084      387.80334    
   8720000   71.622102      112.59966      381.56417    
   8730000   71.843399      122.59021      415.41895    
   8740000   63.081072      120.21453      407.36852    
   8750000   77.781135      114.81109      389.05799    
   8760000   90.17495       125.7192       426.02209    
   8770000   70.314701      140.11277      474.79726    
   8780000   71.652038      107.97528      365.89363    
   8790000   79.138539      105.98126      359.13653    
   8800000   58.01251       130.26231      441.41722    
   8810000   55.689934      116.74296      395.60448    
   8820000   60.981201      116.60158      395.12537    
   8830000   68.25972       118.93377      403.02843    
   8840000   59.226803      125.23407      424.37814    
   8850000   66.73979       116.63639      395.24336    
   8860000   76.786877      112.22753      380.30312    
   8870000   61.520151      139.57477      472.97416    
   8880000   80.086208      124.69122      422.53858    
   8890000   76.077386      131.05951      444.11868    
   8900000   81.230385      122.92637      416.55807    
   8910000   100.49979      120.26377      407.53537    
   8920000   77.577489      132.77917      449.94607    
   8930000   75.435628      119.14089      403.73029    
   8940000   74.035557      116.19774      393.75691    
   8950000   68.34753       122.39706      414.76442    
   8960000   70.545306      131.70966      446.32182    
   8970000   68.514803      115.3233       390.7937     
   8980000   71.382978      109.72838      371.83433    
   8990000   79.628988      119.03984      403.38786    
   9000000   79.999686      115.19752      390.36747    
   9010000   79.665829      117.47048      398.06983    
   9020000   74.654391      123.15377      417.32865    
   9030000   71.290168      126.34626      428.14699    
   9040000   74.322465      126.1119       427.35281    
   9050000   96.123624      132.47754      448.92393    
   9060000   81.498866      134.76532      456.6765     
   9070000   80.638739      114.7627       388.89403    
   9080000   84.088927      116.78967      395.76276    
   9090000   81.737634      112.93022      382.68433    
   9100000   78.059575      117.08788      396.77331    
   9110000   70.188945      122.52984      415.21436    
   9120000   101.58798      136.18542      461.48874    
   9130000   100.87321      134.12579      454.50933    
   9140000   87.309545      132.85961      450.21864    
   9150000   69.430598      121.68576      412.35404    
   9160000   68.945449      130.55631      442.41351    
   9170000   76.135952      133.49449      452.37004    
   9180000   63.291627      122.22953      414.19673    
   9190000   83.152911      111.13453      376.5993     
   9200000   72.167805      121.38044      411.31942    
   9210000   83.991418      142.79769      483.89561    
   9220000   73.555691      127.90829      433.44021    
   9230000   70.08656       133.33711      451.83674    
   9240000   74.902651      120.36484      407.87787    
   9250000   74.573854      123.35015      417.99415    
   9260000   67.869256      134.45966      455.6407     
   9270000   81.231358      128.9404       436.93771    
   9280000   85.832145      133.93081      453.84859    
   9290000   89.659218      110.39496      374.09314    
   9300000   83.255365      110.53909      374.58155    
   9310000   88.904759      128.57365      435.69491    
   9320000   92.19865       132.67351      449.58802    
   9330000   82.937563      135.25603      458.33935    
   9340000   74.004076      123.5676       418.73101    
   9350000   75.052802      138.69236      469.98397    
   9360000   70.430191      144.01201      488.01054    
   9370000   67.748739      132.03576      447.4269     
   9380000   70.267708      116.97911      396.40471    
   9390000   83.286218      134.91769      457.19282    
   9400000   85.691178      130.40896      441.91418    
   9410000   79.271248      135.04268      457.61637    
   9420000   82.728905      139.89845      474.07101    
   9430000   79.504686      124.54641      422.04787    
   9440000   78.439796      131.26554      444.81684    
   9450000   79.06662       147.15018      498.64481    
   9460000   71.135452      134.1563       454.6127     
   9470000   78.516104      147.33453      499.26951    
   9480000   71.722383      141.86639      480.73974    
   9490000   79.172934      127.00277      430.37168    
   9500000   69.144273      126.87792      429.9486     
   9510000   67.607619      117.56277      398.38255    
   9520000   78.492108      130.74473      443.05198    
   9530000   80.151464      140.98162      477.74155    
   9540000   82.678468      128.2417       434.57004    
   9550000   75.108446      130.79593      443.2255     
   9560000   80.793137      125.12092      423.99469    
   9570000   81.076617      138.05908      467.838      
   9580000   77.338673      128.97592      437.05805    
   9590000   78.661897      116.02106      393.15819    
   9600000   77.334306      114.91907      389.42389    
   9610000   74.584016      123.06769      417.03697    
   9620000   85.534265      119.6135       405.33182    
   9630000   83.029336      132.66511      449.55954    
   9640000   80.131123      125.14123      424.06354    
   9650000   102.6711       127.51485      432.10696    
   9660000   75.596989      124.20065      420.87619    
   9670000   68.977446      118.61191      401.93777    
   9680000   75.488262      111.67817      378.44152    
   9690000   86.128329      111.54723      377.99783    
   9700000   73.418715      116.79106      395.76748    
   9710000   93.108886      134.57563      456.03369    
   9720000   67.767422      134.87164      457.03675    
   9730000   78.967949      130.70057      442.90235    
   9740000   93.395318      122.16311      413.97163    
   9750000   96.167833      130.1999       441.20575    
   9760000   101.12947      134.19316      454.73761    
   9770000   80.155681      123.94467      420.00877    
   9780000   70.228997      126.68944      429.30992    
   9790000   90.204586      139.07837      471.29204    
   9800000   92.967829      148.29318      502.51807    
   9810000   73.318639      141.82359      480.59469    
   9820000   69.67317       125.32077      424.67192    
   9830000   100.16601      103.02205      349.10872    
   9840000   68.294769      141.29457      478.80202    
   9850000   75.774048      128.7005       436.12475    
   9860000   87.79399       113.52871      384.71244    
   9870000   76.725037      129.12552      437.565      
   9880000   87.511692      119.80191      405.97029    
   9890000   87.680173      143.29841      485.5924     
   9900000   89.879313      155.21005      525.95712    
   9910000   107.98715      158.0591       535.61164    
   9920000   87.259064      132.25991      448.18646    
   9930000   92.841418      135.05547      457.65973    
   9940000   87.762929      125.85281      426.47486    
   9950000   70.859737      127.11857      430.76411    
   9960000   74.178382      129.95084      440.36174    
   9970000   88.992317      146.57401      496.69234    
   9980000   104.17787      154.37877      523.14018    
   9990000   90.237952      142.73613      483.68699    
  10000000   88.534055      126.608        429.03393    
  10010000   77.516089      150.86466      511.23199    
  10020000   87.434037      132.82251      450.09293    
  10030000   70.701295      131.76898      446.52283    
  10040000   74.955613      130.43217      441.99283    
  10050000   92.098899      136.61371      462.9401     
  10060000   81.428043      140.71112      476.82488    
  10070000   73.978995      134.5538       455.9597     
  10080000   77.045765      141.16432      478.36065    
  10090000   79.622682      135.8588       460.38194    
  10100000   79.724395      131.74154      446.42987    
  10110000   103.17482      136.03722      460.98653    
  10120000   78.612407      160.44405      543.69346    
  10130000   92.921795      154.51157      523.59019    
  10140000   80.527829      137.71351      466.66695    
  10150000   78.504856      134.17091      454.66223    
  10160000   72.016042      135.49375      459.14492    
  10170000   74.519275      144.54445      489.81482    
  10180000   77.917727      125.24921      424.42945    
  10190000   75.445969      141.66658      480.06266    
  10200000   75.85618       157.69774      534.3871     
  10210000   94.317983      137.18221      464.86655    
  10220000   95.828565      133.71867      453.12973    
  10230000   95.511108      147.46962      499.72729    
  10240000   94.845287      129.33869      438.28738    
  10250000   83.01069       153.21903      519.21019    
  10260000   89.003023      134.24917      454.92742    
  10270000   90.706664      121.36973      411.28312    
  10280000   90.291887      128.23384      434.5434     
  10290000   80.72229       140.00954      474.44747    
  10300000   69.331765      128.22488      434.51302    
  10310000   101.91484      132.31337      448.3676     
  10320000   74.323289      140.37721      475.69339    
  10330000   102.83294      137.35739      465.46017    
  10340000   108.0334       147.67147      500.41129    
  10350000   96.512069      149.70773      507.31152    
  10360000   81.547405      138.57843      469.59791    
  10370000   88.611637      149.99231      508.27587    
  10380000   73.04558       142.19178      481.84237    
  10390000   81.377755      121.52565      411.8115     
  10400000   77.195424      134.95555      457.32112    
  10410000   64.551076      132.10264      447.65351    
  10420000   69.174934      150.66483      510.55483    
  10430000   78.086754      143.42411      486.01834    
  10440000   81.88826       145.05595      491.54815    
  10450000   75.744654      128.94973      436.96933    
  10460000   82.046936      136.96815      464.14116    
  10470000   70.031337      114.59509      388.32603    
  10480000   65.087244      132.93316      450.46788    
  10490000   78.665441      141.04579      477.959      
  10500000   72.730195      161.57861      547.53812    
  10510000   83.770205      146.09616      495.07308    
  10520000   73.584785      131.58369      445.89495    
  10530000   60.767347      151.26829      512.59975    
  10540000   80.935509      136.76203      463.44268    
  10550000   83.631474      165.16733      559.69917    
  10560000   93.42496       151.24492      512.52058    
  10570000   89.886863      179.60066      608.60908    
  10580000   94.946006      150.66858      510.56755    
  10590000   96.818453      153.18148      519.08295    
  10600000   83.637577      124.49412      421.87068    
  10610000   68.901845      131.26022      444.79881    
  10620000   81.034803      118.32406      400.96232    
  10630000   77.216586      135.33456      458.60545    
  10640000   85.607384      141.50583      479.51792    
  10650000   91.13883       144.26706      488.87483    
  10660000   93.186977      127.14612      430.85746    
  10670000   85.535673      126.00689      426.99699    
  10680000   78.846373      135.50913      459.19701    
  10690000   77.737877      129.59781      439.16546    
  10700000   88.082031      144.64444      490.15367    
  10710000   87.683967      123.47972      418.43322    
  10720000   96.752771      136.64128      463.03353    
  10730000   89.867005      135.97954      460.7911     
  10740000   90.760337      143.37816      485.86264    
  10750000   77.571943      133.37415      451.96226    
  10760000   75.805687      145.90594      494.42848    
  10770000   95.249875      138.02825      467.73351    
  10780000   78.673969      147.47938      499.76036    
  10790000   90.283717      141.70679      480.1989     
  10800000   80.710581      151.02299      511.76853    
  10810000   71.235152      130.52635      442.31197    
  10820000   83.406721      143.84205      487.43462    
  10830000   89.375786      124.02052      420.26581    
  10840000   99.508047      139.85597      473.92705    
  10850000   98.189523      138.79566      470.33402    
  10860000   88.426041      155.68273      527.55889    
  10870000   93.215196      165.07285      559.379      
  10880000   88.333         134.36086      455.30589    
  10890000   83.598044      143.4053       485.9546     
  10900000   81.197497      140.6155       476.50086    
  10910000   82.507132      136.33676      462.00159    
  10920000   88.82388       132.7677       449.9072     
  10930000   79.943671      144.97412      491.27082    
  10940000   95.77015       123.73491      419.29795    
  10950000   84.524083      141.36686      479.047      
  10960000   87.009189      149.86702      507.85132    
  10970000   110.60196      144.92099      491.09081    
  10980000   101.77124      157.29707      533.02937    
  10990000   109.36531      152.02975      515.1801     
  11000000   119.20502      140.86228      477.33712    
  11010000   79.01804       153.03796      518.59662    
  11020000   76.624922      148.0331       501.63674    
  11030000   92.627673      141.73189      480.28397    
  11040000   89.729305      122.94413      416.61828    
  11050000   82.186714      129.83358      439.96439    
  11060000   101.92741      134.4281       455.53377    
  11070000   87.024826      169.62852      574.81671    
  11080000   89.741073      162.50813      550.68799    
  11090000   104.42879      135.98491      460.80928    
  11100000   85.111308      148.07833      501.79002    
  11110000   94.46639       117.82556      399.27306    
  11120000   86.590094      131.62188      446.02439    
  11130000   93.331311      151.07706      511.95174    
  11140000   99.823966      133.48781      452.34742    
  11150000   87.090209      134.41337      455.48383    
  11160000   85.081771      116.74094      395.59762    
  11170000   94.642189      132.15742      447.83913    
  11180000   77.727041      144.86853      490.91302    
  11190000   71.156223      140.02042      474.48432    
  11200000   94.418859      144.71585      490.39564    
  11210000   78.470737      147.73296      500.61966    
  11220000   81.857342      126.29376      427.96907    
  11230000   100.55922      139.60782      473.08616    
  11240000   81.724455      129.2759       438.07461    
  11250000   88.41006       151.86764      514.63076    
  11260000   98.696324      134.61852      456.17904    
  11270000   89.028905      145.43266      492.82468    
  11280000   93.124286      144.27914      488.91577    
  11290000   108.02203      144.90749      491.04505    
  11300000   78.941576      165.13882      559.60255    
  11310000   91.544462      148.25707      502.39569    
  11320000   89.667088      137.80867      466.98942    
  11330000   91.657125      136.85602      463.76119    
  11340000   76.281007      153.70326      520.8511     
  11350000   99.750382      121.47226      411.63056    
  11360000   92.664071      133.55952      452.59042    
  11370000   106.01939      130.14005      441.00294    
  11380000   104.74671      138.04619      467.7943     
  11390000   87.998194      142.17878      481.79832    
  11400000   77.882573      134.71787      456.51568    
  11410000   93.898815      128.344        434.91669    
  11420000   93.02582       133.7739       453.31688    
  11430000   85.908679      139.77814      473.66334    
  11440000   91.95268       135.02862      457.56873    
  11450000   90.601901      148.40456      502.8955     
  11460000   95.022073      140.11546      474.8064     
  11470000   87.263281      154.09132      522.16611    
  11480000   93.886908      146.68017      497.05209    
  11490000   83.730904      157.65943      534.2573     
  11500000   90.06838       139.8259       473.82518    
  11510000   90.018777      150.69811      510.66761    
  11520000   102.46307      158.06827      535.64271    
  11530000   98.11079       159.94456      542.00087    
  11540000   105.87299      155.11006      525.61828    
  11550000   89.241875      159.83379      541.62549    
  11560000   98.510202      156.11617      529.02767    
  11570000   82.027937      139.90151      474.08137    
  11580000   91.723385      171.93507      582.63285    
  11590000   105.06406      128.07608      434.0088     
  11600000   90.143709      136.00128      460.86474    
  11610000   92.444074      146.20007      495.42519    
  11620000   87.230177      134.84699      456.95323    
  11630000   90.30842       165.34748      560.30963    
  11640000   89.339155      161.60501      547.62761    
  11650000   80.718078      163.21455      553.08179    
  11660000   80.813719      172.9228       585.97995    
  11670000   95.861975      146.75785      497.31534    
  11680000   92.270948      125.81574      426.34923    
  11690000   92.38617       138.53741      469.45889    
  11700000   105.65262      131.18249      444.53542    
  11710000   77.985925      140.99265      477.77891    
  11720000   111.77659      139.06592      471.24983    
  11730000   94.156505      139.99482      474.39758    
  11740000   84.644134      152.31638      516.15142    
  11750000   84.319372      141.52099      479.56929    
  11760000   92.913675      132.60036      449.34012    
  11770000   106.42195      132.53463      449.11739    
  11780000   93.418329      137.12942      464.68766    
  11790000   104.83314      144.85572      490.86963    
  11800000   100.74281      160.35895      543.40508    
  11810000   113.44831      164.30757      556.7857     
  11820000   109.43435      150.04038      508.43876    
  11830000   95.872414      142.35958      482.411      
  11840000   93.365206      139.75868      473.59738    
  11850000   96.840052      133.19813      451.36578    
  11860000   83.928979      149.50252      506.61613    
  11870000   92.813866      160.14224      542.67073    
  11880000   85.032174      150.81447      511.0619     
  11890000   92.331316      136.91497      463.96095    
  11900000   104.09886      151.65534      513.91134    
  11910000   84.845381      137.75934      466.82226    
  11920000   77.526576      134.90473      457.1489     
  11930000   85.27223       150.0798       508.57234    
  11940000   87.899032      149.93369      508.07724    
  11950000   79.254766      146.52387      496.52244    
  11960000   90.85626       152.00599      515.09961    
  11970000   101.30842      141.508        479.52527    
  11980000   99.828283      149.41691      506.32604    
  11990000   86.637577      152.43485      516.55287    
  12000000   95.571906      181.03494      613.46941    
Loop time of 387.198 on 1 procs for 8000000 steps with 100 atoms

Performance: 17851.342 ns/day, 0.001 hours/ns, 20661.275 timesteps/s, 2.066 Matom-step/s
99.2% CPU use with 1 MPI tasks x 1 OpenMP threads

MPI task timing breakdown:
Section |  min time  |  avg time  |  max time  |%varavg| %total
---------------------------------------------------------------
Pair    | 299.33     | 299.33     | 299.33     |   0.0 | 77.31
Bond    | 53.606     | 53.606     | 53.606     |   0.0 | 13.84
Neigh   | 4.507      | 4.507      | 4.507      |   0.0 |  1.16
Comm    | 5.0398     | 5.0398     | 5.0398     |   0.0 |  1.30
Output  | 1.4636     | 1.4636     | 1.4636     |   0.0 |  0.38
Modify  | 21.691     | 21.691     | 21.691     |   0.0 |  5.60
Other   |            | 1.556      |            |       |  0.40

Nlocal:            100 ave         100 max         100 min
Histogram: 1 0 0 0 0 0 0 0 0 0
Nghost:             18 ave          18 max          18 min
Histogram: 1 0 0 0 0 0 0 0 0 0
Neighs:            287 ave         287 max         287 min
Histogram: 1 0 0 0 0 0 0 0 0 0

Total # of neighbors = 287
Ave neighs/atom = 2.87
Ave special neighs/atom = 5.88
Neighbor list builds = 23544
Dangerous builds = 0
Generated 0 of 6 mixed pair_coeff terms from geometric mixing rule
Setting up Verlet run ...
  Unit style    : real
  Current step  : 12000000
  Time step     : 10
Per MPI rank memory allocation (min/avg/max) = 9.633 | 9.633 | 9.633 Mbytes
   Step         PotEng         KinEng          Temp     
  12000000   95.571906      181.03494      613.46941    
  12010000   89.876462      155.83713      528.08211    
  12020000   94.918456      156.40648      530.01146    
  12030000   102.89191      155.23037      526.02597    
  12040000   113.81388      160.17824      542.79272    
  12050000   111.60349      145.09753      491.68903    
  12060000   120.57139      159.36111      540.02375    
  12070000   78.994229      154.12832      522.29149    
  12080000   78.416702      158.31152      536.467      
  12090000   92.62319       138.86584      470.57182    
  12100000   95.710053      129.35907      438.35644    
  12110000   87.197537      143.54095      486.41429    
  12120000   92.16942       145.54631      493.2098     
  12130000   82.485312      140.23673      475.21734    
  12140000   83.608552      153.42796      519.9182     
  12150000   86.510717      126.92805      430.11849    
  12160000   87.720285      135.96365      460.73724    
  12170000   85.581343      158.46687      536.99343    
  12180000   81.780602      150.11965      508.7074     
  12190000   67.205754      153.59064      520.46946    
  12200000   105.5797       149.42854      506.36544    
  12210000   103.05854      137.06837      464.48078    
  12220000   95.195908      155.64916      527.44511    
  12230000   108.45768      141.44681      479.31791    
  12240000   114.08094      136.9578       464.10608    
  12250000   96.422469      129.06956      437.37539    
  12260000   95.80534       134.69013      456.4217     
  12270000   89.806098      140.89956      477.46346    
  12280000   103.14584      132.61969      449.40563    
  12290000   70.184904      157.19306      532.67692    
  12300000   85.555252      123.84023      419.65485    
  12310000   85.196653      144.35952      489.18815    
  12320000   108.05362      130.25313      441.38611    
  12330000   80.39405       163.71682      554.78385    
  12340000   94.523008      157.21027      532.73523    
  12350000   104.81422      142.74104      483.70363    
  12360000   97.641259      142.28903      482.17192    
  12370000   95.813225      162.08903      549.26777    
  12380000   96.286411      146.62903      496.87879    
  12390000   102.17725      134.41878      455.50217    
  12400000   101.22372      135.52317      459.24458    
  12410000   91.060847      164.73526      558.235      
  12420000   103.89984      146.63602      496.90248    
  12430000   101.08952      134.18891      454.72322    
  12440000   102.12422      152.4476       516.59608    
  12450000   112.75934      163.01307      552.39907    
  12460000   111.9425       141.98017      481.12531    
  12470000   99.203945      145.99772      494.73948    
  12480000   80.832632      145.14121      491.83705    
  12490000   96.719093      140.3349       475.55001    
  12500000   101.01024      150.98341      511.6344     
  12510000   107.07636      151.8814       514.67739    
  12520000   80.083386      160.74413      544.71036    
  12530000   100.59869      147.44444      499.64196    
  12540000   88.91435       150.47545      509.91308    
  12550000   116.94913      169.72834      575.15496    
  12560000   93.594858      164.46571      557.32158    
  12570000   91.314237      138.44574      469.14826    
  12580000   86.289961      138.94037      470.82439    
  12590000   98.468266      154.81203      524.60836    
  12600000   84.85832       155.06861      525.47783    
  12610000   81.809986      148.25245      502.38004    
  12620000   88.478887      135.13492      457.92894    
  12630000   89.204137      142.1393       481.66453    
  12640000   90.105369      148.10003      501.86355    
  12650000   94.322577      162.08029      549.23818    
  12660000   108.09553      163.23786      553.16079    
  12670000   89.607428      169.34234      573.84691    
  12680000   99.915327      162.29944      549.9808     
  12690000   83.756829      133.34792      451.87338    
  12700000   90.272746      158.8355       538.24261    
  12710000   98.683534      154.90445      524.92155    
  12720000   105.0576       168.74786      571.83242    
  12730000   99.085893      146.39207      496.0758     
  12740000   93.35288       163.45073      553.88216    
  12750000   71.356908      154.54876      523.71622    
  12760000   86.200407      157.53972      533.85163    
  12770000   100.10393      144.70709      490.36595    
  12780000   90.928231      139.96821      474.3074     
  12790000   97.840607      146.05077      494.91926    
  12800000   88.554774      155.69587      527.60341    
  12810000   95.136664      150.14075      508.77891    
  12820000   108.04742      144.29651      488.97463    
  12830000   91.518536      148.36246      502.75284    
  12840000   95.941889      144.60774      490.02929    
  12850000   81.533655      139.47969      472.65198    
  12860000   91.737835      142.46402      482.76492    
  12870000   87.063663      166.38365      563.82089    
  12880000   92.560439      144.69868      490.33747    
  12890000   85.508963      158.13827      535.87993    
  12900000   94.819868      159.00286      538.80973    
  12910000   95.376106      145.46348      492.92911    
  12920000   99.835615      136.12369      461.27957    
  12930000   114.4263       142.0338       481.30703    
  12940000   96.182148      165.44627      560.6444     
  12950000   85.02857       136.59184      462.86599    
  12960000   99.583272      146.8663       497.68282    
  12970000   103.20835      136.57993      462.82563    
  12980000   84.406471      140.31086      475.46853    
  12990000   75.834825      155.76527      527.83859    
  13000000   92.112356      156.68405      530.95203    
  13010000   107.10054      141.67506      480.09138    
  13020000   81.558025      162.98063      552.28914    
  13030000   92.050592      129.78451      439.79811    
  13040000   88.019396      110.90853      375.83346    
  13050000   87.714547      139.3894       472.34602    
  13060000   92.623111      151.94153      514.88117    
[...]
 181360000   85.731785      145.10168      491.7031     
 181370000   92.6059        133.18684      451.32752    
 181380000   89.273872      129.43096      438.60005    
 181390000   80.856894      130.07228      440.77327    
 181400000   91.654502      122.26533      414.31802    
 181410000   88.492732      132.97425      450.60712    
 181420000   82.241187      162.59912      550.99632    
 181430000   78.950795      139.0036       471.03866    
 181440000   94.848593      130.77226      443.14529    
 181450000   96.193386      131.15128      444.42965    
 181460000   96.235498      151.47337      513.2947     
 181470000   111.09955      142.51725      482.9453     
 181480000   97.778374      153.2664       519.37071    
 181490000   102.72242      153.95431      521.70184    
 181500000   88.982299      159.88873      541.81168    
 181510000   88.474814      155.79131      527.92683    
 181520000   94.835816      140.78232      477.06618    
 181530000   88.698264      113.45776      384.47199    
 181540000   81.414478      135.24313      458.29562    
 181550000   84.251039      150.77111      510.91498    
 181560000   77.08522       134.90671      457.1556     
 181570000   90.50046       139.32481      472.12715    
 181580000   92.213033      147.30546      499.17099    
 181590000   82.071875      144.2017       488.65336    
 181600000   88.661661      116.19278      393.7401     
 181610000   88.011219      127.57493      432.31055    
 181620000   101.44103      133.43207      452.15851    
 181630000   85.448606      132.94572      450.51043    
 181640000   106.01249      111.79723      378.84499    
 181650000   74.749298      147.61125      500.20723    
 181660000   79.150329      142.35798      482.40557    
 181670000   81.924575      139.12345      471.4448     
 181680000   86.423202      134.67236      456.36146    
 181690000   89.515214      132.76613      449.90189    
 181700000   99.195208      141.32122      478.89232    
 181710000   90.406873      145.94389      494.55709    
 181720000   106.39773      150.07201      508.54594    
 181730000   91.479378      151.63622      513.84655    
 181740000   84.157352      152.92323      518.20784    
 181750000   85.160592      140.91166      477.50446    
 181760000   101.77781      149.89752      507.95466    
 181770000   86.716135      127.48263      431.99778    
 181780000   102.9985       145.33279      492.48625    
 181790000   103.44831      154.92339      524.98574    
 181800000   94.762756      150.7931       510.98949    
 181810000   84.75845       145.65123      493.56533    
 181820000   89.368926      139.53194      472.82905    
 181830000   90.421048      140.58263      476.38949    
 181840000   83.711943      152.39047      516.40246    
 181850000   79.219923      147.61937      500.23473    
 181860000   88.939942      145.83628      494.19242    
 181870000   91.504255      156.63329      530.78002    
 181880000   107.19792      147.45763      499.68665    
 181890000   91.733481      123.34388      417.9729     
 181900000   87.338958      114.71632      388.73686    
 181910000   99.410995      119.48526      404.89726    
 181920000   102.39373      130.31956      441.61124    
 181930000   88.213901      120.20308      407.32972    
 181940000   94.503084      135.15298      457.99014    
 181950000   101.90126      116.30927      394.13483    
 181960000   76.838921      143.13471      485.03767    
 181970000   96.191897      140.06171      474.62425    
 181980000   82.615189      128.15283      434.26887    
 181990000   77.696649      143.73883      487.08484    
 182000000   103.63631      126.16021      427.51653    
 182010000   93.154305      132.29202      448.29526    
 182020000   75.939975      158.86214      538.33289    
 182030000   86.357357      142.99415      484.56135    
 182040000   86.708716      140.7901       477.09253    
 182050000   98.973782      132.46118      448.86849    
 182060000   67.837691      141.38817      479.11919    
 182070000   75.609392      150.50714      510.02047    
 182080000   80.673863      156.18049      529.24564    
 182090000   86.684877      156.22165      529.38513    
 182100000   91.226548      135.44875      458.99241    
 182110000   75.58921       135.23597      458.27135    
 182120000   77.133381      151.32739      512.80002    
 182130000   103.97176      125.0211       423.65645    
 182140000   88.346474      117.06933      396.71045    
 182150000   78.030724      140.50793      476.13634    
 182160000   99.143346      154.75856      524.42716    
 182170000   86.64087       160.10345      542.53928    
 182180000   87.41741       148.19881      502.19827    
 182190000   101.58762      143.62016      486.68269    
 182200000   87.118046      141.16374      478.35868    
 182210000   81.347999      144.63135      490.10929    
 182220000   97.161267      141.99132      481.1631     
 182230000   89.483814      147.07793      498.39998    
 182240000   83.724087      148.45244      503.05776    
 182250000   92.769875      148.79176      504.20761    
 182260000   88.949698      132.66612      449.56297    
 182270000   81.099449      136.72196      463.30692    
 182280000   93.684172      139.7315       473.50529    
 182290000   92.08132       136.33886      462.00873    
 182300000   97.253122      138.11712      468.03468    
 182310000   82.293861      131.976        447.22438    
 182320000   88.361988      138.72895      470.10795    
 182330000   79.69856       151.25344      512.54943    
 182340000   88.268598      146.92233      497.8727     
 182350000   99.388043      144.68371      490.28673    
 182360000   89.763132      160.12857      542.62442    
 182370000   94.247408      149.21202      505.63173    
 182380000   86.341758      136.02578      460.94779    
 182390000   90.785354      141.86719      480.74246    
 182400000   87.836669      130.60072      442.564      
 182410000   96.298924      139.62507      473.14464    
 182420000   85.537501      138.05803      467.83443    
 182430000   85.560424      133.30066      451.71322    
 182440000   109.64231      128.15486      434.27574    
 182450000   92.654962      147.34308      499.29848    
 182460000   95.714568      140.24766      475.25438    
 182470000   78.539183      145.31065      492.41123    
 182480000   99.437863      148.39854      502.8751     
 182490000   87.868175      134.69777      456.44757    
 182500000   100.51853      127.53959      432.19081    
 182510000   88.94396       134.82964      456.89445    
 182520000   93.957311      142.51718      482.94505    
 182530000   97.217419      142.40103      482.55146    
 182540000   92.051565      140.59747      476.43976    
 182550000   87.600526      138.80236      470.35673    
 182560000   81.744276      135.14577      457.96572    
 182570000   76.365713      143.58056      486.54849    
 182580000   79.557341      125.73914      426.08964    
 182590000   97.849341      125.87674      426.55593    
 182600000   85.518805      122.77167      416.03386    
 182610000   96.119983      127.49664      432.04527    
 182620000   91.542701      136.82888      463.66924    
 182630000   74.337763      121.74006      412.53804    
 182640000   90.622674      134.94916      457.29946    
 182650000   87.128829      132.96659      450.58118    
 182660000   88.726056      137.52004      466.01135    
 182670000   94.472148      135.90073      460.52403    
 182680000   85.887984      138.09475      467.95886    
 182690000   88.719526      137.76077      466.82709    
 182700000   82.64121       170.5748       578.02333    
 182710000   93.53915       123.34393      417.97306    
 182720000   76.434069      154.19785      522.5271     
 182730000   106.66611      138.88793      470.64669    
 182740000   78.598951      127.5817       432.3335     
 182750000   79.196135      138.72601      470.098      
 182760000   82.97318       137.33886      465.3974     
 182770000   88.793377      121.95488      413.266      
 182780000   87.551373      135.96946      460.75692    
 182790000   83.874857      138.27251      468.56124    
 182800000   92.938149      129.04481      437.29152    
 182810000   85.133007      151.9521       514.91698    
 182820000   95.752926      126.62881      429.10447    
 182830000   84.332608      140.81037      477.16124    
 182840000   72.564276      138.84573      470.50369    
 182850000   90.889494      112.75162      382.07911    
 182860000   89.941942      129.93229      440.29889    
 182870000   109.85918      133.96017      453.94809    
 182880000   80.624565      143.40243      485.9449     
 182890000   83.542535      119.48054      404.88128    
 182900000   94.113803      112.73554      382.02463    
 182910000   80.512297      131.36916      445.16798    
 182920000   85.162756      140.45734      475.96491    
 182930000   95.716506      146.2946       495.74551    
 182940000   75.296706      155.24263      526.06751    
 182950000   84.171932      151.93611      514.8628     
 182960000   73.270189      142.68989      483.53032    
 182970000   85.022747      108.29349      366.97193    
 182980000   88.269011      121.87855      413.00734    
 182990000   90.691029      140.07047      474.65393    
 183000000   66.919071      146.60108      496.78408    
 183010000   86.819857      128.04929      433.918      
 183020000   97.774674      144.80954      490.71312    
 183030000   100.87359      140.14096      474.8928     
 183040000   92.714262      151.76837      514.29436    
 183050000   86.954156      133.59144      452.69858    
 183060000   86.312752      140.88978      477.43031    
 183070000   88.405615      151.22441      512.45108    
 183080000   88.876913      129.45625      438.68573    
 183090000   88.398918      132.87747      450.27916    
 183100000   83.643397      125.2853       424.55175    
 183110000   90.208546      133.46681      452.27626    
 183120000   85.690564      125.93919      426.76756    
 183130000   85.99911       134.18381      454.70594    
 183140000   71.705499      133.11219      451.07456    
 183150000   90.897803      138.16106      468.18355    
 183160000   104.45984      144.57305      489.91174    
 183170000   98.79138       149.90684      507.98624    
 183180000   97.307772      141.72765      480.2696     
 183190000   74.206144      138.58619      469.62419    
 183200000   72.115978      136.48802      462.51417    
 183210000   95.384537      140.67369      476.69807    
 183220000   84.390061      146.67052      497.01938    
 183230000   80.847647      126.38927      428.29274    
 183240000   82.026264      132.59517      449.32253    
 183250000   107.39276      145.53681      493.1776     
 183260000   86.947805      155.31203      526.30272    
 183270000   76.817682      139.64649      473.21721    
 183280000   89.554745      124.2187       420.93739    
 183290000   90.936165      134.24563      454.91543    
 183300000   82.309555      131.12385      444.3367     
 183310000   77.850531      131.26798      444.82512    
 183320000   82.942969      145.57504      493.30716    
 183330000   84.037202      157.7384       534.5249     
 183340000   111.62613      134.9318       457.24063    
 183350000   85.38509       140.12194      474.82835    
 183360000   87.526565      156.21484      529.36204    
 183370000   73.486168      146.53469      496.55912    
 183380000   82.366678      132.71402      449.72528    
 183390000   86.795477      148.05056      501.6959     
 183400000   93.828143      144.11298      488.35271    
 183410000   82.87962       148.99229      504.88712    
 183420000   98.960496      133.82269      453.48222    
 183430000   68.45653       171.27909      580.40997    
 183440000   90.587164      147.98517      501.47431    
 183450000   100.23595      142.74101      483.70354    
 183460000   80.67008       126.93179      430.13115    
 183470000   91.922348      119.0832       403.53482    
 183480000   81.530468      129.69479      439.49409    
 183490000   91.745539      133.75651      453.25797    
 183500000   80.116801      152.32428      516.17817    
 183510000   91.229759      144.93574      491.14078    
 183520000   69.351806      140.02287      474.49263    
 183530000   77.24539       138.49798      469.32528    
 183540000   78.09608       120.72367      409.09384    
 183550000   77.79791       134.89893      457.12926    
 183560000   73.723207      139.03995      471.16183    
 183570000   87.624459      125.05046      423.75594    
 183580000   72.185264      127.58923      432.35902    
 183590000   76.732094      135.48094      459.10151    
 183600000   82.848138      129.6355       439.29315    
 183610000   79.456063      148.04396      501.67356    
 183620000   92.766761      131.10037      444.25714    
 183630000   65.397294      112.5937       381.54399    
 183640000   74.732077      139.99428      474.39575    
 183650000   93.798137      130.4366       442.00784    
 183660000   87.014495      120.82557      409.43914    
 183670000   105.9735       148.30164      502.54674    
 183680000   79.933373      147.76855      500.74026    
 183690000   98.589117      132.19232      447.95741    
 183700000   90.948113      149.04248      505.05722    
 183710000   100.28621      156.0352       528.75329    
 183720000   88.226224      140.0615       474.62355    
 183730000   90.580331      144.14345      488.45596    
 183740000   86.525045      128.51428      435.4937     
 183750000   104.83968      130.15318      441.04741    
 183760000   83.791479      134.00639      454.10472    
 183770000   87.697069      130.02896      440.62648    
 183780000   82.262937      128.45244      435.28416    
 183790000   71.965034      112.52388      381.30737    
 183800000   76.450674      137.02403      464.33053    
 183810000   90.923563      121.21209      410.74892    
 183820000   93.547213      140.17246      474.99955    
 183830000   85.386009      132.40909      448.69199    
 183840000   85.086344      155.31016      526.29637    
 183850000   88.731459      151.44182      513.18779    
 183860000   97.945346      139.72024      473.46711    
 183870000   76.899538      124.16766      420.76441    
 183880000   76.330619      141.71516      480.22725    
 183890000   102.52261      111.60654      378.19879    
 183900000   92.29819       120.13385      407.09512    
 183910000   74.208558      126.46674      428.55526    
 183920000   77.190761      137.23401      465.04207    
 183930000   94.272011      149.59133      506.91708    
 183940000   71.658668      149.42217      506.34384    
 183950000   64.331265      126.03579      427.09491    
 183960000   76.925524      147.66594      500.39255    
 183970000   75.064956      126.24366      427.79931    
 183980000   88.423035      153.47262      520.06955    
 183990000   87.300462      136.03474      460.97813    
 184000000   79.201835      130.88565      443.52954    
 184010000   92.489771      142.1101       481.5656     
 184020000   94.275025      126.28773      427.94866    
 184030000   85.105241      129.83848      439.981      
 184040000   69.738192      142.64664      483.38376    
 184050000   72.173716      137.62837      466.37845    
 184060000   89.184103      133.6988       453.06238    
 184070000   97.593924      131.77867      446.55569    
 184080000   82.296601      122.6733       415.70051    
 184090000   86.878246      119.05548      403.44087    
 184100000   83.189787      149.55558      506.79593    
 184110000   90.734097      145.42344      492.79345    
 184120000   87.357458      133.95284      453.92324    
 184130000   94.412893      130.08794      440.82633    
 184140000   71.821482      131.88755      446.92465    
 184150000   96.164007      112.91663      382.63828    
 184160000   108.99238      128.66422      436.00183    
 184170000   98.375416      131.98586      447.25777    
 184180000   75.598482      135.88955      460.48614    
 184190000   96.890632      138.08965      467.94157    
 184200000   75.199051      151.16779      512.2592     
 184210000   79.514507      121.69361      412.38063    
 184220000   72.654731      126.20942      427.6833     
 184230000   70.127586      150.40111      509.66118    
 184240000   95.278248      122.84753      416.29092    
 184250000   89.367834      133.63982      452.86251    
 184260000   85.057218      130.93299      443.68994    
 184270000   79.031425      137.10593      464.60806    
 184280000   83.92241       118.23683      400.66673    
 184290000   84.521318      126.59746      428.99822    
 184300000   93.870818      139.2415       471.84481    
 184310000   83.864351      140.71385      476.83414    
 184320000   79.854115      137.01919      464.31412    
 184330000   82.210422      122.97839      416.73437    
 184340000   75.846689      120.54858      408.5005     
 184350000   79.348063      134.55892      455.97707    
 184360000   82.193402      138.3648       468.87397    
 184370000   70.537712      137.68315      466.56407    
 184380000   83.824441      148.2123       502.24398    
 184390000   80.568566      137.88782      467.25763    
 184400000   79.226477      141.54691      479.65713    
 184410000   75.347952      120.32345      407.7376     
 184420000   81.744677      108.90431      369.04182    
 184430000   80.365789      127.71661      432.79067    
 184440000   88.645482      119.49166      404.91894    
 184450000   75.926648      135.47444      459.07948    
 184460000   81.965177      135.56566      459.38858    
 184470000   87.07574       133.82294      453.48307    
 184480000   93.897136      110.61507      374.83901    
 184490000   89.216697      130.07407      440.77936    
 184500000   90.922816      132.45803      448.85781    
 184510000   86.779683      128.24524      434.58202    
 184520000   80.331791      120.34423      407.80805    
 184530000   74.569472      145.81576      494.12288    
 184540000   86.328943      136.05731      461.05461    
 184550000   79.234766      128.10355      434.10188    
 184560000   95.940287      128.98542      437.09024    
 184570000   85.578446      127.37727      431.64074    
 184580000   88.100439      136.51286      462.59835    
 184590000   68.266964      126.74071      429.48364    
 184600000   76.730189      126.93618      430.14605    
 184610000   93.477621      136.37272      462.12345    
 184620000   64.499204      127.35026      431.54922    
 184630000   90.756146      115.0468       389.85672    
 184640000   78.614221      137.61636      466.33775    
 184650000   82.533725      129.78697      439.80646    
 184660000   81.94382       147.93732      501.31217    
 184670000   73.725982      124.16712      420.76259    
 184680000   97.946195      127.66262      432.6077     
 184690000   83.216987      136.96312      464.12414    
 184700000   78.777522      126.36581      428.21325    
 184710000   85.938946      123.24         417.62086    
 184720000   81.826668      123.95602      420.04723    
 184730000   91.976151      125.51226      425.32081    
 184740000   73.488726      140.27298      475.34019    
 184750000   69.624239      132.73348      449.79122    
 184760000   64.878924      135.24887      458.31509    
 184770000   91.98345       119.96984      406.53936    
 184780000   66.992424      142.16257      481.74338    
 184790000   74.596586      139.91777      474.1365     
 184800000   70.106756      124.66276      422.44214    
 184810000   74.927446      129.67994      439.44378    
 184820000   80.048218      139.14551      471.51954    
srun: Job step aborted: Waiting up to 47 seconds for job step to finish.
[2025-11-21T03:05:23.602] error: *** JOB 2468941 ON della-r3c4n10 CANCELLED AT 2025-11-21T03:05:23 DUE to SIGNAL Terminated ***
