LAMMPS (29 Aug 2024)
  using 1 OpenMP thread(s) per MPI task
  using 1 OpenMP thread(s) per MPI task
Reading data file ...
  orthogonal box = (-1000.6 -1000.6 -1800.6) to (1000.6 1000.6 1000.6)
  1 by 1 by 1 MPI processor grid
  reading atoms ...
  200 atoms
  scanning bonds ...
  1 = max bonds/atom
  scanning angles ...
  1 = max angles/atom
  orthogonal box = (-1000.6 -1000.6 -1800.6) to (1000.6 1000.6 1000.6)
  1 by 1 by 1 MPI processor grid
  reading bonds ...
  199 bonds
  reading angles ...
  198 angles
Finding 1-2 1-3 1-4 neighbors ...
  special bond factors lj:    0        0        0       
  special bond factors coul:  0        0        0       
     2 = max # of 1-2 neighbors
     2 = max # of 1-3 neighbors
     4 = max # of 1-4 neighbors
     6 = max # of special neighbors
  special bonds CPU = 0.000 seconds
  read_data CPU = 0.023 seconds
Finding 1-2 1-3 1-4 neighbors ...
  special bond factors lj:    0        0        1       
  special bond factors coul:  0        0        0       
     2 = max # of 1-2 neighbors
     2 = max # of 1-3 neighbors
     4 = max # of 1-4 neighbors
     6 = max # of special neighbors
  special bonds CPU = 0.000 seconds

CITE-CITE-CITE-CITE-CITE-CITE-CITE-CITE-CITE-CITE-CITE-CITE-CITE

Your simulation uses code contributions which should be cited:
- Type Label Framework: https://doi.org/10.1021/acs.jpcb.3c08419
The log file lists these citations in BibTeX format.

CITE-CITE-CITE-CITE-CITE-CITE-CITE-CITE-CITE-CITE-CITE-CITE-CITE

Generated 0 of 6 mixed pair_coeff terms from geometric mixing rule
Neighbor list info ...
  update: every = 10 steps, delay = 0 steps, check = yes
  max neighbors/atom: 2000, page size: 100000
  master list distance cutoff = 33
  ghost atom cutoff = 33
  binsize = 16.5, bins = 122 122 170
  2 neighbor lists, perpetual/occasional/extra = 2 0 0
  (1) pair lj/cut, perpetual, trim from (2)
      attributes: half, newton on, cut 25
      pair build: trim
      stencil: none
      bin: none
  (2) pair base/rna, perpetual
      attributes: half, newton on
      pair build: half/bin/newton
      stencil: half/bin/3d
      bin: standard
Setting up Verlet run ...
  Unit style    : real
  Current step  : 0
  Time step     : 10
Per MPI rank memory allocation (min/avg/max) = 18.05 | 18.05 | 18.05 Mbytes
   Step         PotEng         KinEng          Temp     
         0   271.41412      0              0            
     10000   94.141328      179.32017      302.30251    
     20000   113.29746      179.83752      303.17468    
     30000   121.29304      183.5857       309.49346    
     40000   118.41096      197.57723      333.08073    
     50000   117.66867      194.10913      327.23412    
     60000   104.52391      174.64825      294.42648    
     70000   102.83566      192.75939      324.9587     
     80000   110.08883      181.85642      306.5782     
     90000   113.50518      171.97587      289.92132    
    100000   110.75758      161.85632      272.86152    
    110000   104.26533      175.01961      295.05253    
    120000   107.06874      177.42481      299.10728    
    130000   114.71275      184.42706      310.91185    
    140000   105.89906      185.72621      313.10198    
    150000   100.84353      175.31187      295.54522    
    160000   82.269886      179.54668      302.68437    
    170000   78.289468      181.87758      306.61387    
    180000   56.077736      201.46837      339.64051    
    190000   37.819382      164.91664      278.02068    
    200000   44.081728      153.88651      259.4258     
    210000   59.706845      173.17909      291.94972    
    220000   37.095539      188.84744      318.36384    
    230000   42.78976       192.94234      325.26712    
    240000   50.908574      186.58894      314.5564     
    250000   42.8556        180.67756      304.59085    
    260000   58.228476      190.41907      321.01332    
    270000   42.27797       198.75468      335.06571    
    280000   25.158394      198.27455      334.2563     
    290000   36.2758        169.01137      284.92369    
    300000   44.494893      170.63253      287.65667    
    310000   36.027645      185.89976      313.39457    
    320000   34.607024      188.75435      318.20689    
    330000   23.207117      180.21783      303.81582    
    340000   3.1979031      177.47246      299.1876     
    350000   3.3137342      185.19774      312.21107    
    360000   4.1001633      168.38132      283.86152    
    370000  -4.2429473      173.28507      292.12839    
    380000   4.3831311      176.6236       297.75658    
    390000  -7.1068382      173.91189      293.1851     
    400000  -4.2525433      173.86936      293.1134     
    410000  -11.16463       182.03428      306.87803    
    420000   1.4359693      164.43851      277.21463    
    430000  -5.8668181      173.1631       291.92277    
    440000  -9.3789177      194.47748      327.8551     
    450000  -25.186254      194.5739       328.01765    
    460000  -33.754548      170.80806      287.95259    
    470000  -10.710901      171.52708      289.16473    
    480000  -1.1332584      177.40568      299.07501    
    490000  -4.488283       172.18721      290.2776     
    500000  -13.887723      162.53072      273.99844    
    510000  -15.430819      181.1753       305.42993    
    520000  -18.408417      192.83135      325.08001    
    530000  -26.250847      184.45788      310.96379    
    540000  -25.296053      182.01592      306.84708    
    550000  -29.667233      181.2425       305.54323    
    560000  -31.122002      181.42935      305.85823    
    570000  -30.10948       180.56317      304.39799    
    580000  -44.404462      189.80027      319.97014    
    590000  -37.514612      172.32182      290.50452    
    600000  -47.740584      167.15641      281.79654    
    610000  -64.644573      175.65101      296.11696    
    620000  -66.144381      177.10676      298.57109    
    630000  -65.203404      178.93769      301.65773    
    640000  -40.082103      157.70508      265.86325    
    650000  -41.970649      173.97265      293.28754    
    660000  -56.628242      180.56647      304.40357    
    670000  -57.826407      189.35567      319.22062    
    680000  -70.56542       179.19552      302.09237    
    690000  -48.313396      170.4944       287.4238     
    700000  -36.937002      173.73771      292.89147    
    710000  -47.805617      185.54907      312.80335    
    720000  -58.89534       165.12869      278.37816    
    730000  -76.225872      180.16029      303.71881    
    740000  -78.865255      177.25511      298.82119    
    750000  -67.740035      175.21914      295.3889     
    760000  -58.479638      182.2968       307.3206     
    770000  -62.706681      181.37105      305.75995    
    780000  -80.364161      187.92339      316.80604    
    790000  -49.001146      178.20607      300.42434    
    800000  -45.794096      159.44474      268.79601    
    810000  -56.741985      174.01038      293.35114    
    820000  -49.81085       199.40082      336.15499    
    830000  -48.826471      177.41052      299.08318    
    840000  -35.737958      165.28298      278.63827    
    850000  -47.342824      175.96075      296.63913    
    860000  -50.882097      181.90671      306.66298    
    870000  -44.853723      186.97521      315.20758    
    880000  -29.010687      178.67255      301.21074    
    890000  -41.513377      171.2306       288.66492    
    900000  -39.011801      188.46309      317.71588    
    910000  -62.26693       195.51896      329.61085    
    920000  -56.907857      180.27511      303.91238    
    930000  -31.143977      184.25879      310.62817    
    940000  -56.628936      208.43698      351.38839    
    950000  -73.955284      177.42628      299.10976    
    960000  -51.060682      164.67151      277.60742    
    970000  -74.392322      188.71133      318.13438    
    980000  -71.43043       178.90812      301.60787    
    990000  -67.185875      179.92066      303.31483    
   1000000  -57.235889      184.00121      310.19394    
   1010000  -63.783389      161.98664      273.0812     
   1020000  -63.044261      191.38462      322.64107    
   1030000  -61.414966      180.40779      304.13605    
   1040000  -60.563614      185.06881      311.99371    
   1050000  -63.189599      181.13276      305.35823    
   1060000  -55.223463      168.42853      283.94112    
   1070000  -69.168173      194.74263      328.3021     
   1080000  -82.682905      176.05739      296.80203    
   1090000  -63.340786      177.49886      299.23211    
   1100000  -64.59791       190.76758      321.60085    
   1110000  -90.285328      193.77333      326.66802    
   1120000  -90.231972      179.26766      302.21399    
   1130000  -84.643197      181.00996      305.15121    
   1140000  -78.144877      169.33085      285.46226    
   1150000  -91.634388      195.06445      328.84463    
   1160000  -77.601372      194.76905      328.34664    
   1170000  -83.30056       178.34097      300.65176    
   1180000  -61.148937      177.49744      299.22972    
   1190000  -71.404464      177.89043      299.89222    
   1200000  -82.813438      172.00532      289.97095    
   1210000  -92.602895      176.24855      297.1243     
   1220000  -53.000146      158.54037      267.2714     
   1230000  -96.893133      185.97778      313.52608    
   1240000  -82.477995      173.3346       292.21188    
   1250000  -98.767701      171.10838      288.45887    
   1260000  -114.54869      188.66845      318.06208    
   1270000  -110.80418      180.21075      303.80388    
   1280000  -106.65556      175.49308      295.85071    
   1290000  -50.523844      161.19089      271.73972    
   1300000  -71.981176      180.85624      304.89206    
   1310000  -77.607982      162.63298      274.17082    
   1320000  -98.976783      196.2096       330.77516    
   1330000  -73.269305      167.50681      282.38725    
   1340000  -93.268391      175.56632      295.97418    
   1350000  -94.615288      198.28521      334.27426    
   1360000  -82.4693        178.58782      301.06791    
   1370000  -109.76522      187.88857      316.74735    
   1380000  -97.645478      166.52837      280.73777    
   1390000  -80.393511      153.38935      258.58768    
   1400000  -100.84103      163.63011      275.85181    
   1410000  -90.341036      184.08025      310.32719    
   1420000  -68.830157      185.6151       312.91467    
   1430000  -60.348492      177.91097      299.92685    
   1440000  -75.805808      188.81533      318.30969    
   1450000  -79.869509      182.05614      306.91489    
   1460000  -85.033408      156.32164      263.531      
   1470000  -77.905213      162.77433      274.40911    
   1480000  -105.91143      180.80212      304.80082    
   1490000  -86.534401      175.31793      295.55543    
   1500000  -70.818823      169.33295      285.4658     
   1510000  -65.943781      170.1494       286.8422     
   1520000  -53.946395      166.39487      280.51272    
   1530000  -80.186281      181.36984      305.75791    
   1540000  -84.835713      184.27132      310.64929    
   1550000  -81.775532      186.75888      314.84288    
   1560000  -94.879034      178.24945      300.49748    
   1570000  -74.992852      189.75348      319.89126    
   1580000  -89.389788      194.27444      327.51281    
   1590000  -68.043815      153.63257      258.99771    
   1600000  -117.51336      177.67989      299.53729    
   1610000  -87.145311      175.10735      295.20044    
   1620000  -91.998586      176.02817      296.75278    
   1630000  -99.288194      173.1935       291.97401    
   1640000  -94.905985      169.60527      285.92489    
   1650000  -99.588644      167.56026      282.47735    
   1660000  -102.69681      177.95486      300.00084    
   1670000  -122.78129      181.78429      306.4566     
   1680000  -125.18175      205.74304      346.84687    
   1690000  -100.82064      175.2997       295.52471    
   1700000  -112.13561      186.0718       313.68459    
   1710000  -90.478647      192.80487      325.03536    
   1720000  -76.936943      187.71063      316.44737    
   1730000  -82.302797      189.99925      320.30558    
   1740000  -80.657366      171.37953      288.91599    
   1750000  -84.357917      170.06882      286.70636    
   1760000  -98.193884      184.42784      310.91317    
   1770000  -101.92388      189.68779      319.78052    
   1780000  -100.8955       165.61482      279.1977     
   1790000  -103.53229      192.78889      325.00843    
   1800000  -89.359431      165.42602      278.8794     
   1810000  -119.84454      188.54211      317.8491     
   1820000  -84.13988       159.5617       268.99318    
   1830000  -102.20289      178.54603      300.99745    
   1840000  -96.555055      183.27921      308.97677    
   1850000  -107.67039      159.79912      269.39343    
   1860000  -91.805974      156.69864      264.16657    
   1870000  -91.075439      190.24485      320.71962    
   1880000  -63.967754      173.42951      292.3719     
   1890000  -83.456572      191.63952      323.07079    
   1900000  -85.561099      181.51644      306.00505    
   1910000  -71.740981      176.18656      297.01979    
   1920000  -94.328706      179.03762      301.82619    
   1930000  -79.726184      187.74235      316.50084    
   1940000  -94.293239      186.3676       314.18325    
   1950000  -100.2996       191.50051      322.83644    
   1960000  -61.462177      180.0503       303.53338    
   1970000  -66.667854      204.1644       344.18555    
   1980000  -85.41914       193.32878      325.91859    
   1990000  -107.93122      179.20527      302.10881    
   2000000  -104.09048      176.24918      297.12537    
   2010000  -94.502724      169.85204      286.3409     
   2020000  -60.8744        173.99325      293.32225    
   2030000  -61.474255      187.66883      316.3769     
   2040000  -88.106186      183.07563      308.63356    
   2050000  -102.60643      171.83109      289.67724    
   2060000  -100.19711      170.93859      288.17263    
   2070000  -91.382502      170.79518      287.93088    
   2080000  -100.08437      188.19633      317.26617    
   2090000  -75.605245      174.58079      294.31276    
   2100000  -84.643553      172.40666      290.64755    
   2110000  -110.58828      169.58589      285.89222    
   2120000  -109.08486      184.38883      310.84739    
   2130000  -115.91854      186.6082       314.58886    
   2140000  -101.46598      173.26917      292.10158    
   2150000  -119.70426      167.70598      282.72302    
   2160000  -107.25408      173.15355      291.90667    
   2170000  -114.91025      185.00836      311.89181    
   2180000  -93.670167      193.20231      325.70539    
   2190000  -117.04794      167.12172      281.73806    
   2200000  -118.27568      172.42589      290.67997    
   2210000  -91.052978      156.25814      263.42396    
   2220000  -108.85656      173.21432      292.00912    
   2230000  -117.5434       184.69629      311.36572    
   2240000  -105.74147      196.61408      331.45703    
   2250000  -83.968804      179.73255      302.99771    
   2260000  -88.219287      183.55378      309.43965    
   2270000  -109.21496      192.94424      325.27032    
   2280000  -112.07602      163.60607      275.81129    
   2290000  -114.94021      186.53962      314.47325    
   2300000  -115.46991      193.91413      326.90538    
   2310000  -107.87967      174.62924      294.39442    
   2320000  -99.277884      173.47235      292.44411    
   2330000  -134.45844      186.12881      313.7807     
   2340000  -114.29784      163.49171      275.61849    
   2350000  -106.18372      164.36595      277.09232    
   2360000  -111.23516      178.32264      300.62085    
   2370000  -113.59165      180.03801      303.51267    
   2380000  -126.21541      169.9015       286.42429    
   2390000  -106.35761      168.77845      284.53102    
   2400000  -87.98059       189.13311      318.84543    
   2410000  -99.783107      197.727        333.33322    
   2420000  -120.31065      190.6482       321.3996     
   2430000  -127.47443      183.67696      309.6473     
   2440000  -121.89959      170.16868      286.87471    
   2450000  -109.71447      178.69028      301.24064    
   2460000  -118.33138      161.88803      272.91496    
   2470000  -107.68472      178.32203      300.61982    
   2480000  -116.62444      177.84366      299.81338    
   2490000  -94.568687      168.09252      283.37465    
   2500000  -87.01308       180.10101      303.61887    
   2510000  -114.10443      189.46659      319.40761    
   2520000  -113.02223      190.4073       320.99348    
   2530000  -74.564557      170.31545      287.12214    
   2540000  -93.353976      173.01412      291.67162    
   2550000  -92.149991      194.18587      327.36349    
   2560000  -98.459867      186.19019      313.88417    
   2570000  -79.921539      191.62499      323.0463     
   2580000  -101.62426      196.26238      330.86413    
   2590000  -57.547442      173.77212      292.94948    
   2600000  -91.25915       184.63983      311.27053    
   2610000  -101.30547      165.88159      279.64741    
   2620000  -103.52176      189.13177      318.84317    
   2630000  -98.07516       169.11116      285.0919     
   2640000  -102.5477       165.65671      279.26831    
   2650000  -81.50058       146.78938      247.46127    
   2660000  -78.136894      168.36993      283.84233    
   2670000  -114.01599      195.37809      329.37337    
   2680000  -72.290514      158.93565      267.93777    
   2690000  -87.951561      170.83786      288.00283    
   2700000  -99.842637      169.89246      286.40905    
   2710000  -109.1826       178.69672      301.25149    
   2720000  -121.60212      193.59655      326.37       
   2730000  -105.18934      180.23695      303.84804    
   2740000  -81.198912      171.88936      289.77546    
   2750000  -78.683574      177.06427      298.49946    
   2760000  -88.566034      181.73434      306.37238    
   2770000  -113.97622      168.72252      284.43672    
   2780000  -89.10484       194.29468      327.54693    
   2790000  -83.767689      175.06514      295.12927    
   2800000  -70.948113      180.70624      304.6392     
   2810000  -53.317227      183.61038      309.53506    
   2820000  -77.698428      183.05946      308.6063     
   2830000  -96.686424      182.40457      307.50228    
   2840000  -90.258356      181.59488      306.13728    
   2850000  -109.31734      183.56072      309.45135    
   2860000  -86.612703      186.47014      314.35611    
   2870000  -70.134383      179.47377      302.56147    
   2880000  -79.51724       200.50667      338.01926    
   2890000  -62.674666      177.33231      298.95133    
   2900000  -62.158936      181.02535      305.17715    
   2910000  -83.482525      196.7211       331.63744    
   2920000  -105.37994      179.61424      302.79827    
   2930000  -95.577097      187.40775      315.93677    
   2940000  -100.97782      166.83605      281.25646    
   2950000  -105.11383      160.03867      269.79728    
   2960000  -99.684984      173.64371      292.733      
   2970000  -87.787405      193.29178      325.85621    
   2980000  -100.66851      167.09855      281.699      
   2990000  -85.670296      175.95372      296.62726    
   3000000  -95.875431      173.97249      293.28727    
   3010000  -108.81446      173.44962      292.40579    
   3020000  -120.1007       186.8183       314.94306    
   3030000  -87.905469      172.7929       291.29867    
   3040000  -84.453986      165.03113      278.21368    
   3050000  -97.7899        202.99416      342.21274    
   3060000  -106.92567      171.17885      288.57767    
   3070000  -102.16689      187.99587      316.92823    
   3080000  -110.84464      182.70993      308.01707    
   3090000  -102.4466       166.50303      280.69506    
   3100000  -107.96006      169.91038      286.43926    
   3110000  -108.36142      187.31607      315.78221    
   3120000  -84.37339       189.36945      319.24384    
   3130000  -63.849655      187.46228      316.0287     
   3140000  -115.06844      211.44886      356.46588    
   3150000  -88.67872       185.32792      312.43054    
   3160000  -85.492006      175.86703      296.48112    
   3170000  -93.926184      160.4024       270.41046    
   3180000  -70.654854      182.46979      307.61222    
   3190000  -79.883246      178.10148      300.24801    
   3200000  -86.791858      179.90609      303.29028    
   3210000  -82.833126      174.39026      293.99155    
   3220000  -88.871707      172.28894      290.44908    
   3230000  -109.06568      182.53209      307.71725    
   3240000  -97.152031      170.69492      287.76185    
   3250000  -110.49845      174.66072      294.44751    
   3260000  -77.808569      174.68084      294.48142    
   3270000  -98.679266      161.98697      273.08177    
   3280000  -92.074485      172.73438      291.20003    
   3290000  -83.600666      173.75309      292.91738    
   3300000  -79.843638      167.01142      281.55211    
   3310000  -85.241952      190.16511      320.5852     
   3320000  -71.665095      174.53409      294.23401    
   3330000  -104.13783      207.95319      350.5728     
   3340000  -75.401271      180.86766      304.91132    
   3350000  -116.74603      182.49136      307.64858    
   3360000  -109.34564      173.63739      292.72235    
   3370000  -119.38074      173.55626      292.58557    
   3380000  -118.06634      172.61112      290.99222    
   3390000  -104.63513      165.28061      278.63428    
   3400000  -100.68581      190.30909      320.82792    
   3410000  -69.496455      177.9162       299.93567    
   3420000  -74.841546      185.1792       312.17982    
   3430000  -98.352824      189.01166      318.64068    
   3440000  -110.88301      195.78851      330.06527    
   3450000  -104.39515      185.71909      313.08997    
   3460000  -100.0359       176.6181       297.74729    
   3470000  -110.37137      190.95611      321.91869    
   3480000  -84.48651       179.93061      303.33161    
   3490000  -97.917298      188.12854      317.1519     
   3500000  -87.31081       167.66562      282.65497    
   3510000  -102.12757      189.04165      318.69123    
   3520000  -88.091753      182.72365      308.04019    
   3530000  -94.426263      211.00421      355.71629    
   3540000  -92.432247      188.24201      317.34318    
   3550000  -107.07584      176.23733      297.1054     
   3560000  -85.015683      164.51012      277.33536    
   3570000  -106.39044      186.26308      314.00705    
   3580000  -81.993334      162.91774      274.65088    
   3590000  -79.13972       178.31395      300.60621    
   3600000  -81.488426      168.85863      284.66619    
   3610000  -111.28233      174.47371      294.13223    
   3620000  -97.160671      159.08986      268.19775    
   3630000  -79.644523      174.12363      293.54205    
   3640000  -98.409648      168.35146      283.81118    
   3650000  -96.469444      169.1528       285.1621     
   3660000  -123.51787      187.18862      315.56735    
   3670000  -130.50728      189.97099      320.25794    
   3680000  -139.04326      181.16518      305.41288    
   3690000  -110.54641      167.32703      282.08418    
   3700000  -97.59738       179.71293      302.96465    
   3710000  -116.95274      175.60563      296.04044    
   3720000  -77.535607      152.91745      257.79213    
   3730000  -115.83984      177.48176      299.20327    
   3740000  -109.35093      163.83711      276.20079    
   3750000  -112.79562      173.21666      292.01306    
   3760000  -108.54347      173.42878      292.37067    
   3770000  -99.810692      177.24971      298.81208    
   3780000  -120.8072       175.74504      296.27548    
   3790000  -134.59832      180.3237       303.99429    
   3800000  -111.48561      180.9229       305.00444    
   3810000  -98.943719      173.72781      292.87478    
   3820000  -127.16298      177.79518      299.73165    
   3830000  -115.92651      157.48453      265.49144    
   3840000  -116.8657       185.81951      313.25927    
   3850000  -85.853679      183.34598      309.08933    
   3860000  -102.31095      181.35565      305.73397    
   3870000  -99.267802      172.64152      291.04348    
   3880000  -121.30996      186.3973       314.23332    
   3890000  -118.46416      174.72005      294.54752    
   3900000  -119.43999      176.89592      298.21565    
   3910000  -110.32951      171.66645      289.39968    
   3920000  -124.865        190.31883      320.84433    
   3930000  -85.3714        169.75432      286.17616    
   3940000  -116.06754      181.6349       306.20475    
   3950000  -111.77954      173.09316      291.80487    
   3960000  -104.4947       178.72159      301.29341    
   3970000  -114.76841      169.62988      285.96639    
   3980000  -89.465732      191.85874      323.44036    
   3990000  -101.64851      187.22321      315.62566    
   4000000  -97.484037      189.34187      319.19735    
Loop time of 745.805 on 1 procs for 4000000 steps with 200 atoms

Performance: 4633.919 ns/day, 0.005 hours/ns, 5363.332 timesteps/s, 1.073 Matom-step/s
99.3% CPU use with 1 MPI tasks x 1 OpenMP threads

MPI task timing breakdown:
Section |  min time  |  avg time  |  max time  |%varavg| %total
---------------------------------------------------------------
Pair    | 657.42     | 657.42     | 657.42     |   0.0 | 88.15
Bond    | 41.298     | 41.298     | 41.298     |   0.0 |  5.54
Neigh   | 15.478     | 15.478     | 15.478     |   0.0 |  2.08
Comm    | 13.338     | 13.338     | 13.338     |   0.0 |  1.79
Output  | 0.13453    | 0.13453    | 0.13453    |   0.0 |  0.02
Modify  | 16.795     | 16.795     | 16.795     |   0.0 |  2.25
Other   |            | 1.339      |            |       |  0.18

Nlocal:            200 ave         200 max         200 min
Histogram: 1 0 0 0 0 0 0 0 0 0
Nghost:              0 ave           0 max           0 min
Histogram: 1 0 0 0 0 0 0 0 0 0
Neighs:           1737 ave        1737 max        1737 min
Histogram: 1 0 0 0 0 0 0 0 0 0

Total # of neighbors = 1737
Ave neighs/atom = 8.685
Ave special neighs/atom = 5.94
Neighbor list builds = 9286
Dangerous builds = 0
Generated 0 of 6 mixed pair_coeff terms from geometric mixing rule
Setting up Verlet run ...
  Unit style    : real
  Current step  : 4000000
  Time step     : 10
Per MPI rank memory allocation (min/avg/max) = 19.32 | 19.32 | 19.32 Mbytes
   Step         PotEng         KinEng          Temp     
   4000000  -97.484037      189.34187      319.19735    
   4010000  -93.986221      165.56996      279.12207    
   4020000  -115.8256       168.42981      283.94327    
   4030000  -116.98791      186.36774      314.18349    
   4040000  -105.97789      170.46032      287.36635    
   4050000  -125.25417      190.23382      320.70102    
   4060000  -108.16978      168.73175      284.45229    
   4070000  -110.52279      168.89761      284.7319     
   4080000  -118.46478      170.21672      286.95568    
   4090000  -114.67118      187.62959      316.31074    
   4100000  -113.9905       175.37524      295.65206    
   4110000  -114.5623       160.91968      271.28251    
   4120000  -123.65895      167.40773      282.22022    
   4130000  -151.57677      195.45677      329.50601    
   4140000  -125.85398      177.37242      299.01895    
   4150000  -101.69924      180.36367      304.06167    
   4160000  -120.78139      180.53343      304.34786    
   4170000  -109.33762      174.28798      293.81913    
   4180000  -97.943158      163.14966      275.04185    
   4190000  -113.80385      182.15041      307.07381    
   4200000  -106.93748      200.7284       338.39306    
   4210000  -101.96638      181.70738      306.32693    
   4220000  -101.48236      170.83699      288.00135    
   4230000  -122.73599      170.45659      287.36007    
   4240000  -111.05718      172.89324      291.46783    
   4250000  -102.38441      171.16768      288.55884    
   4260000  -90.541148      189.08306      318.76105    
   4270000  -87.526333      187.2343       315.64436    
   4280000  -109.64199      184.43932      310.9325     
   4290000  -121.41768      189.50158      319.4666     
   4300000  -113.93685      182.33437      307.38393    
   4310000  -94.656789      181.95639      306.74672    
   4320000  -55.519507      193.29666      325.86444    
   4330000  -47.962791      181.05925      305.2343     
   4340000  -66.065932      204.58793      344.89954    
   4350000  -92.041395      187.3326       315.81008    
   4360000  -88.65636       197.54639      333.02874    
   4370000  -63.624738      164.59784      277.48324    
   4380000  -75.441641      180.71701      304.65734    
   4390000  -93.030803      190.79992      321.65537    
   4400000  -94.761918      184.26606      310.64043    
   4410000  -79.533671      190.56937      321.26671    
   4420000  -78.432591      207.44898      349.72279    
   4430000  -93.66269       188.14816      317.18497    
   4440000  -95.631335      195.81176      330.10445    
   4450000  -100.02095      166.73731      281.09       
   4460000  -96.401411      181.74651      306.39291    
   4470000  -75.786754      179.46647      302.54915    
   4480000  -95.741926      198.21027      334.14794    
   4490000  -80.949353      184.87096      311.66017    
   4500000  -114.69721      195.386        329.3867     
   4510000  -97.100975      177.57114      299.35395    
   4520000  -125.63534      191.52521      322.87809    
   4530000  -112.69178      176.57538      297.67528    
   4540000  -112.22464      173.96142      293.26859    
   4550000  -140.80626      189.6023       319.63639    
   4560000  -112.94627      182.34437      307.40078    
   4570000  -101.09522      168.47256      284.01533    
   4580000  -112.62636      175.81698      296.39675    
   4590000  -96.590697      179.45959      302.53755    
   4600000  -98.19324       172.27956      290.43328    
   4610000  -124.92927      170.10757      286.77167    
   4620000  -117.85276      172.31376      290.49093    
   4630000  -118.30227      186.37404      314.1941     
   4640000  -140.07126      190.99883      321.9907     
   4650000  -133.58023      190.74939      321.57018    
   4660000  -120.79597      182.32394      307.36636    
   4670000  -114.64642      179.84359      303.18492    
   4680000  -94.523007      181.26638      305.58349    
   4690000  -120.00644      203.24874      342.64191    
   4700000  -97.924616      172.65117      291.05975    
   4710000  -105.05732      190.72986      321.53726    
   4720000  -100.10949      186.12892      313.78087    
   4730000  -104.76439      173.91225      293.18571    
   4740000  -104.19472      172.62992      291.02393    
   4750000  -122.98852      189.09033      318.77331    
   4760000  -98.304481      184.27628      310.65766    
   4770000  -75.673248      172.87207      291.43214    
   4780000  -118.01268      194.56971      328.01057    
   4790000  -89.715143      183.04924      308.58907    
   4800000  -89.733117      184.06796      310.30647    
   4810000  -72.30759       191.95215      323.59783    
   4820000  -106.3994       191.0608       322.09517    
   4830000  -103.66244      193.54669      326.28595    
   4840000  -87.321645      171.30307      288.78708    
   4850000  -100.99965      202.94891      342.13646    
   4860000  -106.70951      187.33111      315.80757    
   4870000  -126.02871      186.88458      315.0548     
   4880000  -81.690438      188.90705      318.46432    
   4890000  -76.637972      201.691        340.01584    
   4900000  -94.87347       210.90536      355.54963    
   4910000  -98.80837       182.65131      307.91823    
   4920000  -97.582066      189.68396      319.77406    
   4930000  -94.900721      181.09706      305.29804    
   4940000  -73.625945      191.43426      322.72475    
   4950000  -91.578777      185.52164      312.75711    
   4960000  -88.468797      198.16563      334.07267    
   4970000  -72.165118      171.92517      289.83584    
   4980000  -99.802347      197.0615       332.21131    
   4990000  -109.75104      202.65529      341.64146    
   5000000  -99.264931      201.97284      340.49097    
   5010000  -92.048253      193.07906      325.4976     
   5020000  -86.654444      185.89529      313.38702    
   5030000  -99.645463      189.93564      320.19835    
   5040000  -83.354635      193.34495      325.94585    
   5050000  -67.397488      199.42194      336.1906     
   5060000  -63.354264      190.82194      321.6925     
   5070000  -63.667868      203.46688      343.00966    
   5080000  -72.73583       214.97793      362.41528    
   5090000  -82.93933       193.93882      326.94701    
   5100000  -64.975411      204.83929      345.3233     
   5110000  -70.856383      196.64712      331.51273    
   5120000  -72.878876      203.20567      342.5693     
   5130000  -58.414227      179.40952      302.45314    
   5140000  -83.275135      195.99114      330.40687    
   5150000  -73.688317      188.41725      317.63861    
   5160000  -64.156199      205.15231      345.851      
   5170000  -84.03151       191.60038      323.00482    
   5180000  -60.255182      198.26097      334.2334     
   5190000  -75.760096      205.1134       345.78541    
   5200000  -51.354651      188.67411      318.07164    
   5210000  -79.316642      190.68378      321.45958    
   5220000  -88.824699      190.68205      321.45666    
   5230000  -112.73574      187.1561       315.51253    
   5240000  -93.799861      189.4105       319.31306    
   5250000  -84.221693      205.22355      345.9711     
   5260000  -89.455269      192.08126      323.81549    
   5270000  -71.33732       186.76075      314.84604    
   5280000  -75.577081      178.12066      300.28036    
   5290000  -95.525682      180.70023      304.62907    
   5300000  -81.674864      195.06454      328.84479    
   5310000  -96.504535      192.07811      323.81018    
   5320000  -81.162308      212.07491      357.52129    
   5330000  -103.66284      205.44441      346.34342    
   5340000  -112.30479      197.06841      332.22295    
   5350000  -76.977796      201.80255      340.20389    
   5360000  -81.584983      209.87992      353.82092    
   5370000  -76.677689      192.66004      324.79121    
   5380000  -36.359623      191.18756      322.30887    
   5390000  -71.006525      199.07421      335.60438    
   5400000  -62.072657      203.48435      343.03912    
   5410000  -49.518036      199.94868      337.07858    
   5420000  -68.619091      210.48083      354.83395    
   5430000  -80.255403      205.83523      347.00229    
   5440000  -103.80863      194.90643      328.57823    
   5450000  -83.076711      189.89501      320.12986    
   5460000  -91.865786      186.08416      313.70542    
   5470000  -71.975414      189.92239      320.17601    
   5480000  -81.248655      200.28324      337.6426     
   5490000  -58.346309      188.25161      317.35937    
   5500000  -66.696758      198.94761      335.39095    
   5510000  -74.997528      205.34527      346.1763     
   5520000  -76.698162      202.70768      341.72977    
   5530000  -65.195633      189.30657      319.13784    
   5540000  -56.229538      201.62293      339.90108    
   5550000  -46.778893      205.19558      345.92395    
   5560000  -40.410139      210.1789       354.32495    
   5570000  -63.943083      210.41219      354.71824    
   5580000  -65.071275      200.9823       338.82109    
   5590000  -50.130453      200.19839      337.49955    
   5600000  -48.959725      184.5438       311.10865    
   5610000  -65.020793      207.95015      350.56767    
   5620000  -77.696075      228.1395       384.60339    
   5630000  -62.215052      200.7875       338.49268    
   5640000  -61.826423      198.51846      334.66748    
   5650000  -53.073467      210.33702      354.59152    
   5660000  -51.611631      210.90891      355.55563    
   5670000  -37.357355      203.881        343.7078     
   5680000  -50.847329      191.07256      322.115      
   5690000  -33.573117      181.13159      305.35626    
   5700000  -64.343106      206.08165      347.4177     
   5710000  -38.537451      184.95462      311.80121    
   5720000  -47.899168      222.38671      374.9052     
   5730000  -59.061603      195.3562       329.33646    
   5740000  -69.261976      205.65984      346.7066     
   5750000  -60.254393      193.07024      325.48273    
   5760000  -71.678656      204.61464      344.94458    
   5770000  -75.068308      194.06738      327.16374    
   5780000  -81.578216      196.13229      330.64481    
   5790000  -84.582774      203.5694       343.18249    
   5800000  -103.87654      203.34504      342.80425    
   5810000  -101.62957      202.06197      340.64123    
   5820000  -86.045706      183.69647      309.6802     
   5830000  -89.434859      199.26688      335.92919    
   5840000  -94.597371      211.10625      355.88831    
   5850000  -63.472744      218.78478      368.83297    
   5860000  -67.821319      209.83013      353.73699    
   5870000  -52.042863      180.48765      304.27068    
   5880000  -67.840669      208.41105      351.34467    
   5890000  -72.045112      214.60174      361.78109    
   5900000  -70.679676      209.47544      353.13904    
   5910000  -71.760613      201.39045      339.50915    
   5920000  -51.589398      195.88642      330.23032    
   5930000  -67.680552      217.60104      366.83739    
   5940000  -63.755634      209.56751      353.29426    
   5950000  -61.858071      224.2475       378.04215    
   5960000  -81.612959      217.36276      366.43568    
   5970000  -65.762749      201.97128      340.48833    
   5980000  -55.274502      191.89618      323.50348    
   5990000  -66.799425      227.54796      383.60615    
   6000000  -18.175418      203.58736      343.21276    
   6010000  -69.225985      203.03019      342.27348    
   6020000  -72.786862      215.23592      362.8502     
   6030000  -53.839526      220.9599       372.49984    
   6040000  -68.350956      232.01742      391.14088    
   6050000  -58.149013      213.2662       359.52961    
   6060000  -57.954726      211.80528      357.06674    
   6070000  -38.900103      215.22284      362.82816    
   6080000  -13.691418      204.69501      345.08006    
   6090000  -38.138481      194.98331      328.70785    
   6100000  -58.024669      225.02475      379.35246    
   6110000  -49.877196      196.96381      332.04662    
   6120000  -91.961244      213.39453      359.74594    
   6130000  -50.107458      208.31997      351.19113    
   6140000  -38.609999      206.54042      348.19112    
   6150000  -63.730687      223.70375      377.12548    
   6160000  -83.147438      225.09339      379.46818    
   6170000  -20.724844      197.87714      333.58634    
   6180000  -44.40217       212.27307      357.85536    
   6190000  -34.477707      215.35011      363.0427     
   6200000  -31.702963      227.75633      383.95743    
   6210000  -26.63221       211.75797      356.987      
   6220000  -34.123225      216.47848      364.94494    
   6230000  -18.098402      188.73232      318.16976    
   6240000  -78.357266      214.21579      361.13044    
   6250000  -77.702269      225.56475      380.26281    
   6260000  -49.377142      223.62383      376.99076    
   6270000  -68.098511      247.25455      416.82803    
   6280000  -14.767571      203.46782      343.01125    
   6290000  -59.702372      199.10049      335.64868    
   6300000  -83.516901      224.99711      379.30586    
   6310000  -55.325729      216.37791      364.77541    
   6320000  -46.89287       209.7682       353.63259    
   6330000  -43.923226      238.77722      402.53673    
   6340000  -0.65519881     206.95316      348.88692    
   6350000  -23.35698       220.36486      371.49671    
   6360000  -15.628806      210.2539       354.45139    
   6370000  -57.650241      224.78957      378.95599    
   6380000  -50.461813      206.60664      348.30274    
   6390000  -45.26769       212.25202      357.81988    
   6400000  -63.581664      209.83969      353.7531     
   6410000  -60.08661       223.93183      377.51       
   6420000  -37.624165      198.81149      335.16147    
   6430000  -58.464516      204.05814      344.00641    
   6440000  -31.815796      203.16057      342.49327    
   6450000  -41.401033      215.26554      362.90014    
   6460000  -64.433327      194.6205       328.0962     
   6470000  -35.694663      218.73771      368.75361    
   6480000  -42.133981      225.52248      380.19155    
   6490000  -14.433014      217.53924      366.7332     
   6500000  -14.711894      211.05886      355.80841    
   6510000  -42.427717      218.75668      368.78559    
   6520000  -41.386013      212.04618      357.47287    
   6530000  -6.456299       214.17502      361.06172    
   6540000  -24.875887      214.69238      361.93389    
   6550000  -58.951769      192.85174      325.11438    
   6560000  -62.659367      207.78447      350.28835    
   6570000  -31.793344      202.92064      342.08879    
   6580000  -33.313021      228.31024      384.89123    
   6590000  -15.233763      221.84866      373.99813    
   6600000  -16.528511      219.28099      369.66949    
   6610000  -19.07838       205.51505      346.46252    
   6620000  -21.368265      234.74204      395.73413    
   6630000  -13.621314      209.18754      352.6537     
   6640000  -8.4880403      225.62804      380.3695     
   6650000  -8.5810908      224.00106      377.62671    
   6660000  -6.4283281      232.89028      392.61238    
   6670000  -10.655465      215.37646      363.08712    
   6680000  -34.216207      222.79422      375.59218    
   6690000  -16.015093      226.16185      381.26942    
   6700000  -31.637761      220.76848      372.17713    
   6710000  -47.361063      227.88013      384.16613    
   6720000  -48.922319      215.84173      363.8715     
   6730000  -48.942542      209.47685      353.14142    
   6740000  -57.338471      217.55158      366.754      
   6750000  -49.516152      225.72476      380.53257    
   6760000  -57.810703      221.32331      373.11248    
   6770000  -38.759968      216.88237      365.62583    
   6780000  -40.025098      219.01932      369.22836    
   6790000  -26.068684      223.7393       377.18542    
   6800000  -20.07704       216.89148      365.64118    
   6810000  -35.406244      239.13031      403.13198    
   6820000  -39.966328      222.23219      374.64469    
   6830000  -46.935414      217.75476      367.09654    
   6840000  -47.735138      205.62918      346.65492    
   6850000  -26.137943      207.1827       349.27389    
   6860000  -17.734113      240.5097       405.45738    
   6870000   1.557059       212.67417      358.53154    
   6880000  -17.126799      219.59404      370.19723    
   6890000  -33.277072      226.59382      381.99765    
   6900000  -30.841914      228.95916      385.9852     
   6910000  -39.517596      256.76117      432.85453    
   6920000  -39.069713      225.79961      380.65874    
   6930000  -51.645702      200.79703      338.50875    
   6940000  -18.371834      208.11084      350.83856    
   6950000  -9.7620517      244.77766      412.65243    
   6960000  -5.4333185      218.70336      368.69571    
   6970000  -28.459478      230.10332      387.91405    
   6980000  -15.378468      231.7189       390.63763    
   6990000  -33.332788      209.15477      352.59844    
   7000000  -25.791292      240.83647      406.00827    
   7010000   1.8163624      206.1264       347.49314    
   7020000   3.083154       218.0609       367.61263    
   7030000   14.868076      230.79053      389.07257    
   7040000  -3.5118191      219.84643      370.62273    
   7050000   1.4853439      212.8043       358.75093    
   7060000   8.9399141      221.93149      374.13776    
   7070000   13.537215      234.71819      395.69392    
   7080000   13.098725      220.56965      371.84194    
   7090000   20.50678       219.28947      369.68378    
   7100000   47.359044      211.42173      356.42015    
   7110000   30.496014      222.80774      375.61497    
   7120000   12.603282      254.62234      429.24884    
   7130000   57.264682      207.5953       349.96945    
   7140000   21.851372      229.21474      386.41605    
   7150000   37.569841      241.20012      406.62131    
   7160000   13.784315      216.26311      364.58187    
   7170000   9.2500411      221.42659      373.2866     
   7180000   1.2394925      234.0999       394.65158    
   7190000  -30.451249      237.70907      400.73602    
   7200000  -1.3704798      235.75108      397.43518    
   7210000   5.8483063      212.42518      358.11179    
   7220000   1.7933677      213.22685      359.46327    
   7230000  -9.8026847      226.80982      382.36178    
   7240000   9.1773998      204.32559      344.4573     
   7250000  -28.257567      224.33838      378.19537    
   7260000  -2.9615975      225.44823      380.06638    
   7270000   11.422754      257.18578      433.57035    
   7280000   33.094626      232.73713      392.35419    
   7290000   36.929665      227.71402      383.8861     
   7300000   55.130463      227.5068       383.53676    
   7310000   30.751372      221.07471      372.69339    
   7320000   28.979211      213.54426      359.99836    
   7330000   18.663068      223.56174      376.88608    
   7340000   14.221323      213.85238      360.51781    
   7350000   17.360105      210.08197      354.16154    
   7360000   33.762734      231.89793      390.93944    
   7370000   35.637957      231.57751      390.39928    
   7380000   68.70922       234.44935      395.2407     
   7390000   75.880274      220.76471      372.17078    
   7400000   42.344646      218.24006      367.91467    
   7410000   56.368138      232.76129      392.39492    
   7420000   72.569834      216.83542      365.54668    
   7430000   77.30213       202.76719      341.8301     
   7440000   66.068947      225.42181      380.02184    
   7450000   39.211074      234.87486      395.95804    
   7460000   55.209178      225.71869      380.52232    
   7470000   74.569443      242.11059      408.15622    
   7480000   66.497639      231.76082      390.7083     
   7490000   69.045694      245.38413      413.67483    
   7500000   61.158689      255.02195      429.92251    
   7510000   87.169684      201.81041      340.21714    
   7520000   84.948742      225.98001      380.96287    
   7530000   91.09543       225.35541      379.90991    
   7540000   94.296813      249.31738      420.30559    
   7550000   83.234798      211.10584      355.88761    
   7560000   93.016706      210.77113      355.32334    
   7570000   52.923092      230.38329      388.38603    
   7580000   40.162822      242.87337      409.44212    
   7590000   64.274992      217.12393      366.03306    
   7600000   68.890222      232.55622      392.04921    
   7610000   85.687324      224.93177      379.19571    
   7620000   61.317775      229.99357      387.72902    
   7630000   97.729182      217.87531      367.29976    
   7640000   99.105545      233.99518      394.47504    
   7650000   72.346444      250.24859      421.87546    
   7660000   76.710523      234.268        394.93497    
   7670000   63.130766      232.0018       391.11455    
   7680000   69.78358       240.88049      406.08247    
   7690000   100.95681      233.63774      393.87247    
   7700000   106.35435      255.92436      431.44381    
   7710000   93.001588      237.20135      399.88009    
   7720000   64.986956      220.09002      371.03338    
   7730000   60.273559      220.15319      371.13987    
   7740000   61.188179      277.1494       467.22553    
   7750000   98.811151      253.65994      427.6264     
   7760000   85.479474      249.06057      419.87265    
   7770000   96.602262      245.85436      414.46755    
   7780000   78.274715      249.90694      421.2995     
   7790000   75.759022      194.47341      327.84824    
   7800000   69.709283      218.05071      367.59546    
   7810000   75.866333      232.53725      392.01723    
   7820000   56.436609      241.56799      407.24148    
   7830000   58.184798      234.73337      395.7195     
   7840000   85.382969      225.30621      379.82696    
   7850000   46.238055      247.81494      417.77276    
   7860000   68.918377      236.74366      399.1085     
   7870000   75.965696      216.88318      365.62721    
   7880000   55.734927      243.08042      409.79117    
   7890000   81.229652      227.58874      383.67491    
   7900000   96.20295       234.77073      395.78249    
   7910000   84.399907      241.97408      407.92607    
   7920000   86.686249      247.66417      417.51857    
   7930000   104.42441      266.09307      448.58648    
   7940000   76.916559      264.43553      445.79217    
   7950000   78.471414      233.90578      394.32433    
   7960000   87.047638      227.77401      383.98724    
   7970000   100.77848      225.57055      380.27259    
   7980000   73.428791      248.32841      418.63838    
   7990000   51.766793      242.09737      408.13393    
   8000000   75.085762      234.02392      394.52349    
   8010000   77.085801      251.24683      423.55831    
   8020000   99.529647      248.03114      418.13723    
   8030000   108.79323      243.06689      409.76836    
   8040000   103.0986       228.15688      384.63268    
   8050000   97.165602      261.32883      440.55481    
   8060000   84.343866      250.44203      422.20156    
   8070000   82.160355      220.5039       371.7311     
   8080000   72.647445      230.72192      388.9569     
   8090000   42.153514      225.63228      380.37665    
   8100000   37.705792      246.24029      415.11816    
   8110000   57.35984       239.05319      403.00197    
   8120000   65.397438      230.25752      388.17399    
   8130000   31.586804      252.45223      425.59041    
   8140000   37.619985      223.3977       376.60954    
   8150000   47.622318      222.4909       375.08083    
   8160000   37.317961      241.17826      406.58446    
   8170000   57.679822      251.43264      423.87156    
   8180000   77.868795      242.55307      408.90216    
   8190000   50.526239      246.731        415.94542    
   8200000   41.261629      261.46934      440.79169    
   8210000   76.91485       253.33252      427.07442    
   8220000   59.822377      237.74733      400.80051    
   8230000   40.528377      240.2588       405.03441    
   8240000   43.222742      227.03901      382.74816    
   8250000   50.262828      245.42776      413.74837    
   8260000   51.124726      233.27891      393.26754    
   8270000   56.927102      223.69931      377.118      
   8280000   42.549403      242.09363      408.12762    
   8290000   65.941615      237.65395      400.64309    
   8300000   69.702833      231.76054      390.70783    
   8310000   79.467573      257.57127      434.22022    
   8320000   114.78451      245.79107      414.36086    
   8330000   111.10262      270.0048       455.18099    
   8340000   111.12491      264.50326      445.90635    
   8350000   64.415048      279.87632      471.82264    
   8360000   75.002334      261.96592      441.62883    
   8370000   118.32238      252.87075      426.29595    
   8380000   103.6504       248.80898      419.44852    
   8390000   96.399805      253.48799      427.33651    
   8400000   94.104566      251.42052      423.85112    
   8410000   91.452822      234.10176      394.65472    
   8420000   107.14883      243.58666      410.6446     
   8430000   123.61329      253.76751      427.80775    
   8440000   130.40646      266.52085      449.30765    
   8450000   132.2599       254.04268      428.27163    
   8460000   95.170114      268.61847      452.84387    
   8470000   116.49894      235.26472      396.61526    
   8480000   98.175018      251.01361      423.16515    
   8490000   105.47263      230.28518      388.22064    
   8500000   97.525105      246.33551      415.27869    
   8510000   102.50199      245.79087      414.36052    
   8520000   83.748641      250.22346      421.83309    
   8530000   106.56688      236.35119      398.44686    
   8540000   120.73579      236.50842      398.71192    
   8550000   134.12312      214.10204      360.93869    
   8560000   128.43659      247.88556      417.89179    
   8570000   103.80359      254.70631      429.3904     
   8580000   103.35745      226.47236      381.79288    
   8590000   99.304022      248.95085      419.68769    
   8600000   86.957635      229.76092      387.33682    
   8610000   96.634928      236.0903       398.00705    
   8620000   101.11831      218.68291      368.66123    
   8630000   102.40972      245.01664      413.0553     
   8640000   117.95649      234.86196      395.93628    
   8650000   127.38439      241.78261      407.60329    
   8660000   113.42249      241.20996      406.6379     
   8670000   117.0032       246.15383      414.9724     
   8680000   115.40112      249.61521      420.8077     
   8690000   116.64369      247.40245      417.07736    
   8700000   122.79236      241.69113      407.44907    
   8710000   134.43048      253.70084      427.69534    
   8720000   116.30436      257.32888      433.81159    
   8730000   122.98395      242.315        408.50081    
   8740000   113.15964      232.17507      391.40666    
   8750000   108.57176      250.52588      422.34291    
   8760000   114.41688      256.59649      432.57691    
   8770000   110.36018      223.55002      376.86633    
   8780000   100.60932      244.33733      411.9101     
   8790000   116.31804      250.209        421.80871    
   8800000   127.3941       236.75023      399.11958    
   8810000   117.54464      270.77186      456.47411    
   8820000   110.66788      269.02887      453.53574    
   8830000   136.15741      267.68229      451.26563    
   8840000   139.40914      256.59749      432.5786     
   8850000   135.96066      261.8137       441.37221    
   8860000   111.99173      273.23976      460.63455    
   8870000   139.44255      231.49514      390.26041    
   8880000   133.56196      245.44648      413.77994    
   8890000   138.25796      250.07677      421.5858     
   8900000   133.74644      247.24403      416.81029    
   8910000   121.53631      268.88671      453.29608    
   8920000   111.32446      247.50062      417.24285    
   8930000   119.24642      227.02567      382.72567    
   8940000   114.21174      253.2265       426.8957     
   8950000   123.07643      279.98517      472.00613    
   8960000   123.84649      275.02912      463.65111    
   8970000   109.77363      260.8943       439.82227    
   8980000   99.491975      287.32087      484.37286    
   8990000   119.27292      248.65807      419.19411    
   9000000   95.974714      261.75213      441.26842    
   9010000   76.590698      249.77365      421.07479    
   9020000   111.08576      254.14068      428.43684    
   9030000   77.351529      262.71562      442.8927     
   9040000   111.57013      232.16467      391.38912    
   9050000   85.686655      246.51888      415.58782    
   9060000   107.37929      266.83335      449.83447    
   9070000   91.397612      251.84667      424.56953    
   9080000   120.86182      248.97115      419.72192    
   9090000   95.255382      245.57488      413.9964     
   9100000   101.30958      256.97851      433.22093    
   9110000   98.996409      255.35834      430.4896     
   9120000   49.169124      265.34601      447.32708    
   9130000   46.398912      273.07946      460.36433    
   9140000   94.559827      234.93446      396.0585     
   9150000   115.53703      226.89561      382.5064     
   9160000   113.4703       243.19143      409.97832    
   9170000   111.85184      268.02262      451.83936    
   9180000   121.23946      277.025        467.01582    
   9190000   147.7254       257.70373      434.44352    
   9200000   137.7829       232.71964      392.32471    
   9210000   109.01979      253.04207      426.58478    
   9220000   96.431599      252.71081      426.02634    
   9230000   86.780001      256.51548      432.44034    
   9240000   109.54747      280.59343      473.03156    
   9250000   91.178026      263.00985      443.38872    
   9260000   120.93195      242.32884      408.52414    
   9270000   120.9768       245.22491      413.4064     
   9280000   120.17701      243.30292      410.16627    
   9290000   99.217524      250.29419      421.95233    
   9300000   114.22305      250.14332      421.69799    
   9310000   113.90844      250.11684      421.65335    
   9320000   108.77602      258.09165      435.09748    
   9330000   142.47182      230.04815      387.82104    
   9340000   119.97324      232.23502      391.50772    
   9350000   144.63735      258.06169      435.04697    
   9360000   139.30099      249.43132      420.49768    
   9370000   128.73193      248.17343      418.37711    
   9380000   117.24579      267.03342      450.17174    
   9390000   123.32058      265.55782      447.68416    
   9400000   127.90792      291.69321      491.74386    
   9410000   128.51793      266.79224      449.76517    
   9420000   146.10426      268.66261      452.91828    
   9430000   145.55469      252.54576      425.74808    
   9440000   106.90713      255.11509      430.07954    
   9450000   98.709051      266.40578      449.11366    
   9460000   97.767559      235.24256      396.5779     
   9470000   88.072376      255.79172      431.22021    
   9480000   96.209675      268.34106      452.3762     
   9490000   84.4131        259.66353      437.7474     
   9500000   87.866199      251.81142      424.51012    
   9510000   103.03417      242.86856      409.43402    
   9520000   120.86749      257.0071       433.26912    
   9530000   117.12982      279.48758      471.16729    
   9540000   130.6761       280.41069      472.72349    
   9550000   105.33642      261.49851      440.84086    
   9560000   116.90508      237.59449      400.54285    
   9570000   112.21038      256.21767      431.93828    
   9580000   123.29473      257.39241      433.9187     
   9590000   104.26914      252.58612      425.81613    
   9600000   82.527199      237.58497      400.5268     
   9610000   97.637664      254.46904      428.9904     
   9620000   133.30535      264.80766      446.41951    
   9630000   124.47055      287.22469      484.2107     
   9640000   125.13073      260.39077      438.9734     
   9650000   129.6558       283.25504      477.51857    
   9660000   121.74628      241.84772      407.71306    
   9670000   120.4294       273.57083      461.19269    
   9680000   101.84808      256.68194      432.72097    
   9690000   80.994087      271.55098      457.78757    
   9700000   101.29126      248.1769       418.38294    
   9710000   85.165893      255.70825      431.07949    
   9720000   70.160795      265.87398      448.21714    
   9730000   74.575185      266.14026      448.66604    
   9740000   100.37043      222.41496      374.95282    
   9750000   83.928647      249.4595       420.54519    
   9760000   96.822265      293.79626      495.28922    
   9770000   110.28858      254.42082      428.90912    
   9780000   125.80045      254.02303      428.23851    
   9790000   119.60908      267.99312      451.78964    
   9800000   125.01776      257.8429       434.67814    
   9810000   114.40798      245.86223      414.48082    
   9820000   122.56179      291.64343      491.65994    
   9830000   137.5715       262.35284      442.28112    
   9840000   102.5303       309.28551      521.4014     
   9850000   115.47219      255.80118      431.23615    
   9860000   91.428749      267.86449      451.57279    
   9870000   136.20883      254.29672      428.6999     
   9880000   110.31252      292.84624      493.68766    
   9890000   94.552815      257.58473      434.2429     
   9900000   96.721771      273.58918      461.22361    
   9910000   123.8271       267.31513      450.64666    
   9920000   113.65253      242.12896      408.18718    
   9930000   119.95815      234.76264      395.76886    
   9940000   105.96441      272.52499      459.42957    
   9950000   131.64702      260.54712      439.23698    
   9960000   102.38097      276.38431      465.93572    
   9970000   115.68609      259.33463      437.19294    
   9980000   145.2655       254.96156      429.8207     
   9990000   137.12302      273.738        461.47451    
  10000000   110.83284      263.75059      444.63748    
  10010000   131.47696      282.27658      475.86905    
  10020000   90.954358      274.59653      462.92184    
  10030000   111.89261      259.1065       436.80835    
  10040000   111.69527      271.02065      456.89352    
  10050000   98.845583      271.54915      457.78448    
  10060000   112.87167      253.7294       427.7435     
  10070000   129.30869      266.911        449.96537    
  10080000   140.65734      267.98476      451.77555    
  10090000   191.35911      276.14632      465.53451    
  10100000   144.83883      266.89235      449.93394    
  10110000   141.87176      275.06495      463.71151    
  10120000   131.45035      259.34697      437.21374    
  10130000   121.12783      246.8328       416.11704    
  10140000   138.57403      277.03904      467.03948    
  10150000   150.58704      263.43971      444.11338    
  10160000   138.85195      234.20937      394.83614    
  10170000   113.0838       289.43436      487.93583    
  10180000   101.62959      304.76906      513.78746    
  10190000   114.18918      257.55244      434.18847    
  10200000   124.70497      261.04931      440.08358    
  10210000   126.12607      227.52775      383.57208    
  10220000   140.44914      247.06105      416.50182    
  10230000   144.36329      263.11615      443.56792    
  10240000   161.01087      244.28084      411.81487    
  10250000   163.85248      269.30243      453.99691    
  10260000   137.96458      270.36322      455.78522    
  10270000   152.87789      271.13044      457.07862    
  10280000   173.14827      266.95418      450.03816    
  10290000   164.3193       271.17343      457.15109    
  10300000   164.78445      270.39147      455.83283    
  10310000   162.61958      278.53096      469.5546     
  10320000   145.39758      266.63152      449.49422    
  10330000   152.17322      259.41946      437.33594    
  10340000   177.5682       275.6852       464.75714    
  10350000   199.34334      262.55719      442.62561    
  10360000   178.29107      290.77375      490.1938     
  10370000   155.94345      312.76155      527.26141    
  10380000   191.4806       279.99155      472.01691    
  10390000   192.63637      271.10702      457.03913    
  10400000   188.80158      271.96371      458.48337    
  10410000   170.52728      268.3777       452.43797    
  10420000   168.25905      257.01186      433.27714    
  10430000   173.48669      274.76892      463.21246    
  10440000   177.30552      279.31745      470.88048    
  10450000   202.28837      290.09872      489.05583    
  10460000   172.37579      271.14385      457.10122    
  10470000   157.9266       274.27046      462.37214    
  10480000   158.79592      267.61647      451.15468    
  10490000   172.14296      270.5084       456.02996    
  10500000   179.78862      263.54806      444.29605    
  10510000   173.34211      284.9971       480.45537    
  10520000   165.48407      309.54459      521.83817    
  10530000   190.07553      273.36786      460.85052    
  10540000   193.49102      272.53717      459.45011    
  10550000   193.29637      274.71066      463.11424    
  10560000   173.14716      258.71123      436.14198    
  10570000   183.74851      279.58407      471.32996    
  10580000   188.33169      310.45637      523.37527    
  10590000   192.18409      280.41127      472.72448    
  10600000   179.8602       301.69911      508.61206    
  10610000   200.73392      275.00602      463.61217    
  10620000   180.41515      273.90705      461.75949    
  10630000   185.49111      272.96553      460.17225    
  10640000   172.3407       268.54423      452.71871    
  10650000   178.48482      269.321        454.02821    
  10660000   177.88299      272.71275      459.74612    
  10670000   170.54184      292.21995      492.63184    
  10680000   214.56607      265.8289       448.14115    
  10690000   199.69222      289.34481      487.78485    
  10700000   192.27824      307.55191      518.47886    
  10710000   174.65821      269.4976       454.32593    
  10720000   184.94865      292.4193       492.96791    
  10730000   197.95574      295.17991      497.62183    
  10740000   165.27096      293.24296      494.35647    
  10750000   174.37467      289.30579      487.71908    
  10760000   187.79501      267.0228       450.15386    
  10770000   189.12694      269.28548      453.96834    
  10780000   190.46886      279.11219      470.53444    
  10790000   180.06758      256.70302      432.7565     
  10800000   166.56402      272.19842      458.87904    
  10810000   209.61151      275.49873      464.44278    
  10820000   179.89524      257.67302      434.39175    
  10830000   192.23999      277.86771      468.43647    
  10840000   161.26079      276.89861      466.80274    
  10850000   160.4072       292.97487      493.90451    
  10860000   176.56256      283.63374      478.15699    
  10870000   193.0144       264.2545       445.48698    
  10880000   185.45212      294.91944      497.18272    
  10890000   173.58895      256.05958      431.67177    
  10900000   184.42023      271.57025      457.82005    
  10910000   179.33389      295.35681      497.92005    
  10920000   177.88807      277.35724      467.5759     
  10930000   196.49788      271.71703      458.06751    
  10940000   161.50061      288.23131      485.9077     
  10950000   198.9588       278.42381      469.37397    
  10960000   182.15507      272.17125      458.83325    
  10970000   166.91897      283.02488      477.13057    
  10980000   175.00414      276.0234       465.32729    
  10990000   171.32651      296.635        500.07486    
  11000000   183.54276      288.70049      486.69865    
  11010000   183.15891      264.28919      445.54546    
  11020000   193.29864      261.85786      441.44666    
  11030000   174.89434      289.17444      487.49765    
  11040000   176.34816      281.51267      474.58124    
  11050000   185.42379      295.72554      498.54167    
  11060000   195.73508      269.94487      455.07995    
  11070000   176.69984      292.30882      492.78166    
  11080000   194.98271      271.75301      458.12816    
  11090000   187.42041      293.42406      494.66176    
  11100000   193.07462      295.56886      498.27752    
  11110000   178.1355       294.08421      495.77467    
  11120000   193.49289      306.20838      516.21391    
  11130000   197.04588      298.47897      503.18346    
  11140000   156.89697      272.18274      458.8526     
  11150000   181.93763      272.92013      460.09572    
  11160000   181.4475       294.52435      496.51666    
  11170000   183.47164      301.03991      507.50075    
  11180000   170.46606      320.35579      540.06396    
  11190000   168.93584      311.66702      525.41621    
  11200000   195.98899      284.73468      480.01299    
  11210000   188.28833      285.07139      480.58061    
  11220000   207.26175      291.70904      491.77054    
  11230000   163.13426      330.79839      557.66836    
  11240000   191.97007      291.45453      491.34148    
  11250000   184.05118      300.9471       507.34429    
  11260000   170.20051      288.6401       486.59685    
  11270000   185.86353      269.41882      454.19312    
  11280000   170.26438      308.32087      519.77518    
  11290000   165.72529      290.88182      490.376      
  11300000   171.86314      296.4128       499.70026    
  11310000   184.27809      304.63359      513.55909    
  11320000   184.23966      303.08924      510.95558    
  11330000   197.55021      298.37595      503.00978    
  11340000   150.82944      284.23037      479.16281    
  11350000   158.20348      296.5423       499.91858    
  11360000   144.84335      299.43511      504.79536    
  11370000   170.56358      298.71267      503.57744    
  11380000   187.9761       273.74074      461.47912    
  11390000   172.09545      292.76282      493.54704    
  11400000   157.83901      282.5094       476.26155    
  11410000   187.89895      286.64041      483.22571    
  11420000   192.52263      302.7395       510.36598    
  11430000   192.69874      261.56924      440.9601     
  11440000   178.47941      275.55151      464.53177    
  11450000   208.23556      292.99966      493.9463     
  11460000   201.04007      278.80596      470.0182     
  11470000   189.98548      303.07565      510.93266    
  11480000   183.72582      296.3954       499.67092    
  11490000   155.28119      286.80783      483.50796    
  11500000   201.19934      279.13897      470.57961    
  11510000   175.32187      317.435        535.14002    
  11520000   179.82795      290.37358      489.5192     
  11530000   190.87399      299.44934      504.81934    
  11540000   176.65663      268.76958      453.09861    
  11550000   172.51055      282.42984      476.12743    
  11560000   197.02539      305.19326      514.50258    
  11570000   190.03129      299.36967      504.68503    
  11580000   170.95741      305.04393      514.25084    
  11590000   156.20473      303.55153      511.73491    
  11600000   192.37032      258.71158      436.14259    
  11610000   195.40362      266.14073      448.66684    
  11620000   216.49454      256.27753      432.0392     
  11630000   178.95233      306.69216      517.02947    
  11640000   186.55733      277.10705      467.15413    
  11650000   188.44901      298.18602      502.6896     
  11660000   173.7902       299.14922      504.31338    
  11670000   201.60134      304.85308      513.92911    
  11680000   187.47303      315.65535      532.13985    
  11690000   169.1275       288.55722      486.45712    
  11700000   186.03373      295.42446      498.03409    
  11710000   165.79432      303.6307       511.86838    
  11720000   181.84305      286.76255      483.43163    
  11730000   201.28972      304.78053      513.80679    
  11740000   185.58493      301.85978      508.88292    
  11750000   192.9669       302.5636       510.06944    
  11760000   188.13155      288.47954      486.32617    
  11770000   201.92521      288.45865      486.29095    
  11780000   165.83322      321.49765      541.98894    
  11790000   218.56137      293.61626      494.98579    
  11800000   210.47857      274.83774      463.32848    
  11810000   202.22566      285.3448       481.04155    
  11820000   183.23874      299.86732      505.52397    
  11830000   177.06464      305.26899      514.63025    
  11840000   205.89912      310.31482      523.13665    
  11850000   176.36243      307.21497      517.91083    
  11860000   203.11924      285.36986      481.08379    
  11870000   171.93102      326.17592      549.87568    
  11880000   189.88011      309.44937      521.67764    
  11890000   198.71245      324.695        547.37912    
  11900000   192.81818      315.8666       532.49598    
  11910000   186.55331      296.87002      500.47106    
  11920000   190.26615      291.26279      491.01824    
  11930000   188.06968      294.28452      496.11236    
  11940000   178.08644      328.17938      553.25318    
  11950000   205.86959      311.64168      525.3735     
  11960000   185.61431      280.09735      472.19526    
  11970000   184.25319      307.98079      519.20187    
  11980000   177.42518      292.52369      493.14389    
  11990000   177.38824      283.13785      477.32101    
  12000000   194.36236      284.57615      479.74573    
Loop time of 1022.11 on 1 procs for 8000000 steps with 200 atoms

Performance: 6762.458 ns/day, 0.004 hours/ns, 7826.919 timesteps/s, 1.565 Matom-step/s
99.3% CPU use with 1 MPI tasks x 1 OpenMP threads

MPI task timing breakdown:
Section |  min time  |  avg time  |  max time  |%varavg| %total
---------------------------------------------------------------
Pair    | 844.37     | 844.37     | 844.37     |   0.0 | 82.61
Bond    | 79.796     | 79.796     | 79.796     |   0.0 |  7.81
Neigh   | 38.061     | 38.061     | 38.061     |   0.0 |  3.72
Comm    | 25.168     | 25.168     | 25.168     |   0.0 |  2.46
Output  | 0.24662    | 0.24662    | 0.24662    |   0.0 |  0.02
Modify  | 32.459     | 32.459     | 32.459     |   0.0 |  3.18
Other   |            | 2.015      |            |       |  0.20

Nlocal:            200 ave         200 max         200 min
Histogram: 1 0 0 0 0 0 0 0 0 0
Nghost:              0 ave           0 max           0 min
Histogram: 1 0 0 0 0 0 0 0 0 0
Neighs:            693 ave         693 max         693 min
Histogram: 1 0 0 0 0 0 0 0 0 0

Total # of neighbors = 693
Ave neighs/atom = 3.465
Ave special neighs/atom = 5.94
Neighbor list builds = 24417
Dangerous builds = 0
Generated 0 of 6 mixed pair_coeff terms from geometric mixing rule
Setting up Verlet run ...
  Unit style    : real
  Current step  : 12000000
  Time step     : 10
Per MPI rank memory allocation (min/avg/max) = 19.32 | 19.32 | 19.32 Mbytes
   Step         PotEng         KinEng          Temp     
  12000000   194.36236      284.57615      479.74573    
  12010000   175.53969      263.94952      444.97283    
  12020000   156.51392      273.65247      461.33032    
  12030000   190.89621      267.70782      451.30868    
  12040000   196.82568      288.75249      486.78632    
  12050000   175.07352      256.85621      433.01475    
  12060000   185.82531      272.81713      459.92208    
  12070000   198.13444      277.57483      467.94273    
  12080000   214.03188      286.57722      483.11919    
  12090000   183.09083      312.5494       526.90375    
  12100000   192.91852      288.60446      486.53676    
  12110000   197.06449      291.89236      492.07959    
  12120000   194.04612      296.92179      500.55833    
  12130000   170.93632      296.08601      499.14935    
  12140000   187.6722       304.08059      512.62682    
  12150000   204.08092      280.06772      472.1453     
  12160000   203.99224      340.62308      574.23108    
  12170000   205.90551      280.53314      472.92992    
  12180000   202.99178      273.20564      460.57705    
  12190000   187.82833      290.52727      489.77828    
  12200000   173.69837      293.58017      494.92494    
  12210000   213.2173       272.74673      459.80339    
  12220000   199.31961      305.86932      515.64231    
  12230000   180.83306      321.61026      542.17878    
  12240000   196.78498      300.01957      505.78065    
  12250000   198.83003      303.84727      512.23349    
  12260000   186.54099      293.38429      494.59472    
  12270000   196.28418      282.19668      475.73436    
  12280000   194.33631      281.20964      474.07039    
  12290000   181.35015      322.84301      544.25699    
  12300000   209.408        300.12245      505.95409    
  12310000   201.19946      327.98864      552.93162    
  12320000   183.50183      275.79503      464.9423     
  12330000   166.84927      314.91643      530.89416    
  12340000   195.09462      297.80764      502.05172    
  12350000   171.6149       282.52815      476.29317    
  12360000   192.85273      299.58963      505.05585    
  12370000   192.45662      311.53663      525.1964     
  12380000   175.18285      302.90598      510.64664    
  12390000   205.05162      312.63673      527.05098    
  12400000   196.55888      289.25463      487.63283    
  12410000   216.27301      288.10358      485.69237    
  12420000   224.46671      281.95788      475.33178    
  12430000   206.19324      286.89367      483.65267    
  12440000   179.60078      280.4502       472.7901     
  12450000   188.19177      314.98522      531.01012    
  12460000   181.93824      292.11733      492.45885    
  12470000   199.88044      278.55931      469.60239    
  12480000   206.92767      288.20881      485.86977    
  12490000   181.42199      333.99136      563.05116    
  12500000   211.70616      324.14907      546.45878    
  12510000   204.19746      301.51145      508.29569    
  12520000   182.34118      293.95965      495.56468    
  12530000   169.07089      284.95092      480.37753    
  12540000   213.71892      289.76409      488.4917     
  12550000   182.37162      338.09602      569.9709     
  12560000   196.75505      282.07401      475.52756    
  12570000   208.53695      297.86105      502.14175    
  12580000   183.40644      316.70186      533.90408    
  12590000   170.81863      317.90729      535.93622    
  12600000   160.01259      327.25295      551.69137    
  12610000   203.96636      321.36153      541.75947    
  12620000   225.08831      321.41616      541.85156    
  12630000   185.39187      281.49183      474.5461     
  12640000   212.00469      301.36402      508.04715    
  12650000   185.0304       287.06607      483.94331    
  12660000   192.54711      283.4892       477.91333    
  12670000   179.8713       295.99784      499.00071    
  12680000   180.16553      294.07466      495.75857    
  12690000   198.88097      315.7175       532.24461    
  12700000   200.24552      293.0945       494.10618    
  12710000   147.60248      298.16644      502.65659    
  12720000   167.61058      306.83562      517.27131    
  12730000   155.75732      268.94289      453.39078    
  12740000   152.24261      280.25505      472.46112    
  12750000   165.76315      307.26521      517.99553    
  12760000   175.7563       282.62175      476.45096    
  12770000   167.39726      276.49463      466.1217     
  12780000   174.62326      298.18034      502.68003    
  12790000   192.0864       289.1401       487.43975    
  12800000   175.71468      311.69012      525.45515    
  12810000   214.85801      284.20844      479.12584    
  12820000   224.3847       301.02673      507.47854    
  12830000   204.09364      320.69923      540.64294    
  12840000   187.30111      313.3486       528.25106    
  12850000   183.97797      301.03262      507.48847    
  12860000   195.25676      286.57462      483.1148     
  12870000   182.87134      339.72548      572.71789    
  12880000   193.27725      271.00678      456.87014    
  12890000   186.88887      279.66368      471.46416    
  12900000   181.55928      298.81722      503.75368    
  12910000   198.62766      291.71339      491.77788    
  12920000   168.12049      277.16942      467.25927    
  12930000   183.90851      277.77536      468.28078    
  12940000   172.03149      309.95788      522.5349     
  12950000   177.25182      267.70378      451.30185    
  12960000   192.97816      296.53955      499.91393    
  12970000   180.74813      296.68779      500.16384    
  12980000   180.38468      305.07268      514.29931    
  12990000   191.61387      327.99827      552.94785    
  13000000   170.58508      316.78539      534.0449     
  13010000   210.69576      310.48234      523.41906    
  13020000   147.70659      326.59233      550.57769    
  13030000   193.49939      267.36305      450.72745    
  13040000   182.26923      291.71174      491.77509    
  13050000   169.39523      291.22226      490.94991    
  13060000   199.29733      324.34931      546.79634    
[...]
 364720000  -97.381638      192.16274      323.95286    
 364730000  -68.954139      188.25207      317.36015    
 364740000  -91.252624      206.33591      347.84634    
 364750000  -96.027409      194.57998      328.02789    
 364760000  -69.590655      195.16141      329.00809    
 364770000  -89.517072      197.20426      332.45197    
 364780000  -85.408852      185.95964      313.4955     
 364790000  -68.019366      181.32223      305.67764    
 364800000  -74.910054      195.10708      328.91649    
 364810000  -88.439088      196.52097      331.30007    
 364820000  -96.506773      202.68322      341.68854    
 364830000  -88.101695      195.95229      330.34137    
 364840000  -64.224754      191.35413      322.58967    
 364850000  -69.454519      197.21301      332.46673    
 364860000  -90.525387      202.206        340.88403    
 364870000  -77.428005      202.70262      341.72125    
 364880000  -56.864662      164.58555      277.46252    
 364890000  -84.010962      208.03142      350.70467    
 364900000  -77.238881      209.32118      352.87899    
 364910000  -84.669651      204.14165      344.14719    
 364920000  -69.008725      194.31492      327.58105    
 364930000  -71.117266      198.02818      333.84096    
 364940000  -72.946915      192.16576      323.95794    
 364950000  -77.531343      189.23439      319.01616    
 364960000  -76.362428      181.49432      305.96776    
 364970000  -93.860799      201.04916      338.93381    
 364980000  -67.467501      170.24263      286.99937    
 364990000  -90.756355      177.66249      299.50795    
 365000000  -104.43193      195.04473      328.81138    
 365010000  -85.470489      190.24214      320.71505    
 365020000  -94.489282      220.57861      371.85706    
 365030000  -61.063213      177.07914      298.52453    
 365040000  -61.600068      204.45793      344.6804     
 365050000  -44.624186      197.90793      333.63824    
 365060000  -63.331456      175.64899      296.11355    
 365070000  -80.650127      186.69994      314.74353    
 365080000  -75.340484      205.73051      346.82574    
 365090000  -55.693592      194.15176      327.30598    
 365100000  -43.124881      187.69747      316.42519    
 365110000  -50.756921      172.97484      291.60541    
 365120000  -61.19701       193.7003       326.5449     
 365130000  -35.354968      179.68036      302.90973    
 365140000  -41.985785      196.37706      331.05746    
 365150000  -66.259228      213.04906      359.16354    
 365160000  -20.002413      179.89358      303.26919    
 365170000  -63.871587      209.82293      353.72485    
 365180000  -74.1849        193.86671      326.82545    
 365190000  -56.627172      195.54573      329.65598    
 365200000  -74.828692      189.73514      319.86034    
 365210000  -86.11857       185.05778      311.97513    
 365220000  -81.530543      184.12809      310.40782    
 365230000  -90.852011      181.06343      305.24136    
 365240000  -77.81428       193.62962      326.42576    
 365250000  -56.245115      191.48598      322.81195    
 365260000  -55.468595      191.55566      322.92943    
 365270000  -51.10994       205.38989      346.25151    
 365280000  -49.175951      186.07636      313.69228    
 365290000  -64.793193      196.33309      330.98333    
 365300000  -75.44624       195.40654      329.42133    
 365310000  -63.804196      205.03443      345.65228    
 365320000  -61.383466      200.05185      337.25252    
 365330000  -65.206224      203.86897      343.68752    
 365340000  -79.161869      184.94028      311.77704    
 365350000  -52.024205      191.74611      323.25048    
 365360000  -83.267813      188.25939      317.37249    
 365370000  -89.981913      188.44262      317.68138    
 365380000  -108.82697      200.20561      337.51172    
 365390000  -60.034187      165.13535      278.38938    
 365400000  -85.918692      204.86883      345.3731     
 365410000  -63.338175      208.90675      352.18033    
 365420000  -68.436489      183.32268      309.05006    
 365430000  -86.890394      193.14136      325.60264    
 365440000  -73.021705      190.74092      321.55591    
 365450000  -67.808658      196.01374      330.44496    
 365460000  -67.545296      211.76622      357.00089    
 365470000  -68.9225        211.67957      356.85483    
 365480000  -66.074185      186.14978      313.81604    
 365490000  -43.76527       182.19028      307.14102    
 365500000  -91.146304      193.57848      326.33954    
 365510000  -53.007329      200.07021      337.28347    
 365520000  -46.263522      211.06382      355.81677    
 365530000  -63.353764      192.93151      325.24886    
 365540000  -77.559738      205.97235      347.23345    
 365550000  -68.145926      190.26503      320.75364    
 365560000  -73.215993      196.07124      330.5419     
 365570000  -57.351261      198.40552      334.47708    
 365580000  -86.844834      196.68064      331.56924    
 365590000  -81.61123       177.06613      298.5026     
 365600000  -72.625703      177.75472      299.66344    
 365610000  -86.141998      215.99439      364.12885    
 365620000  -89.130685      212.92327      358.95148    
 365630000  -97.953808      198.20679      334.14207    
 365640000  -82.15269       196.35168      331.01467    
 365650000  -91.171017      203.87392      343.69585    
 365660000  -76.527617      206.36377      347.89331    
 365670000  -80.840035      202.20924      340.88949    
 365680000  -57.082212      203.42518      342.93936    
 365690000  -86.718889      207.89607      350.47649    
 365700000  -75.502445      195.37843      329.37395    
 365710000  -110.08215      207.5314       349.86172    
 365720000  -99.322165      199.3772       336.11517    
 365730000  -82.262226      187.69397      316.41929    
 365740000  -70.795916      201.26077      339.29055    
 365750000  -75.403367      195.603        329.75252    
 365760000  -76.101253      183.7028       309.69087    
 365770000  -86.691247      202.16154      340.80908    
 365780000  -88.385162      216.83656      365.54861    
 365790000  -64.856236      198.40647      334.47869    
 365800000  -67.055099      217.40826      366.51239    
 365810000  -49.20479       192.94725      325.27539    
 365820000  -80.161861      194.18179      327.35662    
 365830000  -68.568174      198.75519      335.06657    
 365840000  -68.51257       212.43422      358.12703    
 365850000  -49.421329      195.93784      330.31701    
 365860000  -70.154837      185.29647      312.37752    
 365870000  -74.629758      208.5385       351.55953    
 365880000  -62.057332      215.05868      362.55142    
 365890000  -45.020276      191.55254      322.92417    
 365900000  -62.975044      201.39422      339.51552    
 365910000  -52.615243      173.67629      292.78793    
 365920000  -47.862424      199.34534      336.06145    
 365930000  -51.294749      208.93943      352.23543    
 365940000  -47.408864      211.49253      356.53951    
 365950000  -60.032923      219.19035      369.51668    
 365960000  -40.338792      189.98907      320.28842    
 365970000  -25.66737       188.77416      318.24029    
 365980000  -48.243369      189.74973      319.88494    
 365990000  -46.43689       206.69712      348.45529    
 366000000  -52.563203      210.93425      355.59835    
 366010000  -60.500094      218.77329      368.8136     
 366020000  -72.314487      205.33522      346.15935    
 366030000  -52.993157      209.1806       352.64199    
 366040000  -44.465523      210.19751      354.35632    
 366050000  -62.818259      218.61055      368.53924    
 366060000  -29.510289      203.93091      343.79194    
 366070000  -43.048117      204.41832      344.61363    
 366080000  -29.507414      201.91355      340.39101    
 366090000  -20.374658      221.35257      373.16181    
 366100000  -36.311695      211.40634      356.39419    
 366110000  -45.089974      210.56251      354.97164    
 366120000  -63.37525       204.10487      344.08519    
 366130000  -75.74389       203.83474      343.6298     
 366140000  -88.520616      216.94759      365.73579    
 366150000  -50.220337      194.90859      328.58188    
 366160000  -62.105821      188.90021      318.45279    
 366170000  -69.805019      203.61755      343.26366    
 366180000  -57.176753      211.59094      356.7054     
 366190000  -54.990703      208.26439      351.09742    
 366200000  -53.534207      204.07743      344.03893    
 366210000  -57.366441      217.06644      365.93613    
 366220000  -49.115045      200.70334      338.35081    
 366230000  -35.132846      216.54761      365.06148    
 366240000   6.6966506      202.63857      341.61327    
 366250000  -16.685306      214.96419      362.39212    
 366260000  -26.218053      202.63968      341.61515    
 366270000  -26.963952      212.83525      358.8031     
 366280000  -19.979567      213.1812       359.38631    
 366290000  -35.420927      208.74708      351.91115    
 366300000  -18.138459      220.95291      372.48806    
 366310000  -23.846352      232.40822      391.79971    
 366320000  -28.345497      205.14241      345.83431    
 366330000  -4.4770427      188.19677      317.26692    
 366340000  -6.7566001      227.32059      383.22285    
 366350000  -25.524539      222.76857      375.54893    
 366360000  -12.285877      226.55439      381.93118    
 366370000   21.921945      203.11002      342.40805    
 366380000  -16.040385      233.63486      393.8676     
 366390000  -3.6713126      216.80219      365.49067    
 366400000   3.406975       229.88388      387.54412    
 366410000   41.078692      193.501        326.20892    
 366420000  -14.699224      225.35087      379.90225    
 366430000   7.2403443      210.27849      354.49284    
 366440000  -16.351034      204.88918      345.40741    
 366450000  -23.27384       222.5073       375.10849    
 366460000   3.2347227      193.21269      325.72288    
 366470000  -13.334631      204.82972      345.30717    
 366480000  -12.531266      224.32372      378.17064    
 366490000  -1.6190363      199.7415       336.72931    
 366500000  -21.003498      213.87329      360.55305    
 366510000  -43.10144       210.55929      354.96622    
 366520000  -48.725085      197.54279      333.02267    
 366530000  -22.512053      213.28313      359.55814    
 366540000  -27.839122      200.32635      337.71527    
 366550000  -34.496644      227.03629      382.74357    
 366560000  -19.420581      206.75915      348.55985    
 366570000   9.480129       234.45892      395.25682    
 366580000   14.338796      225.97405      380.95282    
 366590000   5.8645595      214.40213      361.44458    
 366600000   12.784533      215.09819      362.61801    
 366610000   12.286642      198.67716      334.93503    
 366620000  -5.0391664      217.37953      366.46395    
 366630000   25.345633      207.23889      349.36861    
 366640000   13.232872      217.93685      367.40351    
 366650000   21.089207      235.62623      397.2247     
 366660000   7.0148946      236.73726      399.09772    
 366670000   13.445286      214.16595      361.04642    
 366680000   26.290329      206.55255      348.21155    
 366690000   19.743133      200.90576      338.69205    
 366700000   21.851594      211.15024      355.96247    
 366710000   30.281449      211.16646      355.98981    
 366720000   24.130044      225.9316       380.88126    
 366730000   20.115772      240.95929      406.21532    
 366740000   26.28568       229.28244      386.53018    
 366750000   21.497275      200.45514      337.93238    
 366760000  -18.163829      226.13669      381.227      
 366770000   20.96689       224.512        378.48806    
 366780000   17.894333      224.76308      378.91133    
 366790000   11.293142      221.06278      372.67327    
 366800000   8.7489763      217.80647      367.18371    
 366810000   23.784075      223.97892      377.58938    
 366820000   23.785314      213.66037      360.1941     
 366830000   18.553193      219.10471      369.3723     
 366840000   5.6920356      222.19746      374.58615    
 366850000  -8.8195614      234.96788      396.11484    
 366860000   7.3069232      233.2651       393.24426    
 366870000   2.2893811      204.53591      344.81185    
 366880000  -1.1137907      248.60972      419.11261    
 366890000   11.230587      238.24059      401.63206    
 366900000   19.772863      231.46859      390.21566    
 366910000   29.520333      221.85447      374.00793    
 366920000   46.800238      223.9138       377.4796     
 366930000   30.562363      216.37546      364.77128    
 366940000   26.237393      212.73238      358.62967    
 366950000   0.55312746     218.08983      367.6614     
 366960000   18.261549      211.1139       355.9012     
 366970000   28.778519      217.92071      367.37629    
 366980000   32.048428      212.78511      358.71857    
 366990000   25.148179      217.4436       366.57197    
 367000000   13.911438      209.31908      352.87544    
 367010000  -6.2211446      224.05471      377.71714    
 367020000  -3.6556235      218.58853      368.50212    
 367030000  -12.422072      223.20319      376.28164    
 367040000  -11.234083      200.0066       337.17623    
 367050000   3.6940086      209.9519       353.94227    
 367060000  -7.0082061      224.4112       378.31812    
 367070000   6.6288604      226.37609      381.63058    
 367080000   4.5833935      221.29954      373.07241    
 367090000  -29.480152      221.20617      372.91501    
 367100000   16.627231      240.85351      406.03699    
 367110000   31.860774      220.59866      371.89084    
 367120000   26.53648       249.34747      420.35633    
 367130000   62.439285      205.60647      346.61664    
 367140000   28.915889      221.64583      373.65619    
 367150000   57.048912      230.22028      388.11123    
 367160000   44.448173      224.36606      378.24203    
 367170000   61.330066      216.13845      364.37171    
 367180000   54.082275      209.17988      352.64077    
 367190000   39.122859      224.83726      379.03639    
 367200000   48.349398      209.56903      353.29682    
 367210000   51.078965      229.61478      387.09046    
 367220000   23.264272      242.48432      408.78625    
 367230000   63.317871      226.53816      381.90381    
 367240000   88.637983      236.61922      398.89871    
 367250000   79.558322      234.6562       395.58941    
 367260000   93.072953      231.42848      390.14803    
 367270000   63.753244      252.74938      426.09135    
 367280000   70.320429      230.16213      388.01318    
 367290000   70.07893       224.85966      379.07415    
 367300000   73.722939      228.36674      384.98647    
 367310000   74.042103      212.48214      358.20782    
 367320000   49.34466       217.00069      365.82531    
 367330000   87.298479      233.94407      394.38888    
 367340000   88.526775      216.20695      364.48719    
 367350000   62.628199      212.17363      357.68771    
 367360000   65.996602      223.38796      376.59313    
 367370000   62.595829      231.83322      390.83035    
 367380000   67.286225      233.12352      393.00558    
 367390000   39.20575       223.52305      376.82086    
 367400000   35.942699      220.15824      371.14838    
 367410000   61.512092      225.67811      380.45392    
 367420000   56.641195      245.12037      413.23017    
 367430000   57.23649       232.655        392.21573    
 367440000   66.292102      214.98769      362.43173    
 367450000   64.908792      232.24286      391.52094    
 367460000   54.289426      222.84576      375.67907    
 367470000   49.436097      214.63537      361.83778    
 367480000   52.896351      239.23887      403.315      
 367490000   39.044502      228.19806      384.70211    
 367500000   59.513192      216.91913      365.6878     
 367510000   70.84693       240.72789      405.82522    
 367520000   63.762417      232.50872      391.96913    
 367530000   56.494578      226.20941      381.34959    
 367540000   69.307421      246.83055      416.11325    
 367550000   79.574671      233.52348      393.67983    
 367560000   83.916369      218.39156      368.17006    
 367570000   65.417741      219.35055      369.78676    
 367580000   72.761323      240.82619      405.99093    
 367590000   48.116309      237.57997      400.51838    
 367600000   23.629773      235.95193      397.77379    
 367610000   46.542667      239.71984      404.12582    
 367620000   61.789091      241.20861      406.63563    
 367630000   54.081462      215.38868      363.10773    
 367640000   33.139863      233.14082      393.03474    
 367650000   45.450712      216.52372      365.02121    
 367660000   40.333426      236.55917      398.79748    
 367670000   56.315721      224.31071      378.14872    
 367680000   33.754505      228.79403      385.70681    
 367690000   33.640536      227.68317      383.8341     
 367700000  -7.3637505      222.50875      375.11092    
 367710000   39.975072      212.09871      357.56141    
 367720000   51.821249      229.15307      386.3121     
 367730000   35.069624      218.94395      369.1013     
 367740000   54.854802      225.95969      380.92861    
 367750000   42.281671      230.42308      388.45311    
 367760000   42.050528      235.03783      396.23278    
 367770000   65.055585      249.254        420.19875    
 367780000   57.548795      216.75413      365.40964    
 367790000   67.642133      246.54134      415.62569    
 367800000   64.287182      220.66001      371.99427    
 367810000   47.741306      245.00797      413.04069    
 367820000   48.629599      226.16321      381.27171    
 367830000   59.351498      226.1829       381.3049     
 367840000   75.428951      242.928        409.53421    
 367850000   84.414366      238.48242      402.03974    
 367860000   49.175334      237.07498      399.66705    
 367870000   18.755259      238.79081      402.55965    
 367880000   42.691429      222.80328      375.60746    
 367890000   20.863476      231.67433      390.56249    
 367900000   30.549903      242.25758      408.404      
 367910000   32.137897      222.65493      375.35736    
 367920000   46.33899       213.14859      359.33133    
 367930000   43.942961      234.99581      396.16193    
 367940000   47.503988      239.64513      403.99987    
 367950000   28.217498      228.92274      385.92379    
 367960000   53.097292      234.63423      395.55236    
 367970000   74.116492      230.07182      387.86094    
 367980000   88.187312      237.67974      400.68657    
 367990000   90.172852      232.56183      392.05866    
 368000000   104.90859      236.08919      398.00519    
 368010000   95.562189      228.37053      384.99286    
 368020000   69.474298      233.96464      394.42356    
 368030000   95.61272       217.2518       366.24862    
 368040000   85.877458      244.11927      411.5425     
 368050000   76.226503      214.05424      360.85809    
 368060000   74.312994      227.95293      384.28886    
 368070000   55.382802      254.34058      428.77384    
 368080000   81.307592      240.6838       405.75089    
 368090000   87.756059      229.16935      386.33954    
 368100000   121.3844       224.41266      378.32059    
 368110000   76.762614      260.78201      439.63297    
 368120000   76.807811      240.96029      406.217      
 368130000   67.405438      241.314        406.8133     
 368140000   85.961106      244.56691      412.29714    
 368150000   80.707098      261.92884      441.56631    
 368160000   92.991593      223.3139       376.46827    
 368170000   95.975251      238.77527      402.53345    
[2025-11-21T15:06:14.006] error: *** JOB 2470462 ON della-i13n25 CANCELLED AT 2025-11-21T15:06:14 DUE TO TIME LIMIT ***
[2025-11-21T15:06:14.006] error: *** STEP 2470462.0 ON della-i13n25 CANCELLED AT 2025-11-21T15:06:14 DUE TO TIME LIMIT ***
