LAMMPS (29 Aug 2024)
  using 1 OpenMP thread(s) per MPI task
  using 1 OpenMP thread(s) per MPI task
Reading data file ...
  orthogonal box = (-500.6 -500.6 -500.6) to (500.6 500.6 500.6)
  1 by 1 by 1 MPI processor grid
  reading atoms ...
  50 atoms
  scanning bonds ...
  1 = max bonds/atom
  scanning angles ...
  1 = max angles/atom
  orthogonal box = (-500.6 -500.6 -500.6) to (500.6 500.6 500.6)
  1 by 1 by 1 MPI processor grid
  reading bonds ...
  49 bonds
  reading angles ...
  48 angles
Finding 1-2 1-3 1-4 neighbors ...
  special bond factors lj:    0        0        0       
  special bond factors coul:  0        0        0       
     2 = max # of 1-2 neighbors
     2 = max # of 1-3 neighbors
     4 = max # of 1-4 neighbors
     6 = max # of special neighbors
  special bonds CPU = 0.000 seconds
  read_data CPU = 0.026 seconds
Finding 1-2 1-3 1-4 neighbors ...
  special bond factors lj:    0        0        1       
  special bond factors coul:  0        0        0       
     2 = max # of 1-2 neighbors
     2 = max # of 1-3 neighbors
     4 = max # of 1-4 neighbors
     6 = max # of special neighbors
  special bonds CPU = 0.000 seconds

CITE-CITE-CITE-CITE-CITE-CITE-CITE-CITE-CITE-CITE-CITE-CITE-CITE

Your simulation uses code contributions which should be cited:
- Type Label Framework: https://doi.org/10.1021/acs.jpcb.3c08419
The log file lists these citations in BibTeX format.

CITE-CITE-CITE-CITE-CITE-CITE-CITE-CITE-CITE-CITE-CITE-CITE-CITE

Generated 0 of 6 mixed pair_coeff terms from geometric mixing rule
Neighbor list info ...
  update: every = 10 steps, delay = 0 steps, check = yes
  max neighbors/atom: 2000, page size: 100000
  master list distance cutoff = 33
  ghost atom cutoff = 33
  binsize = 16.5, bins = 61 61 61
  2 neighbor lists, perpetual/occasional/extra = 2 0 0
  (1) pair lj/cut, perpetual, trim from (2)
      attributes: half, newton on, cut 25
      pair build: trim
      stencil: none
      bin: none
  (2) pair base/rna, perpetual
      attributes: half, newton on
      pair build: half/bin/newton
      stencil: half/bin/3d
      bin: standard
Setting up Verlet run ...
  Unit style    : real
  Current step  : 0
  Time step     : 10
Per MPI rank memory allocation (min/avg/max) = 8.368 | 8.368 | 8.368 Mbytes
   Step         PotEng         KinEng          Temp     
         0   65.797361      0              0            
     10000   30.38277       53.495496      366.25776    
     20000   36.600655      39.531233      270.65121    
     30000   26.03807       43.908976      300.6235     
     40000   27.482711      42.080959      288.10796    
     50000   29.199455      52.920844      362.3234     
     60000   34.422472      46.517954      318.48591    
     70000   35.041161      48.379122      331.22843    
     80000   30.659837      37.87864       259.33671    
     90000   27.107261      46.261455      316.72978    
    100000   27.810887      40.710226      278.72321    
    110000   25.747061      44.263855      303.05319    
    120000   32.186558      45.478474      311.36909    
    130000   23.59337       48.305459      330.72409    
    140000   26.491608      50.793325      347.7573     
    150000   10.12889       41.596594      284.79174    
    160000   12.085938      39.867586      272.95406    
    170000   14.05106       42.286967      289.51839    
    180000   1.5307837      57.034243      390.48585    
    190000   12.886925      42.389635      290.22131    
    200000   12.470027      45.17861       309.31607    
    210000   13.731387      40.85067       279.68476    
    220000   2.3834488      46.506274      318.40594    
    230000   7.9211516      46.934062      321.3348     
    240000   16.004073      35.36003       242.09301    
    250000   4.8249003      50.193666      343.65173    
    260000   19.731939      42.697526      292.32929    
    270000   18.826386      44.855677      307.1051     
    280000   19.929641      47.228528      323.35087    
    290000   16.514833      46.321313      317.1396     
    300000   3.8971394      50.137639      343.26814    
    310000   14.682234      41.888322      286.78906    
    320000   15.975217      38.743844      265.26034    
    330000   1.8972049      42.689044      292.27121    
    340000  -1.1919314      43.390159      297.07141    
    350000   4.9385384      38.043424      260.46491    
    360000   12.231203      50.844171      348.10542    
    370000   9.1240779      37.349368      255.71304    
    380000   10.583281      38.954333      266.70146    
    390000   1.0018777      42.682118      292.2238     
    400000   2.0170611      39.162675      268.12787    
    410000   6.6636775      44.44852       304.3175     
    420000   1.7459996      43.902755      300.58091    
    430000  -5.7897829      45.915336      314.36008    
    440000  -1.3686201      45.013773      308.18751    
    450000   13.450459      32.337156      221.39685    
    460000   1.190421       43.165534      295.53352    
    470000   13.537559      38.098393      260.84125    
    480000   0.071377485    42.402131      290.30686    
    490000  -0.18425983     44.256169      303.00056    
    500000   6.7390139      40.332595      276.13775    
    510000   0.28143159     36.780433      251.81781    
    520000  -2.993373       45.330185      310.35383    
    530000   1.4750136      42.057923      287.95024    
    540000  -1.3065981      54.298447      371.75518    
    550000   4.7167481      43.889712      300.49161    
    560000   1.9701652      44.293975      303.2594     
    570000   2.9252475      37.704651      258.14549    
    580000   1.5752793      41.825645      286.35994    
    590000   9.9569111      43.212974      295.85831    
    600000   2.2199683      40.3543        276.28635    
    610000   5.6044722      48.780438      333.97604    
    620000   6.1897348      48.986044      335.38372    
    630000   21.756887      41.365025      283.2063     
    640000   18.03473       48.013237      328.72339    
    650000   10.650027      35.346595      242.00102    
    660000   4.5993656      37.406065      256.10122    
    670000   6.9134811      38.721019      265.10407    
    680000  -0.88457439     36.646497      250.90082    
    690000  -2.8461491      43.113424      295.17674    
    700000   10.364685      41.186483      281.98391    
    710000   9.0188457      43.523335      297.98321    
    720000   3.7895596      37.158613      254.40704    
    730000   0.94455314     44.919995      307.54546    
    740000   3.1731764      45.119749      308.91308    
    750000  -0.97538958     41.331154      282.9744     
    760000  -4.1496315      44.182368      302.49528    
    770000   0.88018221     42.676477      292.18518    
    780000   13.197615      36.578989      250.43863    
    790000   8.7151103      50.458772      345.46678    
    800000   10.257291      37.216211      254.80138    
    810000   2.7073148      44.498984      304.663      
    820000   15.616645      37.122235      254.15797    
    830000   16.795588      49.985944      342.22956    
    840000   7.4046015      50.01315       342.41582    
    850000   17.726539      43.161128      295.50335    
    860000   1.4652749      49.943866      341.94147    
    870000   24.09035       32.489609      222.44062    
    880000   15.436369      47.162293      322.89738    
    890000   13.121123      50.061526      342.74703    
    900000   8.4225767      42.145009      288.54647    
    910000   13.656005      52.096221      356.6776     
    920000   16.473972      44.65045       305.70001    
    930000   3.4242797      56.089131      384.01513    
    940000   2.915824       46.979122      321.6433     
    950000   13.289477      43.309032      296.51597    
    960000   12.084503      36.818996      252.08184    
    970000   8.7211426      41.488424      284.05115    
    980000   15.02356       44.462165      304.41092    
    990000   30.380332      39.826593      272.6734     
   1000000   40.323144      45.151135      309.12796    
   1010000   42.455663      45.363292      310.5805     
   1020000   31.693762      43.981915      301.12288    
   1030000   32.187781      44.87633       307.2465     
   1040000   29.181175      53.632339      367.19466    
   1050000   28.865987      44.180247      302.48076    
   1060000   26.080395      44.162129      302.35671    
   1070000   28.733759      48.359683      331.09533    
   1080000   27.817106      43.223231      295.92853    
   1090000   24.999923      44.155681      302.31257    
   1100000   24.556178      34.318563      234.96259    
   1110000   27.671852      42.985035      294.29773    
   1120000   24.186718      49.80833       341.01352    
   1130000   26.882385      49.116605      336.27762    
   1140000   28.946921      45.859372      313.97692    
   1150000   25.477544      38.454002      263.27594    
   1160000   12.459919      47.363349      324.27392    
   1170000   19.204023      44.935739      307.65325    
   1180000   10.734201      44.001608      301.2577     
   1190000   20.021541      41.654899      285.19093    
   1200000   10.310539      38.113396      260.94397    
   1210000   4.7401114      39.709398      271.87103    
   1220000  -0.5113948      47.688124      326.4975     
   1230000   7.2098078      41.839416      286.45422    
   1240000   0.28902939     44.889356      307.33569    
   1250000  -4.7035989      48.544431      332.36022    
   1260000  -11.871276      42.941467      293.99944    
   1270000  -11.225999      46.666797      319.50497    
   1280000  -15.827432      49.068609      335.94901    
   1290000  -19.396         37.668677      257.89919    
   1300000  -25.041674      38.960029      266.74046    
   1310000  -11.52209       44.427425      304.17307    
   1320000  -9.8939691      34.639586      237.16047    
   1330000  -10.874248      42.39613       290.26578    
   1340000   8.9628398      53.755741      368.03954    
   1350000   5.8318267      43.600573      298.51202    
   1360000   8.3338751      50.564541      346.19093    
   1370000   3.9519962      47.143298      322.76734    
   1380000   6.6317656      45.069052      308.56598    
   1390000  -3.612124       49.905083      341.67595    
   1400000   2.2368311      45.506314      311.5597     
   1410000   2.2069028      41.042777      281.00003    
   1420000   0.32989821     43.100272      295.0867     
   1430000  -7.8419449      49.46989       338.69639    
   1440000   1.4723272      42.497616      290.9606     
   1450000   3.5057957      35.652223      244.09351    
   1460000   0.78390451     38.058968      260.57133    
   1470000   0.24967485     41.230188      282.28313    
   1480000   13.465202      39.785041      272.38892    
   1490000   4.4923122      44.838727      306.98906    
   1500000   2.9749546      37.657015      257.81935    
   1510000  -0.20568156     45.444628      311.13736    
   1520000  -3.7395162      47.0352        322.02724    
   1530000  -5.8992444      42.060087      287.96505    
   1540000  -15.442137      36.772162      251.76119    
   1550000  -14.613218      43.894884      300.52702    
   1560000  -6.4758275      44.436562      304.23563    
   1570000  -4.1505556      34.457538      235.91408    
   1580000  -6.2836491      42.689271      292.27277    
   1590000   1.7197848      40.640146      278.24341    
   1600000   1.9243929      38.605287      264.31171    
   1610000  -7.7504173      53.021029      363.00931    
   1620000  -1.0648113      47.207297      323.20551    
   1630000   0.98711602     44.564024      305.1083     
   1640000   14.773862      36.976018      253.15689    
   1650000   6.7753468      46.751005      320.08149    
   1660000  -1.4191829      43.388815      297.06221    
   1670000   1.4886689      50.139981      343.28418    
   1680000   5.7685477      51.976924      355.86084    
   1690000   16.160661      52.824631      361.66468    
   1700000   1.0789072      48.260196      330.4142     
   1710000   0.59659905     42.900308      293.71764    
   1720000  -12.319716      42.840133      293.30565    
   1730000  -6.7674505      37.798011      258.78468    
   1740000  -17.946254      38.60667       264.32118    
   1750000  -16.063988      40.114873      274.64711    
   1760000  -22.964827      42.368611      290.07736    
   1770000  -11.9928        40.176108      275.06636    
   1780000  -6.8728725      45.786083      313.47514    
   1790000  -10.177424      50.57609       346.27       
   1800000   0.39399198     45.979032      314.79617    
   1810000   4.0400896      52.187539      357.30282    
   1820000  -0.91845334     47.908131      328.00378    
   1830000   3.715932       41.832791      286.40886    
   1840000   7.5815314      49.548912      339.23741    
   1850000  -2.846426       51.207315      350.59169    
   1860000  -15.608753      55.945104      383.02904    
   1870000   8.7969566      35.042352      239.91802    
   1880000   0.32395142     41.27786       282.60952    
   1890000  -10.916033      44.453735      304.3532     
   1900000  -5.9104627      44.343505      303.59851    
   1910000  -2.9221006      40.950552      280.36861    
   1920000   2.7665187      41.542752      284.42311    
   1930000  -2.6731864      42.149494      288.57718    
   1940000  -5.7975658      40.115303      274.65006    
   1950000  -3.0155455      43.273663      296.27382    
   1960000  -16.737362      43.338651      296.71876    
   1970000  -2.0303521      45.023186      308.25196    
   1980000   18.116596      43.672062      299.00147    
   1990000   10.197375      55.073393      377.06086    
   2000000   13.797256      52.512256      359.52599    
   2010000   17.147435      43.180366      295.63506    
   2020000   2.6006926      50.04397       342.62684    
   2030000   8.7298595      35.775764      244.93934    
   2040000   9.2661366      49.086844      336.07386    
   2050000   5.9168738      40.361393      276.33491    
   2060000   0.51029492     40.941221      280.30472    
   2070000   10.406929      44.06036       301.65995    
   2080000  -7.2608225      48.323999      330.85102    
   2090000   13.804283      34.774842      238.08651    
   2100000   17.321952      40.227169      275.41595    
   2110000   19.027038      45.712533      312.97158    
   2120000   15.842972      45.475799      311.35078    
   2130000   9.4778122      52.15546       357.08318    
   2140000   23.222743      42.15573       288.61988    
   2150000   21.629138      50.889335      348.41464    
   2160000   13.985248      50.948658      348.82079    
   2170000   20.116333      45.27665       309.9873     
   2180000   12.94562       44.965147      307.85459    
   2190000   10.208739      44.177858      302.46441    
   2200000   10.537085      40.696622      278.63007    
   2210000   1.0807974      50.501103      345.7566     
   2220000   2.2073414      44.3018        303.31298    
   2230000   6.6225971      33.965821      232.54754    
   2240000   4.1934069      43.648176      298.83793    
   2250000   6.8711683      37.170985      254.49174    
   2260000   5.2232281      50.32552       344.55447    
   2270000   6.0303226      47.183953      323.04568    
   2280000   16.088956      45.496834      311.4948     
   2290000   14.0363        43.473523      297.64217    
   2300000   10.579962      46.634403      319.28318    
   2310000   26.693579      46.561028      318.78081    
   2320000   27.135511      39.958438      273.57608    
   2330000   9.3977919      45.066491      308.54844    
   2340000  -9.3686201      52.136117      356.95075    
   2350000   5.4097058      39.185104      268.28143    
   2360000   2.6614117      41.574541      284.64075    
   2370000   0.264278       48.849285      334.44741    
   2380000  -8.6190156      50.072283      342.82068    
   2390000  -9.8126502      46.616994      319.16399    
   2400000  -2.9612558      46.2126        316.3953     
   2410000   3.041978       48.828506      334.30514    
   2420000   5.0124375      45.54034       311.79266    
   2430000   9.3783397      37.467823      256.52404    
   2440000   1.4510307      49.061543      335.90063    
   2450000   3.4338149      43.023894      294.56377    
   2460000  -1.330691       41.388061      283.36402    
   2470000  -3.4563689      50.409313      345.12816    
   2480000  -0.040904078    39.474696      270.26413    
   2490000   1.3827291      47.760888      326.99568    
   2500000   4.0885849      47.687396      326.49251    
   2510000   4.6818184      44.147615      302.25735    
   2520000   7.1974942      46.346771      317.3139     
   2530000   0.0069940923   45.776331      313.40838    
   2540000   5.3728729      45.165976      309.22957    
   2550000   0.26222667     45.094319      308.73897    
   2560000  -2.6159956      40.78751       279.25233    
   2570000  -11.30764       45.624361      312.36791    
   2580000  -9.9346271      33.126693      226.80243    
   2590000  -17.003589      46.719238      319.864      
   2600000  -25.794031      49.605194      339.62275    
   2610000  -7.495892       49.24756       337.1742     
   2620000  -8.8425612      44.408476      304.04333    
   2630000  -2.7816164      51.528526      352.79087    
   2640000   1.9396691      47.248165      323.48531    
   2650000  -3.5583854      42.587207      291.57399    
   2660000   2.5844651      46.437113      317.93243    
   2670000  -2.9161837      50.514251      345.84662    
   2680000  -8.6678687      49.530824      339.11357    
   2690000   0.93088553     44.77822       306.57479    
   2700000  -4.9101791      59.143934      404.92988    
   2710000  -0.39246629     48.408771      331.43141    
   2720000  -7.3456982      38.088888      260.77618    
   2730000  -13.213523      43.196493      295.74548    
   2740000  -4.9470356      45.963929      314.69277    
   2750000  -7.1612684      42.058583      287.95475    
   2760000  -9.6029556      51.698656      353.95567    
   2770000   0.32964009     47.474765      325.03673    
   2780000  -1.4361185      45.790137      313.5029     
   2790000  -0.60305741     36.129401      247.36052    
   2800000  -1.2995741      39.114425      267.79753    
   2810000   4.7242766      39.993569      273.81661    
   2820000  -15.507449      44.407261      304.03501    
   2830000  -21.191517      46.936378      321.35066    
   2840000  -5.2113212      34.303355      234.85846    
   2850000  -12.449345      38.923722      266.49188    
   2860000  -8.496925       32.640923      223.47659    
   2870000  -5.9594341      27.92386       191.18115    
   2880000  -19.542994      40.971259      280.51037    
   2890000  -16.520579      47.275856      323.67489    
   2900000  -12.289861      58.069204      397.57173    
   2910000   6.4639609      42.926169      293.8947     
   2920000  -7.2005218      38.997041      266.99386    
   2930000  -7.9596504      44.430588      304.19472    
   2940000   5.2429578      39.174427      268.20833    
   2950000  -2.3228949      50.53219       345.96944    
   2960000  -3.8492376      40.159034      274.94947    
   2970000   11.694098      41.566094      284.58292    
   2980000   9.9635324      48.335214      330.92781    
   2990000   8.5071367      42.863716      293.46711    
   3000000   6.3405601      41.98828       287.47342    
   3010000   3.516666       50.438456      345.32769    
   3020000   2.9431572      37.730329      258.3213     
   3030000  -0.80751716     45.395418      310.80045    
   3040000  -0.548365       47.626979      326.07887    
   3050000   6.2542861      43.802062      299.89151    
   3060000  -6.2192328      50.914974      348.59018    
   3070000  -2.6067225      40.98101       280.57713    
   3080000  -17.725511      47.074122      322.29372    
   3090000  -1.0782033      40.282971      275.798      
   3100000  -3.8091431      50.635557      346.67714    
   3110000  -1.1169474      37.148207      254.33579    
   3120000  -4.8881631      43.034705      294.63779    
   3130000   1.2164203      36.221117      247.98845    
   3140000   1.956075       42.679437      292.20544    
   3150000  -9.3716213      41.651336      285.16653    
   3160000  -8.7573954      44.429117      304.18465    
   3170000  -12.363781      38.237531      261.79386    
   3180000  -7.2728524      37.149677      254.34585    
   3190000  -10.767102      41.069511      281.18306    
   3200000  -5.8508288      41.902158      286.88379    
   3210000  -6.0414665      39.797826      272.47645    
   3220000  -9.500318       39.985608      273.7621     
   3230000  -3.8999656      47.474506      325.03495    
   3240000  -0.43703927     45.836765      313.82214    
   3250000   2.3878664      45.070033      308.5727     
   3260000   1.4891348      45.817053      313.68718    
   3270000  -2.9878173      38.639772      264.54781    
   3280000  -3.7758884      37.170185      254.48626    
   3290000  -1.2375104      34.54745       236.52966    
   3300000  -5.3818462      40.168255      275.0126     
   3310000  -4.2486436      38.052537      260.5273     
   3320000  -0.33239436     45.253647      309.82981    
   3330000   14.308814      54.083125      370.28097    
   3340000   16.821412      50.444231      345.36723    
   3350000   18.662386      47.157753      322.8663     
   3360000   13.16486       50.164994      343.45543    
   3370000   2.436714       52.162581      357.13194    
   3380000   11.244864      43.379506      296.99848    
   3390000   6.9951759      44.564974      305.1148     
   3400000   5.2248981      40.756505      279.04006    
   3410000  -9.1798678      40.514012      277.37983    
   3420000   0.01458931     53.235553      364.47805    
   3430000   2.2406541      43.145609      295.3971     
   3440000   8.4829684      55.605228      380.70207    
   3450000   0.064609666    38.354379      262.59386    
   3460000  -0.39121901     50.480003      345.61214    
   3470000   3.5407318      42.571173      291.46421    
   3480000  -6.7868334      39.734406      272.04224    
   3490000  -4.3099587      51.850923      354.99817    
   3500000   3.3283957      40.73323       278.88071    
   3510000  -11.370641      41.152247      281.74951    
   3520000  -5.0541771      43.026184      294.57945    
   3530000   3.4985602      42.664511      292.10325    
   3540000   1.5629707      47.736094      326.82593    
   3550000   1.2695879      47.19881       323.1474     
   3560000  -5.3158411      42.697222      292.32721    
   3570000   2.723075       46.387407      317.59211    
   3580000  -4.1458382      51.436062      352.15781    
   3590000   8.6218399      39.85197       272.84714    
   3600000   6.5307473      39.711457      271.88512    
   3610000  -6.3566704      41.05724       281.09904    
   3620000  -10.547753      41.814309      286.28233    
   3630000  -8.4137172      40.577276      277.81296    
   3640000  -10.232098      40.739654      278.92469    
   3650000  -18.450033      46.609707      319.1141     
   3660000  -4.0137832      37.025963      253.49884    
   3670000  -10.443309      51.856692      355.03766    
   3680000  -14.925119      42.494354      290.93827    
   3690000  -3.8723038      43.981378      301.1192     
   3700000   4.3235041      40.403563      276.62363    
   3710000  -11.687333      43.27285       296.26825    
   3720000  -8.4484805      49.143476      336.46159    
   3730000  -2.9716577      38.405759      262.94564    
   3740000  -3.521378       47.105716      322.51003    
   3750000   2.9164962      39.671279      271.61004    
   3760000  -6.4906917      41.906766      286.91534    
   3770000  -8.5781652      41.184925      281.97324    
   3780000  -1.9978607      32.324507      221.31025    
   3790000  -5.9549374      44.224179      302.78154    
   3800000  -10.418632      50.573191      346.25015    
   3810000  -5.2173668      42.06118       287.97254    
   3820000  -11.538938      48.681645      333.29965    
   3830000  -10.928755      42.817546      293.15101    
   3840000  -10.984743      54.776742      375.02983    
   3850000  -1.1903613      36.641211      250.86464    
   3860000  -8.5872823      41.460457      283.85968    
   3870000  -20.145203      45.07901       308.63416    
   3880000  -17.189043      47.812208      327.34704    
   3890000  -7.8039354      43.159889      295.49487    
   3900000  -14.986618      45.605632      312.23969    
   3910000  -6.5493129      39.963793      273.61274    
   3920000  -18.799587      52.596972      360.106      
   3930000  -5.6696131      45.713031      312.97499    
   3940000   13.315531      46.289127      316.91924    
   3950000   6.6678187      52.833868      361.72792    
   3960000   23.666778      40.161918      274.96921    
   3970000   3.9682724      50.354569      344.75335    
   3980000   2.7752304      43.271154      296.25664    
   3990000  -4.2293255      43.708127      299.24839    
   4000000   2.5227648      46.002573      314.95735    
Loop time of 101.472 on 1 procs for 4000000 steps with 50 atoms

Performance: 34058.728 ns/day, 0.001 hours/ns, 39419.825 timesteps/s, 1.971 Matom-step/s
99.2% CPU use with 1 MPI tasks x 1 OpenMP threads

MPI task timing breakdown:
Section |  min time  |  avg time  |  max time  |%varavg| %total
---------------------------------------------------------------
Pair    | 83.075     | 83.075     | 83.075     |   0.0 | 81.87
Bond    | 10.101     | 10.101     | 10.101     |   0.0 |  9.95
Neigh   | 1.2026     | 1.2026     | 1.2026     |   0.0 |  1.19
Comm    | 1.6896     | 1.6896     | 1.6896     |   0.0 |  1.67
Output  | 0.061273   | 0.061273   | 0.061273   |   0.0 |  0.06
Modify  | 4.7636     | 4.7636     | 4.7636     |   0.0 |  4.69
Other   |            | 0.5788     |            |       |  0.57

Nlocal:             50 ave          50 max          50 min
Histogram: 1 0 0 0 0 0 0 0 0 0
Nghost:              0 ave           0 max           0 min
Histogram: 1 0 0 0 0 0 0 0 0 0
Neighs:            299 ave         299 max         299 min
Histogram: 1 0 0 0 0 0 0 0 0 0

Total # of neighbors = 299
Ave neighs/atom = 5.98
Ave special neighs/atom = 5.76
Neighbor list builds = 8542
Dangerous builds = 0
Generated 0 of 6 mixed pair_coeff terms from geometric mixing rule
Setting up Verlet run ...
  Unit style    : real
  Current step  : 4000000
  Time step     : 10
Per MPI rank memory allocation (min/avg/max) = 9.625 | 9.625 | 9.625 Mbytes
   Step         PotEng         KinEng          Temp     
   4000000   2.5227648      46.002573      314.95735    
   4010000  -6.3329396      40.48423       277.17593    
   4020000  -8.8266109      43.187878      295.68649    
   4030000  -8.7224578      46.671239      319.53538    
   4040000   0.69705355     47.906866      327.99512    
   4050000   1.2090845      47.649063      326.23007    
   4060000   5.3564811      43.683075      299.07686    
   4070000  -14.819259      49.496237      338.87677    
   4080000  -2.1622673      47.7067        326.62468    
   4090000  -1.3683575      45.022094      308.24448    
   4100000  -2.3020451      49.036271      335.72761    
   4110000  -5.9844389      43.369107      296.92728    
   4120000   1.6529218      46.031767      315.15722    
   4130000  -1.5538263      57.506143      393.71672    
   4140000   12.043373      47.816488      327.37634    
   4150000   7.5802291      41.389435      283.37342    
   4160000   5.4250183      45.177312      309.30718    
   4170000   0.71882995     50.159178      343.41561    
   4180000   8.9393137      45.249866      309.80393    
   4190000   10.537472      44.177648      302.46297    
   4200000   9.7707752      41.141244      281.67418    
   4210000   10.649846      45.585825      312.10407    
   4220000   7.1156596      39.115625      267.80575    
   4230000   8.0648385      44.570634      305.15355    
   4240000   5.8404127      41.50975       284.19716    
   4250000   0.49431449     43.81265       299.964      
   4260000   2.3171701      48.708599      333.4842     
   4270000   4.9997793      46.855322      320.7957     
   4280000   9.5994978      44.257668      303.01083    
   4290000   7.1945377      56.864709      389.32513    
   4300000   7.9062099      45.180093      309.32623    
   4310000   9.9012162      37.730271      258.3209     
   4320000   8.8177678      48.081166      329.18846    
   4330000   1.4404659      48.414213      331.46867    
   4340000   7.5204193      37.292316      255.32243    
   4350000   7.1828604      38.139586      261.12328    
   4360000   8.5520508      41.748304      285.83042    
   4370000   4.6585902      41.550471      284.47596    
   4380000   6.7393773      41.123171      281.55044    
   4390000   8.4795881      40.975496      280.53938    
   4400000   4.3403685      37.451105      256.40959    
   4410000  -8.8609083      39.79262       272.4408     
   4420000  -13.265704      51.516178      352.70633    
   4430000  -14.794948      45.677467      312.7315     
   4440000   0.71519051     44.458907      304.38861    
   4450000   12.994177      40.727546      278.84179    
   4460000   6.6918063      48.798976      334.10296    
   4470000   10.543825      37.509277      256.80786    
   4480000   8.7154437      48.586503      332.64826    
   4490000   8.6285391      42.517312      291.09545    
   4500000   11.654731      43.283046      296.33806    
   4510000   11.879026      50.32611       344.55851    
   4520000   16.613419      42.324882      289.77797    
   4530000   18.569536      44.344996      303.60872    
   4540000   18.624997      39.571317      270.92565    
   4550000   19.212436      56.014295      383.50276    
   4560000   9.4900885      45.999713      314.93776    
   4570000   23.563642      38.38483       262.80235    
   4580000   14.265016      58.059406      397.50464    
   4590000   21.846504      45.356963      310.53717    
   4600000   17.811413      45.833051      313.79671    
   4610000   26.623659      41.330032      282.96672    
   4620000   26.31448       57.95971       396.82207    
   4630000   22.600094      51.752954      354.32742    
   4640000   13.934745      49.986685      342.23463    
   4650000   19.400653      44.993809      308.05083    
   4660000   18.051603      44.444145      304.28755    
   4670000   15.954257      61.950896      424.14779    
   4680000   14.238168      47.74382       326.87882    
   4690000   20.661972      42.452318      290.65047    
   4700000   27.024336      39.147212      268.02201    
   4710000   23.791558      43.767378      299.65405    
   4720000   20.750154      40.423707      276.76155    
   4730000   15.475481      37.523823      256.90745    
   4740000   1.860891       59.207786      405.36704    
   4750000   10.419314      41.74804       285.82862    
   4760000   9.1438849      48.25879       330.40457    
   4770000   16.050098      40.121815      274.69464    
   4780000   21.604198      37.825239      258.9711     
   4790000   13.575411      54.603289      373.84228    
   4800000   16.070505      48.900696      334.79939    
   4810000   15.53775       48.383415      331.25781    
   4820000   25.353795      54.774046      375.01137    
   4830000   36.3856        55.934035      382.95326    
   4840000   41.4242        59.080697      404.49693    
   4850000   30.211435      53.442639      365.89588    
   4860000   24.733169      44.897065      307.38847    
   4870000   16.262871      43.803475      299.90118    
   4880000   25.009379      46.441336      317.96134    
   4890000   29.254169      50.127698      343.20008    
   4900000   16.828832      42.964704      294.15853    
   4910000   9.766775       45.068138      308.55972    
   4920000   15.399443      53.109621      363.61587    
   4930000   2.1267874      43.505946      297.86415    
   4940000   7.7729805      43.516762      297.9382     
   4950000   11.263993      34.818542      238.3857     
   4960000   7.2196707      42.818265      293.15593    
   4970000   22.313513      47.208638      323.21469    
   4980000   8.2232301      44.437718      304.24354    
   4990000   22.714874      49.807353      341.00683    
   5000000   12.653964      50.368674      344.84993    
   5010000   15.23485       42.634309      291.89647    
   5020000   19.772501      42.174223      288.74649    
   5030000   21.122517      54.429142      372.64998    
   5040000   22.094794      45.440465      311.10886    
   5050000   24.736596      48.105361      329.35412    
   5060000   18.297714      56.204873      384.80755    
   5070000   24.932677      54.345251      372.07562    
   5080000   32.543467      61.845879      423.42879    
   5090000   27.931176      46.339466      317.26389    
   5100000   35.890223      51.417977      352.034      
   5110000   30.460552      55.396974      379.27626    
   5120000   30.637135      50.842425      348.09347    
   5130000   38.752292      52.68587       360.71464    
   5140000   29.970719      58.951221      403.61047    
   5150000   33.423041      41.19366       282.03305    
   5160000   35.634886      49.593503      339.5427     
   5170000   37.66133       46.063645      315.37548    
   5180000   33.180515      50.737612      347.37586    
   5190000   32.570436      51.804266      354.67873    
   5200000   29.975651      51.871855      355.14148    
   5210000   34.675424      48.19485       329.9668     
   5220000   31.558903      52.102612      356.72136    
   5230000   33.056902      41.456373      283.83171    
   5240000   29.584485      44.004591      301.27813    
   5250000   28.014125      55.802431      382.05223    
   5260000   33.047465      47.538491      325.47303    
   5270000   16.509286      41.838443      286.44756    
   5280000   14.847714      43.81174       299.95777    
   5290000   16.281588      52.086813      356.61319    
   5300000   21.818258      40.524904      277.4544     
   5310000   28.375176      36.017552      246.59474    
   5320000   28.275801      55.031149      376.77163    
   5330000   29.604793      38.660006      264.68634    
   5340000   27.805806      47.568576      325.67901    
   5350000   20.737699      48.54496       332.36384    
   5360000   18.773197      55.908695      382.77976    
   5370000   18.163678      56.385409      386.0436     
   5380000   29.279689      46.190066      316.24102    
   5390000   31.420332      45.481224      311.38792    
   5400000   14.774272      44.340472      303.57774    
   5410000   15.574361      49.482465      338.78248    
   5420000   12.865294      56.118443      384.21581    
   5430000   3.8038178      54.765915      374.95571    
   5440000  -1.7192301      44.491873      304.61432    
   5450000   3.503847       43.409192      297.20172    
   5460000   6.0246349      54.380966      372.32015    
   5470000   9.5423752      46.469939      318.15718    
   5480000  -4.405331       53.387866      365.52087    
   5490000   10.720819      57.341387      392.58872    
   5500000   24.518234      45.051932      308.44877    
   5510000   30.532855      51.676277      353.80245    
   5520000   25.197692      57.2761        392.14172    
   5530000   25.712441      51.730545      354.174      
   5540000   24.016497      49.242733      337.14115    
   5550000   24.523086      43.230774      295.98018    
   5560000   28.322403      52.896584      362.1573     
   5570000   30.429762      49.848285      341.28707    
   5580000   24.830759      46.497451      318.34553    
   5590000   27.53923       43.589871      298.43875    
   5600000   34.334931      49.097526      336.14699    
   5610000   21.858371      49.976977      342.16816    
   5620000   33.44805       44.724818      306.20917    
   5630000   29.841612      51.989699      355.9483     
   5640000   32.204672      42.146458      288.55639    
   5650000   35.793386      50.317604      344.50027    
   5660000   29.102972      55.702442      381.36765    
   5670000   24.582079      56.706059      388.23893    
   5680000   38.910558      49.007345      335.52956    
   5690000   29.362788      53.342507      365.21032    
   5700000   33.932736      45.452073      311.18834    
   5710000   37.88559       49.542462      339.19325    
   5720000   25.995228      58.013392      397.18961    
   5730000   34.610114      51.670834      353.76518    
   5740000   32.290817      53.226013      364.41274    
   5750000   32.65048       51.809545      354.71487    
   5760000   33.988829      47.854424      327.63607    
   5770000   28.022505      53.815251      368.44697    
   5780000   34.674688      43.701394      299.20228    
   5790000   34.570706      57.385408      392.89011    
   5800000   32.460116      61.871058      423.60118    
   5810000   25.052539      49.577014      339.42981    
   5820000   23.813223      53.192023      364.18003    
   5830000   32.145131      54.35089       372.11423    
   5840000   28.858796      50.836568      348.05337    
   5850000   34.464818      49.421599      338.36576    
   5860000   25.244707      64.018443      438.30328    
   5870000   26.634864      48.434458      331.60728    
   5880000   36.545784      46.641344      319.3307     
   5890000   31.520772      50.908288      348.5444     
   5900000   30.294904      44.564986      305.11489    
   5910000   28.64247       51.59972       353.2783     
   5920000   29.084699      58.139765      398.05482    
   5930000   37.483645      42.059379      287.96021    
   5940000   30.565691      49.310046      337.60201    
   5950000   39.455538      48.803719      334.13544    
   5960000   39.950589      46.533119      318.58973    
   5970000   42.131851      50.804554      347.83418    
   5980000   40.081695      53.54935       366.62648    
   5990000   37.617848      41.903646      286.89398    
   6000000   30.945808      51.921766      355.48319    
   6010000   41.902375      55.960112      383.1318     
   6020000   41.907333      57.691459      394.98549    
   6030000   30.926704      58.392124      399.7826     
   6040000   28.968799      55.261752      378.35046    
   6050000   28.659207      49.979258      342.18378    
   6060000   31.800204      49.617084      339.70415    
   6070000   34.518781      53.394359      365.56533    
   6080000   30.527687      56.432908      386.3688     
   6090000   28.957564      53.360471      365.33331    
   6100000   36.233181      49.353153      337.89714    
   6110000   24.755551      58.451411      400.18851    
   6120000   36.119895      54.85697       375.57912    
   6130000   36.188913      55.989978      383.33627    
   6140000   32.249345      55.577146      380.50981    
   6150000   30.36125       53.159588      363.95797    
   6160000   36.958334      53.070916      363.35086    
   6170000   33.232583      42.120223      288.37677    
   6180000   31.376551      54.746793      374.82478    
   6190000   26.212644      48.928495      334.98971    
   6200000   36.733172      64.00433       438.20666    
   6210000   38.430654      49.571237      339.39026    
   6220000   30.119221      54.834595      375.42592    
   6230000   35.421724      56.241217      385.05638    
   6240000   31.059662      49.591049      339.5259     
   6250000   34.855313      53.364369      365.36       
   6260000   38.335969      50.349492      344.71859    
   6270000   42.679918      45.17356       309.2815     
   6280000   25.781301      49.637018      339.84063    
   6290000   20.648603      50.50951       345.81416    
   6300000   24.172824      52.537942      359.70185    
   6310000   30.870352      47.724245      326.7448     
   6320000   28.94922       45.204114      309.49068    
   6330000   15.114747      62.052353      424.84242    
   6340000   26.663815      57.887926      396.3306     
   6350000   33.824361      57.028577      390.44706    
   6360000   28.620315      52.943809      362.48063    
   6370000   21.831122      42.364757      290.05098    
   6380000   19.68956       46.622948      319.20476    
   6390000   34.595533      40.537321      277.53941    
   6400000   12.031538      53.230643      364.44444    
   6410000   27.955911      48.061937      329.05681    
   6420000   27.981052      40.245426      275.54095    
   6430000   32.063187      45.327195      310.33336    
   6440000   32.611798      41.267885      282.54123    
   6450000   29.040497      40.950406      280.3676     
   6460000   29.615         53.684851      367.55419    
   6470000   30.940034      56.393528      386.09918    
   6480000   19.770137      60.738027      415.84386    
   6490000   33.848141      60.038242      411.05278    
   6500000   25.031948      52.287288      357.98575    
   6510000   39.540395      45.27685       309.98867    
   6520000   37.940182      56.215921      384.8832     
   6530000   30.849134      65.165166      446.15434    
   6540000   34.357161      53.249433      364.57309    
   6550000   42.391552      58.198493      398.45691    
   6560000   37.09913       61.464599      420.81835    
   6570000   33.803325      51.294666      351.18975    
   6580000   34.589488      60.191794      412.10407    
   6590000   30.609138      46.595036      319.01365    
   6600000   33.702166      53.458411      366.00386    
   6610000   25.944413      60.174681      411.98691    
   6620000   31.288707      61.555148      421.4383     
   6630000   32.132168      59.459585      407.09099    
   6640000   37.406659      51.266371      350.99602    
   6650000   28.568326      55.652627      381.02659    
   6660000   27.17925       54.865946      375.64057    
   6670000   38.050711      55.515749      380.08946    
   6680000   31.308982      52.902341      362.19672    
   6690000   29.904001      59.85084       409.76972    
   6700000   20.792809      53.936554      369.27747    
   6710000   27.702236      47.106344      322.51433    
   6720000   38.711759      57.050594      390.5978     
   6730000   21.269018      57.580809      394.22792    
   6740000   15.374859      59.104431      404.65942    
   6750000   27.516351      59.969655      410.58319    
   6760000   33.728714      57.49539       393.6431     
   6770000   44.620877      57.028658      390.44761    
   6780000   38.759015      69.862645      478.31571    
   6790000   35.487705      55.444303      379.6003     
   6800000   28.997931      57.784064      395.61951    
   6810000   33.195416      51.173391      350.35944    
   6820000   35.224594      62.114324      425.26671    
   6830000   26.494809      49.960428      342.05486    
   6840000   43.515583      66.706555      456.70748    
   6850000   24.002913      63.960186      437.90443    
   6860000   35.484212      47.862865      327.69387    
   6870000   39.058808      48.654089      333.11099    
   6880000   32.108314      52.802575      361.51367    
   6890000   37.527007      48.708729      333.48508    
   6900000   34.62193       53.889273      368.95376    
   6910000   40.831039      52.781667      361.37052    
   6920000   34.309053      53.024619      363.0339     
   6930000   47.510614      47.404615      324.55645    
   6940000   29.966475      54.217176      371.19875    
   6950000   32.014154      43.784897      299.77399    
   6960000   38.032958      55.425594      379.47221    
   6970000   27.320615      54.112483      370.48197    
   6980000   32.001299      65.086734      445.61736    
   6990000   34.49314       51.372759      351.72441    
   7000000   28.628614      58.39902       399.82982    
   7010000   31.959991      45.194149      309.42246    
   7020000   28.387549      54.944031      376.17518    
   7030000   37.792492      55.298672      378.60323    
   7040000   36.55619       53.317746      365.04079    
   7050000   33.856781      65.339691      447.34923    
   7060000   42.46353       59.712021      408.8193     
   7070000   31.50288       54.801074      375.19642    
   7080000   33.885658      58.705979      401.93141    
   7090000   34.789457      63.551326      435.10516    
   7100000   29.646485      62.117767      425.29028    
   7110000   34.297535      54.912477      375.95915    
   7120000   32.644179      49.030057      335.68506    
   7130000   28.760915      54.603433      373.84327    
   7140000   21.885725      60.07279       411.28931    
   7150000   35.771329      53.619138      367.10428    
   7160000   13.201668      50.960073      348.89895    
   7170000   22.586606      53.650895      367.3217     
   7180000   23.959867      53.845714      368.65553    
   7190000   17.184214      52.174393      357.21281    
   7200000   24.220368      48.722587      333.57997    
   7210000   30.965278      47.688346      326.49902    
   7220000   28.805299      39.504153      270.46581    
   7230000   36.435496      51.254338      350.91364    
   7240000   37.672048      48.634783      332.97881    
   7250000   31.174318      66.273728      453.74413    
   7260000   37.00613       59.282988      405.88192    
   7270000   28.377675      62.257989      426.25031    
   7280000   36.854267      57.883775      396.30218    
   7290000   32.836712      62.448024      427.55138    
   7300000   30.912066      60.865814      416.71876    
   7310000   31.711253      50.685355      347.01809    
   7320000   25.506401      53.415802      365.71213    
   7330000   37.396403      47.894978      327.91372    
   7340000   45.315576      50.913313      348.5788     
   7350000   31.777849      50.735309      347.36009    
   7360000   37.203446      75.669482      518.07231    
   7370000   36.095072      66.466569      455.06442    
   7380000   39.068285      64.324293      440.39729    
   7390000   29.303874      66.86665       457.80358    
   7400000   47.414148      72.298991      494.99619    
   7410000   37.469185      60.089601      411.40441    
   7420000   40.299766      67.187291      459.99885    
   7430000   38.164807      69.651625      476.87095    
   7440000   34.847837      46.640894      319.32762    
   7450000   34.385984      62.156452      425.55513    
   7460000   36.401319      58.573168      401.02212    
   7470000   43.195367      52.742062      361.09936    
   7480000   35.498785      77.650229      531.63352    
   7490000   45.420816      58.477496      400.3671     
   7500000   33.675771      52.975021      362.69432    
   7510000   35.530794      51.721563      354.1125     
   7520000   27.936002      58.185341      398.36686    
   7530000   35.666889      53.146262      363.86672    
   7540000   37.010191      56.590657      387.44883    
   7550000   43.201109      51.972972      355.83378    
   7560000   31.098136      53.626723      367.15621    
   7570000   41.592078      45.504536      311.54753    
   7580000   38.908883      52.041627      356.30383    
   7590000   27.439654      60.845602      416.58038    
   7600000   39.651701      54.303807      371.79188    
   7610000   32.946656      50.311393      344.45775    
   7620000   32.666688      51.629781      353.48412    
   7630000   32.676151      60.419801      413.66513    
   7640000   41.301096      70.983062      485.98666    
   7650000   42.443457      60.845545      416.57999    
   7660000   36.397183      61.464578      420.81821    
   7670000   32.368118      54.088612      370.31854    
   7680000   41.119133      51.773997      354.47149    
   7690000   34.544259      66.008509      451.9283     
   7700000   43.297042      62.845962      430.27588    
   7710000   47.127207      56.275944      385.29415    
   7720000   32.882548      63.446482      434.38735    
   7730000   40.750448      58.920441      403.39974    
   7740000   37.281039      51.846384      354.96709    
   7750000   35.396217      59.110211      404.699      
   7760000   38.61553       53.965742      369.47731    
   7770000   40.954398      55.43875       379.56228    
   7780000   37.862459      61.64005       422.01958    
   7790000   35.815603      55.065915      377.00966    
   7800000   36.08268       63.211356      432.77755    
   7810000   40.162926      63.738129      436.38411    
   7820000   28.24916       62.9375        430.90259    
   7830000   37.862773      67.436716      461.70655    
   7840000   36.424914      55.214226      378.02508    
   7850000   38.821614      56.167804      384.55376    
   7860000   26.090017      63.957277      437.88451    
   7870000   33.355076      47.044683      322.09217    
   7880000   29.77865       61.666809      422.20279    
   7890000   36.198597      49.647633      339.91331    
   7900000   37.15791       61.496243      421.035      
   7910000   29.902944      65.894528      451.14793    
   7920000   43.642568      65.412376      447.84687    
   7930000   33.429544      70.022235      479.40834    
   7940000   37.614371      61.181401      418.87943    
   7950000   31.884669      62.261137      426.27186    
   7960000   34.987666      59.532924      407.59311    
   7970000   33.200108      65.487078      448.35832    
   7980000   46.37837       64.627288      442.47175    
   7990000   42.34401       66.105233      452.59052    
   8000000   29.472568      63.467642      434.53222    
   8010000   40.57215       60.601296      414.90773    
   8020000   45.005301      57.284452      392.19891    
   8030000   43.637934      53.021018      363.00924    
   8040000   38.835873      63.182732      432.58158    
   8050000   45.34051       59.594857      408.01713    
   8060000   45.399213      53.819553      368.47642    
   8070000   30.371025      62.791738      429.90463    
   8080000   36.358874      63.289074      433.30965    
   8090000   38.877802      54.990249      376.49161    
   8100000   31.898031      52.935256      362.42207    
   8110000   36.144067      53.158728      363.95207    
   8120000   44.598216      58.550252      400.86523    
   8130000   34.245417      54.891369      375.81463    
   8140000   21.12969       53.635513      367.21639    
   8150000   32.010049      50.047013      342.64767    
   8160000   35.015568      55.085917      377.14661    
   8170000   40.154388      69.159027      473.49837    
   8180000   30.807493      64.364464      440.67232    
   8190000   32.233631      48.184143      329.8935     
   8200000   32.767534      52.141144      356.98517    
   8210000   43.219363      49.730433      340.4802     
   8220000   46.314335      59.574747      407.87945    
   8230000   32.016336      68.45242       468.66058    
   8240000   50.986141      64.485022      441.49772    
   8250000   32.23886       53.438367      365.86663    
   8260000   28.997184      49.920328      341.78032    
   8270000   38.0185        49.915892      341.74995    
   8280000   37.566876      54.182994      370.96472    
   8290000   31.101073      47.873792      327.76867    
   8300000   37.892566      72.923413      499.2713     
   8310000   37.549171      55.660032      381.07729    
   8320000   39.330178      51.683624      353.85275    
   8330000   38.407977      54.621498      373.96695    
   8340000   43.791061      58.255526      398.84738    
   8350000   40.290095      59.01112       404.02057    
   8360000   29.966011      63.266489      433.15502    
   8370000   33.637457      61.083608      418.20989    
   8380000   33.990776      60.146438      411.79354    
   8390000   31.892852      60.193429      412.11527    
   8400000   34.69649       63.946728      437.81229    
   8410000   36.018785      63.798132      436.79492    
   8420000   30.937391      59.626617      408.23458    
   8430000   40.720051      52.230081      357.59407    
   8440000   38.459369      64.955772      444.72072    
   8450000   27.820081      64.449334      441.25339    
   8460000   36.209926      55.990184      383.33768    
   8470000   38.978217      56.260906      385.19118    
   8480000   36.757626      58.648814      401.54003    
   8490000   35.580864      63.283322      433.27027    
   8500000   39.52996       58.155474      398.16238    
   8510000   46.160479      67.440293      461.73104    
   8520000   36.898425      68.605805      469.71073    
   8530000   43.776577      57.568713      394.1451     
   8540000   34.539107      78.18316       535.28224    
   8550000   47.696655      62.119424      425.30162    
   8560000   34.950698      62.887105      430.55756    
   8570000   36.562914      51.080883      349.72607    
   8580000   37.339884      56.07467       383.91612    
   8590000   37.489926      69.195977      473.75135    
   8600000   38.808122      72.599953      497.05673    
   8610000   31.607131      60.27533       412.676      
   8620000   38.617555      66.834222      457.58156    
   8630000   37.533075      62.392414      427.17065    
   8640000   45.688311      52.558316      359.84134    
   8650000   44.668573      54.088106      370.31507    
   8660000   43.322413      58.108642      397.84174    
   8670000   40.234501      64.218828      439.67523    
   8680000   42.021478      53.99428       369.67269    
   8690000   38.998725      54.051931      370.0674     
   8700000   35.975478      61.138578      418.58624    
   8710000   35.29939       60.527605      414.40321    
   8720000   40.550408      54.919429      376.00674    
   8730000   38.632892      60.905294      416.98906    
   8740000   44.204773      52.949486      362.51949    
   8750000   45.897048      68.206349      466.97585    
   8760000   40.029845      64.143002      439.15608    
   8770000   27.193826      64.23247       439.76863    
   8780000   38.888682      69.046572      472.72845    
   8790000   41.113027      66.039264      452.13887    
   8800000   38.289214      60.594622      414.86204    
   8810000   36.179029      57.46678       393.44722    
   8820000   32.710541      53.936844      369.27946    
   8830000   32.929872      45.867513      314.03266    
   8840000   38.310044      50.391244      345.00445    
   8850000   39.276493      56.59134       387.45351    
   8860000   41.287997      54.594947      373.78517    
   8870000   38.041033      67.46513       461.90108    
   8880000   46.650074      64.232506      439.76887    
   8890000   41.280991      72.671238      497.54478    
   8900000   42.765196      63.527726      434.94358    
   8910000   23.014821      64.486799      441.50989    
   8920000   34.087927      58.624729      401.37514    
   8930000   32.976679      53.762373      368.08494    
   8940000   44.92374       60.310504      412.91682    
   8950000   47.88531       65.145669      446.02086    
   8960000   31.168075      71.658728      490.61261    
   8970000   38.098854      52.82123       361.64139    
   8980000   44.900437      58.813847      402.66994    
   8990000   44.581893      61.114972      418.42462    
   9000000   41.672962      61.303077      419.71249    
   9010000   42.551761      53.923991      369.19146    
   9020000   39.90048       60.352067      413.20138    
   9030000   52.426832      68.280656      467.48459    
   9040000   39.413922      57.704229      395.07292    
   9050000   31.393958      59.830652      409.63151    
   9060000   49.77383       60.727398      415.7711     
   9070000   43.665092      57.117743      391.05753    
   9080000   44.427984      56.70989       388.26516    
   9090000   46.188605      59.7239        408.90063    
   9100000   35.384367      66.651361      456.3296     
   9110000   45.218513      61.513304      421.15181    
   9120000   47.341435      67.541727      462.4255     
   9130000   41.315454      55.388056      379.2152     
   9140000   29.483794      61.346224      420.00789    
   9150000   36.638458      54.848706      375.52254    
   9160000   36.414052      66.284102      453.81515    
   9170000   32.697713      59.543917      407.66837    
   9180000   28.296437      58.526971      400.70583    
   9190000   18.597958      56.15831       384.48876    
   9200000   12.11193       59.911571      410.18552    
   9210000   24.583588      60.371388      413.33366    
   9220000   35.231376      55.216016      378.03733    
   9230000   32.932592      58.238056      398.72777    
   9240000   42.017196      63.302532      433.40179    
   9250000   29.170426      67.832446      464.41591    
   9260000   26.718402      66.751389      457.01445    
   9270000   36.439987      53.308091      364.97469    
   9280000   39.372045      64.964932      444.78344    
   9290000   37.287338      56.96824       390.03396    
   9300000   42.490992      65.536607      448.69742    
   9310000   37.171718      74.969699      513.28123    
   9320000   48.043844      74.680822      511.30343    
   9330000   45.317909      74.358357      509.09567    
   9340000   44.111208      74.906592      512.84917    
   9350000   40.475271      69.743324      477.49878    
   9360000   21.398576      67.575267      462.65514    
   9370000   34.015564      60.244858      412.46737    
   9380000   34.605254      66.89076       457.96865    
   9390000   49.155312      66.902878      458.05161    
   9400000   54.841909      66.193189      453.19272    
   9410000   36.074378      60.574544      414.72458    
   9420000   32.859503      63.799473      436.8041     
   9430000   44.271458      67.700832      463.51482    
   9440000   38.905164      70.890106      485.35023    
   9450000   29.797543      76.419744      523.20899    
   9460000   47.952494      75.339303      515.81173    
   9470000   41.338725      65.891605      451.12792    
   9480000   31.797823      69.750923      477.5508     
   9490000   44.923365      67.839605      464.46493    
   9500000   40.190348      72.611506      497.13583    
   9510000   45.046824      69.078724      472.94858    
   9520000   39.532734      68.122422      466.40124    
   9530000   46.078358      62.571591      428.39739    
   9540000   46.713683      61.136312      418.57073    
   9550000   44.133009      66.441055      454.88974    
   9560000   43.595851      60.791332      416.20882    
   9570000   46.918928      58.968408      403.72814    
   9580000   33.452288      66.17865       453.09317    
   9590000   35.414722      58.337558      399.40902    
   9600000   35.253664      75.771017      518.76747    
   9610000   44.760648      72.821815      498.57571    
   9620000   37.672242      62.82573       430.13736    
   9630000   48.134906      56.091526      384.03152    
   9640000   38.71903       57.611737      394.43967    
   9650000   38.825283      58.439875      400.10953    
   9660000   46.858294      55.541897      380.26848    
   9670000   42.036952      64.561517      442.02145    
   9680000   42.678657      71.059297      486.50861    
   9690000   31.515014      60.903305      416.97544    
   9700000   29.596833      64.568253      442.06757    
   9710000   28.356598      66.501207      455.30157    
   9720000   47.491144      60.402979      413.54995    
   9730000   47.56627       66.708435      456.72036    
   9740000   49.994822      64.39376       440.8729     
   9750000   38.351056      56.80565       388.92079    
   9760000   47.560459      69.596599      476.49422    
   9770000   54.554316      71.892114      492.2105     
   9780000   41.686535      64.281501      440.10432    
   9790000   49.400322      73.679264      504.44625    
   9800000   45.136923      71.900398      492.26722    
   9810000   49.735291      66.519557      455.4272     
   9820000   42.540512      65.268428      446.86133    
   9830000   34.5268        54.963245      376.30673    
   9840000   41.748411      54.617157      373.93723    
   9850000   35.095747      64.341427      440.5146     
   9860000   34.00274       71.667351      490.67166    
   9870000   34.299933      72.445958      496.0024     
   9880000   49.328124      58.723038      402.04821    
   9890000   44.338908      74.534273      510.30008    
   9900000   47.323337      66.759018      457.06668    
   9910000   41.103771      73.387007      502.44531    
   9920000   55.513631      64.047502      438.50224    
   9930000   35.069469      65.64493       449.43906    
   9940000   46.086369      55.991191      383.34458    
   9950000   47.404223      66.379363      454.46736    
   9960000   43.400587      72.341262      495.28559    
   9970000   38.968615      67.023875      458.88002    
   9980000   44.960712      76.230304      521.91198    
   9990000   37.483493      61.581459      421.61844    
  10000000   38.3431        65.003007      445.04412    
  10010000   36.988821      62.613851      428.68673    
  10020000   39.428768      62.643245      428.88797    
  10030000   46.518504      65.634247      449.36591    
  10040000   42.65593       58.688721      401.81326    
  10050000   35.371779      68.201441      466.94225    
  10060000   35.583849      70.420009      482.13171    
  10070000   31.959007      64.532369      441.82188    
  10080000   45.473855      71.532685      489.74966    
  10090000   44.940143      69.141434      473.37793    
  10100000   31.561         74.863479      512.554      
  10110000   49.587497      72.069313      493.42369    
  10120000   50.691001      68.341868      467.90368    
  10130000   36.872288      84.554353      578.90272    
  10140000   42.374112      74.480836      509.93422    
  10150000   43.2608        70.381089      481.86524    
  10160000   41.499454      62.638573      428.85598    
  10170000   39.741176      69.526556      476.01467    
  10180000   38.891589      75.002701      513.50718    
  10190000   44.303055      65.359236      447.48304    
  10200000   42.424997      62.21224       425.93709    
  10210000   46.308837      61.617695      421.86653    
  10220000   45.288239      62.544246      428.21017    
  10230000   45.685312      65.401435      447.77196    
  10240000   44.652932      61.968014      424.26499    
  10250000   32.253739      71.366802      488.61394    
  10260000   34.279115      67.336829      461.02267    
  10270000   43.137388      53.281394      364.79191    
  10280000   33.07159       67.449709      461.7955     
  10290000   44.80973       50.821986      347.95353    
  10300000   52.125458      63.301782      433.39666    
  10310000   34.103327      64.173068      439.36193    
  10320000   44.920371      56.778383      388.7341     
  10330000   42.301561      66.201058      453.24659    
  10340000   41.697038      71.231924      487.6905     
  10350000   43.776483      70.639437      483.63402    
  10360000   48.719168      68.888399      471.64552    
  10370000   40.331175      55.733411      381.57968    
  10380000   37.807344      71.78324       491.46509    
  10390000   41.678679      63.395019      434.035      
  10400000   44.055302      71.442807      489.13431    
  10410000   50.387586      71.776216      491.417      
  10420000   41.068226      69.656317      476.90308    
  10430000   48.33893       66.066969      452.32855    
  10440000   33.507491      71.101092      486.79476    
  10450000   39.864747      72.075767      493.46788    
  10460000   55.05897       62.168684      425.63888    
  10470000   43.96499       74.674686      511.26142    
  10480000   41.03468       68.746125      470.67144    
  10490000   32.577092      75.650018      517.93905    
  10500000   39.670529      59.07174       404.43561    
  10510000   49.161765      69.008518      472.46791    
  10520000   46.773624      72.503879      496.39896    
  10530000   54.82541       67.433653      461.68558    
  10540000   45.019745      85.851639      587.78461    
  10550000   43.015597      70.572593      483.17638    
  10560000   38.450447      71.684369      490.78817    
  10570000   42.991832      70.525678      482.85517    
  10580000   38.801944      67.370442      461.2528     
  10590000   36.10081       78.52409       537.61642    
  10600000   43.667042      59.129381      404.83024    
  10610000   39.115592      62.934465      430.88181    
  10620000   54.409598      63.399895      434.06839    
  10630000   48.983415      64.206238      439.58902    
  10640000   53.639851      73.868885      505.74449    
  10650000   39.865797      80.200157      549.09165    
  10660000   40.729204      61.580605      421.61259    
  10670000   50.160005      61.497793      421.04561    
  10680000   44.571456      63.942073      437.78041    
  10690000   46.660991      75.040794      513.76799    
  10700000   40.25549       74.705244      511.47064    
  10710000   36.584533      73.450696      502.88135    
  10720000   44.571607      68.436171      468.54933    
  10730000   44.995526      75.972116      520.1443     
  10740000   52.036013      55.927642      382.90949    
  10750000   51.617332      69.949969      478.91357    
  10760000   47.760091      77.212799      528.63865    
  10770000   45.857947      62.843189      430.25689    
  10780000   37.912683      66.151814      452.90944    
  10790000   46.81407       63.616608      435.55212    
  10800000   42.108235      72.348302      495.3338     
  10810000   45.085604      67.261042      460.50379    
  10820000   36.33405       73.427987      502.72588    
  10830000   51.637286      84.432557      578.06884    
  10840000   41.426818      81.174299      555.76112    
  10850000   58.374343      77.436664      530.17135    
  10860000   37.835827      82.341308      563.75107    
  10870000   35.53116       72.945277      499.42099    
  10880000   36.614098      81.955806      561.11172    
  10890000   43.53753       75.638977      517.86346    
  10900000   41.592638      70.18744       480.53942    
  10910000   39.452102      61.996329      424.45885    
  10920000   44.678587      61.127733      418.51199    
  10930000   36.389335      68.135512      466.49086    
  10940000   41.778731      58.605764      401.2453     
  10950000   40.66651       77.356074      529.61959    
  10960000   47.009319      71.191345      487.41267    
  10970000   52.674096      71.845932      491.89431    
  10980000   45.701354      87.241892      597.303      
  10990000   46.296544      73.250715      501.51218    
  11000000   33.681167      65.665674      449.58108    
  11010000   46.431723      63.663798      435.8752     
  11020000   50.592283      83.280196      570.17918    
  11030000   39.529971      76.734826      525.3662     
  11040000   45.653397      61.067735      418.10121    
  11050000   37.543392      58.875508      403.0921     
  11060000   48.337961      83.993371      575.06195    
  11070000   51.358915      65.077588      445.55474    
  11080000   51.728535      60.723758      415.74617    
  11090000   47.514026      80.949261      554.2204     
  11100000   38.696164      68.017568      465.68336    
  11110000   42.036512      78.133997      534.94565    
  11120000   33.977393      65.500524      448.45038    
  11130000   58.086266      78.439974      537.04053    
  11140000   44.329282      75.190115      514.79032    
  11150000   38.761607      73.141708      500.76586    
  11160000   35.601034      82.876529      567.41547    
  11170000   45.897967      65.528622      448.64275    
  11180000   41.472737      66.839423      457.61717    
  11190000   49.915005      61.939346      424.06872    
  11200000   42.478565      67.324933      460.94122    
  11210000   52.504263      65.233476      446.62203    
  11220000   44.271325      66.925597      458.20716    
  11230000   40.471803      55.054862      376.93399    
  11240000   43.659589      60.358047      413.24232    
  11250000   43.176111      51.632144      353.50029    
  11260000   44.478571      52.408105      358.81292    
  11270000   42.426097      70.2586        481.02662    
  11280000   46.868167      68.273136      467.43311    
  11290000   39.599776      67.011218      458.79336    
  11300000   53.653148      63.176294      432.5375     
  11310000   40.230657      73.824171      505.43836    
  11320000   43.421698      64.865943      444.10571    
  11330000   27.042244      76.904479      526.52773    
  11340000   49.734558      79.394724      543.57724    
  11350000   43.994269      76.876947      526.33924    
  11360000   57.507043      74.939709      513.07591    
  11370000   37.568751      85.144372      582.9423     
  11380000   42.021888      72.58988       496.98777    
  11390000   46.313085      61.145999      418.63705    
  11400000   42.125924      84.820641      580.72586    
  11410000   59.628606      79.297306      542.91026    
  11420000   43.023483      82.470213      564.63362    
  11430000   53.443285      91.653396      627.50643    
  11440000   45.04501       72.403402      495.71104    
  11450000   47.131663      75.768655      518.75129    
  11460000   45.205733      69.935978      478.81778    
  11470000   46.902695      63.1279        432.20617    
  11480000   41.611242      89.684435      614.02591    
  11490000   60.191044      93.604157      640.86235    
  11500000   50.986594      83.273694      570.13466    
  11510000   68.850166      78.102197      534.72793    
  11520000   44.851675      79.752419      546.0262     
  11530000   42.90432       66.94264       458.32385    
  11540000   42.20295       85.862877      587.86155    
  11550000   35.643628      64.639841      442.5577     
  11560000   51.775911      58.634321      401.44081    
  11570000   41.527911      58.993678      403.90115    
  11580000   45.865796      65.92065       451.32678    
  11590000   35.359864      62.830534      430.17025    
  11600000   32.818689      62.67499       429.10531    
  11610000   34.556373      76.055602      520.71588    
  11620000   43.34795       67.756878      463.89854    
  11630000   54.887148      77.095981      527.83886    
  11640000   47.142558      72.47829       496.22376    
  11650000   35.20145       63.955693      437.87367    
  11660000   44.723614      80.201835      549.10314    
  11670000   45.617347      57.985895      397.00135    
  11680000   44.220322      65.243374      446.68979    
  11690000   49.251964      74.668481      511.21894    
  11700000   40.533398      90.001493      616.19665    
  11710000   44.264806      82.979853      568.12288    
  11720000   58.614523      66.058083      452.26771    
  11730000   48.989218      86.007931      588.85466    
  11740000   44.624982      84.903425      581.29264    
  11750000   43.59276       83.730285      573.26072    
  11760000   34.601887      68.864328      471.48071    
  11770000   44.777271      77.89065       533.27957    
  11780000   58.152765      77.793009      532.61107    
  11790000   42.268799      72.729243      497.94191    
  11800000   41.635902      64.450677      441.26258    
  11810000   46.176296      77.32767       529.42512    
  11820000   45.034327      76.003375      520.35831    
  11830000   44.986714      71.365847      488.6074     
  11840000   48.520067      77.38626       529.82626    
  11850000   35.605684      68.368646      468.08702    
  11860000   65.657358      70.098031      479.92728    
  11870000   50.815292      68.711125      470.43181    
  11880000   51.273021      60.540298      414.49011    
  11890000   44.264131      69.07761       472.94095    
  11900000   49.48647       71.954016      492.63431    
  11910000   44.384993      76.56048       524.17254    
  11920000   35.203748      85.04569       582.26666    
  11930000   45.562774      74.581465      510.62318    
  11940000   43.593177      83.761445      573.47406    
  11950000   55.248443      68.540373      469.26275    
  11960000   43.038218      89.265372      611.15678    
  11970000   47.432388      64.011117      438.25313    
  11980000   38.349813      73.260468      501.57895    
  11990000   40.585768      81.718027      559.48377    
  12000000   58.666041      66.33286       454.14898    
Loop time of 109.201 on 1 procs for 8000000 steps with 50 atoms

Performance: 63296.039 ns/day, 0.000 hours/ns, 73259.304 timesteps/s, 3.663 Matom-step/s
99.2% CPU use with 1 MPI tasks x 1 OpenMP threads

MPI task timing breakdown:
Section |  min time  |  avg time  |  max time  |%varavg| %total
---------------------------------------------------------------
Pair    | 72.708     | 72.708     | 72.708     |   0.0 | 66.58
Bond    | 20.005     | 20.005     | 20.005     |   0.0 | 18.32
Neigh   | 2.8368     | 2.8368     | 2.8368     |   0.0 |  2.60
Comm    | 3.1473     | 3.1473     | 3.1473     |   0.0 |  2.88
Output  | 0.10786    | 0.10786    | 0.10786    |   0.0 |  0.10
Modify  | 9.3156     | 9.3156     | 9.3156     |   0.0 |  8.53
Other   |            | 1.08       |            |       |  0.99

Nlocal:             50 ave          50 max          50 min
Histogram: 1 0 0 0 0 0 0 0 0 0
Nghost:              0 ave           0 max           0 min
Histogram: 1 0 0 0 0 0 0 0 0 0
Neighs:            164 ave         164 max         164 min
Histogram: 1 0 0 0 0 0 0 0 0 0

Total # of neighbors = 164
Ave neighs/atom = 3.28
Ave special neighs/atom = 5.76
Neighbor list builds = 22028
Dangerous builds = 0
Generated 0 of 6 mixed pair_coeff terms from geometric mixing rule
Setting up Verlet run ...
  Unit style    : real
  Current step  : 12000000
  Time step     : 10
Per MPI rank memory allocation (min/avg/max) = 9.625 | 9.625 | 9.625 Mbytes
   Step         PotEng         KinEng          Temp     
  12000000   58.666041      66.33286       454.14898    
  12010000   49.600374      64.516178      441.71103    
  12020000   44.196934      68.850052      471.38297    
  12030000   32.251223      71.172349      487.28262    
  12040000   35.647923      72.158961      494.03747    
  12050000   40.508903      72.95858       499.51207    
  12060000   35.215647      75.416666      516.3414     
  12070000   30.463035      69.088803      473.01758    
  12080000   40.773632      78.182054      535.27467    
  12090000   42.531773      75.985204      520.23391    
  12100000   46.753185      73.171076      500.96693    
  12110000   40.692495      67.670601      463.30784    
  12120000   43.105103      77.976611      533.8681     
  12130000   41.110858      79.444846      543.9204     
  12140000   44.676773      65.605893      449.17178    
  12150000   39.697468      71.150821      487.13522    
  12160000   40.838561      66.722821      456.81885    
  12170000   44.329049      71.23426       487.70649    
  12180000   39.576442      66.773504      457.16585    
  12190000   50.610432      71.910985      492.3397     
  12200000   48.867028      80.882308      553.762      
  12210000   45.973009      72.17095       494.11955    
  12220000   49.371257      59.663879      408.48969    
  12230000   59.868421      76.023304      520.49475    
  12240000   48.698615      91.311109      625.16296    
  12250000   53.505782      59.225112      405.48567    
  12260000   43.570563      74.333987      508.92882    
  12270000   47.561606      64.516696      441.71458    
  12280000   46.829362      63.528322      434.94766    
  12290000   41.262582      62.97408       431.15304    
  12300000   50.224385      61.569673      421.53774    
  12310000   34.862403      79.251379      542.59582    
  12320000   39.098098      72.409022      495.74952    
  12330000   42.656419      100.62038      688.89904    
  12340000   53.59265       78.134095      534.94632    
  12350000   48.896557      63.82903       437.00647    
  12360000   39.760722      81.812206      560.12857    
  12370000   41.963335      74.440528      509.65826    
  12380000   43.486196      62.080194      425.03303    
  12390000   36.323321      56.559462      387.23525    
  12400000   43.588552      58.342837      399.44516    
  12410000   39.016493      71.727932      491.08642    
  12420000   47.034841      66.428985      454.8071     
  12430000   53.257577      96.35391       659.68857    
  12440000   50.788645      95.139322      651.37288    
  12450000   48.929387      86.415935      591.64807    
  12460000   40.928118      66.258457      453.63958    
  12470000   34.910824      77.73105       532.18686    
  12480000   46.754478      63.104648      432.04697    
  12490000   49.313219      64.354295      440.6027     
  12500000   36.15439       82.476724      564.6782     
  12510000   54.137773      75.067372      513.94995    
  12520000   39.89207       72.647139      497.37979    
  12530000   41.565658      70.042564      479.54752    
  12540000   32.20887       61.5535        421.42701    
  12550000   30.880786      68.378109      468.15181    
  12560000   56.18198       76.453055      523.43705    
  12570000   50.553013      69.166375      473.54868    
  12580000   49.621862      65.577194      448.9753     
  12590000   41.269161      71.342781      488.44948    
  12600000   42.454266      66.946728      458.35183    
  12610000   35.678275      73.371911      502.34195    
  12620000   48.534885      77.767725      532.43797    
  12630000   39.504652      80.038978      547.98814    
  12640000   42.839432      72.455936      496.07072    
  12650000   56.204968      109.1178       747.07674    
  12660000   52.375087      91.29052       625.022      
  12670000   61.947776      79.019246      541.00652    
  12680000   43.242872      51.024269      349.33847    
  12690000   51.51044       70.658992      483.76791    
  12700000   49.908762      83.626816      572.55232    
  12710000   65.200073      77.013465      527.27391    
  12720000   44.910494      75.26028       515.2707     
  12730000   52.568095      89.333226      611.62135    
  12740000   47.58741       69.12907       473.29327    
  12750000   54.232938      70.888295      485.33783    
  12760000   50.816563      72.311904      495.0846     
  12770000   41.676881      67.103705      459.42658    
  12780000   57.854758      83.593501      572.32423    
  12790000   58.688303      64.339778      440.50331    
  12800000   57.134853      74.40439       509.41084    
  12810000   52.697541      68.567252      469.44678    
  12820000   35.754353      85.70414       586.77475    
  12830000   56.451392      81.968045      561.19552    
  12840000   50.285329      87.982521      602.37372    
  12850000   56.289219      75.757944      518.67796    
  12860000   44.891711      75.668791      518.06758    
  12870000   55.314183      61.563968      421.49868    
  12880000   48.028332      72.763141      498.174      
  12890000   45.48117       68.127051      466.43294    
  12900000   47.236162      73.69559       504.55803    
  12910000   49.380498      80.375813      550.29428    
  12920000   46.821072      75.171545      514.66317    
  12930000   58.531527      67.683109      463.39348    
  12940000   51.470188      78.450337      537.11147    
  12950000   43.545557      70.471456      482.48394    
  12960000   43.567452      68.248178      467.26223    
  12970000   45.206137      57.931587      396.62953    
  12980000   46.779211      70.492702      482.6294     
  12990000   49.770643      72.185125      494.2166     
  13000000   45.577057      85.787851      587.34788    
  13010000   38.699969      100.20759      686.07285    
  13020000   44.610784      82.677248      566.05109    
  13030000   52.787066      68.264088      467.37116    
  13040000   43.686283      73.639514      504.1741     
  13050000   53.034757      79.504338      544.32771    
  13060000   41.305627      69.178833      473.63398    
[...]
 404740000   30.160959      52.273819      357.89353    
 404750000   26.709123      43.831635      300.09399    
 404760000   29.876611      35.218161      241.1217     
 404770000   28.854171      43.168286      295.55235    
 404780000   36.281667      44.027884      301.43761    
 404790000   24.718424      49.281044      337.40345    
 404800000   26.832666      44.022125      301.39817    
 404810000   23.16553       35.349916      242.02376    
 404820000   21.352737      35.518315      243.17671    
 404830000   33.110943      43.17052       295.56765    
 404840000   30.427547      42.362566      290.03598    
 404850000   29.892838      43.620193      298.64634    
 404860000   24.898603      44.865387      307.17158    
 404870000   28.270857      52.628065      360.31888    
 404880000   27.568086      38.810872      265.71925    
 404890000   21.45992       45.328016      310.33898    
 404900000   27.150014      47.594286      325.85503    
 404910000   22.207045      46.932763      321.32591    
 404920000   27.245812      45.992464      314.88813    
 404930000   12.271121      48.465763      331.82161    
 404940000   5.4520673      44.695496      306.00842    
 404950000   12.623472      44.160803      302.34763    
 404960000   11.886736      41.9848        287.4496     
 404970000   7.6614507      40.053078      274.22404    
 404980000   4.0400661      41.721719      285.64841    
 404990000   4.890129       48.175722      329.83585    
 405000000   5.2006081      39.825725      272.66746    
 405010000   3.3462805      42.909821      293.78277    
 405020000  -3.7881474      45.899043      314.24852    
 405030000  -3.5882612      47.63038       326.10215    
 405040000  -15.799263      52.819251      361.62784    
 405050000  -15.768853      56.289421      385.38641    
 405060000  -2.0922808      43.417862      297.26108    
 405070000   1.451713       38.18346       261.42367    
 405080000   0.39213664     43.276691      296.29455    
 405090000   9.922221       40.667985      278.43401    
 405100000   16.426809      42.499215      290.97155    
 405110000   8.0921168      50.630359      346.64155    
 405120000   14.567471      42.942136      294.00402    
 405130000   15.514293      52.39943       358.75353    
 405140000   21.938626      43.315421      296.55972    
 405150000   15.469052      45.044146      308.39546    
 405160000   12.76901       49.481718      338.77736    
 405170000   4.1734858      49.640716      339.86595    
 405180000   10.708699      48.086453      329.22467    
 405190000   18.510227      42.775095      292.86036    
 405200000   20.10943       46.818454      320.54329    
 405210000   9.2578071      52.621467      360.27371    
 405220000   8.4928729      44.272275      303.11083    
 405230000   14.224828      49.360605      337.94816    
 405240000  -0.1719489      51.808429      354.70723    
 405250000   8.8685703      44.285736      303.20299    
 405260000   3.0207289      48.53891       332.32241    
 405270000  -0.42319287     44.598337      305.34322    
 405280000   2.5714307      41.929235      287.06917    
 405290000   7.8002889      36.290847      248.46586    
 405300000   4.3438409      37.387026      255.97086    
 405310000   1.7562076      42.5695        291.45275    
 405320000   12.776025      37.843869      259.09865    
 405330000   1.0508467      38.814263      265.74246    
 405340000   7.2419683      45.547713      311.84314    
 405350000   2.8791251      46.807872      320.47084    
 405360000   2.0104028      44.63707       305.60841    
 405370000   2.8044597      46.506337      318.40637    
 405380000   0.98491963     36.795843      251.92333    
 405390000   8.9734179      35.922321      245.94274    
 405400000   6.70609        43.139064      295.35229    
 405410000   17.45838       55.706228      381.39357    
 405420000  -5.2642907      59.579118      407.90938    
 405430000   1.9734317      43.85568       300.25861    
 405440000   5.9589039      51.112416      349.94196    
 405450000   18.227993      38.625782      264.45203    
 405460000   6.5501245      52.465273      359.20432    
 405470000   11.144168      47.222411      323.30899    
 405480000   8.7802539      36.905202      252.67205    
 405490000   11.459387      47.497346      325.19133    
 405500000   11.293173      51.959051      355.73847    
 405510000   12.873748      41.286193      282.66658    
 405520000   19.0405        41.379697      283.30675    
 405530000   20.401359      39.37482       269.58033    
 405540000   18.117091      41.359528      283.16866    
 405550000   10.967344      41.576792      284.65617    
 405560000   19.951683      36.936963      252.88951    
 405570000   21.105544      45.303573      310.17163    
 405580000   16.481064      42.687781      292.26257    
 405590000   5.0554805      43.96671       301.01878    
 405600000   5.3002612      42.64476       291.96802    
 405610000   2.4341585      40.249445      275.56847    
 405620000   10.704954      44.151812      302.28608    
 405630000   4.6845491      44.488124      304.58864    
 405640000   7.3964064      43.612395      298.59296    
 405650000  -4.9601166      52.426944      358.9419     
 405660000   5.2844285      49.289846      337.46371    
 405670000   12.547669      43.475213      297.65373    
 405680000   9.7938854      52.19372       357.34513    
 405690000   7.2503724      48.184001      329.89253    
 405700000   11.742392      51.22942       350.74304    
 405710000   14.763207      47.311603      323.91964    
 405720000   23.867962      48.169028      329.79002    
 405730000   23.257444      45.385311      310.73125    
 405740000   25.881805      51.783715      354.53802    
 405750000   33.466482      55.377503      379.14295    
 405760000   23.157579      47.757117      326.96986    
 405770000   29.336049      39.015929      267.12318    
 405780000   27.015707      35.075421      240.14443    
 405790000   23.456559      46.547446      318.68783    
 405800000   23.417073      47.891874      327.89248    
 405810000   29.209493      39.403087      269.77386    
 405820000   26.600345      48.295506      330.65595    
 405830000   29.320039      58.515256      400.62563    
 405840000   28.411402      49.317961      337.6562     
 405850000   27.307033      49.288324      337.45329    
 405860000   27.248866      51.119358      349.9895     
 405870000   27.544403      42.70907       292.40833    
 405880000   26.859077      42.426931      290.47665    
 405890000   23.927762      53.522385      366.44185    
 405900000   32.055707      38.528088      263.78316    
 405910000   24.262011      47.897445      327.93061    
 405920000   28.30284       46.079701      315.48541    
 405930000   28.47628       44.457406      304.37833    
 405940000   25.549984      35.887488      245.70426    
 405950000   29.421605      50.584373      346.32671    
 405960000   28.612976      51.541392      352.87896    
 405970000   28.176433      49.980704      342.19368    
 405980000   33.009735      44.607516      305.40607    
 405990000   29.115961      46.913704      321.19542    
 406000000   27.954908      47.929417      328.14951    
 406010000   32.016325      43.210654      295.84243    
 406020000   30.551006      42.72742       292.53396    
 406030000   37.425497      57.269149      392.09413    
 406040000   28.476989      42.800124      293.03173    
 406050000   28.797876      45.897802      314.24003    
 406060000   24.302472      42.221966      289.07336    
 406070000   17.954843      52.239177      357.65635    
 406080000   22.457495      50.548907      346.08389    
 406090000   18.306834      46.471258      318.16621    
 406100000   18.448216      42.190386      288.85714    
 406110000   20.96154       36.963192      253.06908    
 406120000   23.764795      46.328512      317.1889     
 406130000   32.130225      45.574812      312.02867    
 406140000   29.202965      57.86636       396.18295    
 406150000   30.819582      58.570891      401.00653    
 406160000   28.805719      43.484544      297.71762    
 406170000   24.722278      43.733848      299.42448    
 406180000   26.251168      43.656567      298.89538    
 406190000   21.550825      44.583039      305.23848    
 406200000   20.109482      49.116325      336.2757     
 406210000   24.786072      44.602677      305.37293    
 406220000   28.622842      38.955816      266.71161    
 406230000   13.976501      57.203817      391.64684    
 406240000   22.055773      44.439496      304.25571    
 406250000   28.443538      39.283955      268.95822    
 406260000   12.147853      49.803023      340.97719    
 406270000   14.876163      39.462924      270.18353    
 406280000   1.3168738      42.656484      292.04829    
 406290000  -1.7702884      36.959387      253.04303    
 406300000  -18.661119      46.833489      320.64623    
 406310000  -9.197653       41.550899      284.47889    
 406320000  -2.6033605      47.556735      325.59794    
 406330000  -7.40099        42.361259      290.02703    
 406340000   3.6891156      41.70572       285.53887    
 406350000  -7.8152773      51.89506       355.30035    
 406360000  -1.0666241      47.299093      323.83399    
 406370000   1.2018534      55.647005      380.9881     
 406380000  -5.1744119      47.427553      324.71349    
 406390000  -1.7170219      50.753744      347.48632    
 406400000   5.543156       35.268806      241.46844    
 406410000  -9.5160284      42.22256       289.07742    
 406420000  -9.0204064      43.244875      296.07672    
 406430000  -17.996925      48.253959      330.3715     
 406440000  -6.5029119      42.752358      292.7047     
 406450000  -6.5025772      42.770857      292.83135    
 406460000  -10.339166      51.59615       353.25386    
 406470000  -7.6746797      53.217536      364.3547     
 406480000  -13.946293      46.351528      317.34647    
 406490000   8.2278026      37.569534      257.22041    
 406500000   1.5552351      44.169662      302.40829    
 406510000  -5.739368       44.21414       302.71281    
 406520000  -19.525846      51.906598      355.37934    
 406530000  -8.6194874      40.16706       275.00442    
 406540000  -10.848334      44.48917       304.59581    
 406550000   2.9409265      47.733111      326.8055     
 406560000   2.2797181      42.911063      293.79127    
 406570000   0.10130734     38.397795      262.89111    
 406580000   1.4103487      37.104532      254.03677    
 406590000   1.4931701      34.228917      234.34882    
 406600000  -11.144228      41.564653      284.57305    
 406610000  -16.368162      41.381368      283.31819    
 406620000  -22.026376      42.282822      289.49001    
 406630000  -16.129268      34.537576      236.46206    
 406640000  -6.770554       36.612074      250.66515    
 406650000   6.5690762      45.727978      313.07733    
 406660000  -0.98166454     43.357294      296.8464     
 406670000   6.3226412      47.192237      323.1024     
 406680000   6.4572317      46.019593      315.07387    
 406690000   4.7124145      45.696744      312.86348    
 406700000   6.1224163      47.754819      326.95412    
 406710000   14.360061      46.752555      320.09211    
 406720000   14.243439      45.357553      310.54121    
 406730000   8.1768139      38.369561      262.6978     
 406740000  -3.370097       49.609308      339.65091    
 406750000   12.370479      48.387627      331.28666    
 406760000   6.3494147      48.514789      332.15727    
 406770000   4.0577194      40.942954      280.31659    
 406780000   13.557516      44.375803      303.81964    
 406790000   21.706992      39.137313      267.95423    
 406800000   19.105001      42.578872      291.51692    
 406810000   18.562517      41.160637      281.80695    
 406820000   11.68411       32.529281      222.71224    
 406830000   6.5483235      38.344349      262.5252     
 406840000   18.38845       43.94858       300.89465    
 406850000   4.2567122      44.417291      304.10369    
 406860000   13.988578      46.062862      315.37011    
 406870000   2.6801264      42.610393      291.73273    
 406880000   17.038128      39.527774      270.62753    
 406890000   17.240905      44.675639      305.87247    
 406900000   22.917364      46.464657      318.12101    
 406910000   27.442331      51.597525      353.26327    
 406920000   27.35605       48.501551      332.06664    
 406930000   33.008322      52.740782      361.0906     
 406940000   31.088179      48.271689      330.49288    
 406950000   31.64512       51.631749      353.49759    
 406960000   26.898247      53.273731      364.73945    
 406970000   29.514854      51.953389      355.6997     
 406980000   26.102939      49.328225      337.72648    
 406990000   26.29772       48.421115      331.51593    
 407000000   25.646797      48.705748      333.46468    
 407010000   26.242457      56.376283      385.98112    
 407020000   30.40301       43.043929      294.70094    
 407030000   9.5762862      47.77459       327.08949    
 407040000   4.2912023      40.041704      274.14616    
 407050000  -0.0079131111   42.394441      290.25421    
 407060000   22.282225      40.442245      276.88847    
 407070000   4.6656358      39.563969      270.87534    
 407080000  -5.3737934      46.450947      318.02715    
 407090000  -0.065224029    37.065323      253.76832    
 407100000  -4.5369825      45.867095      314.02979    
 407110000   2.9161006      47.076597      322.31067    
 407120000   17.963612      40.842948      279.63189    
 407130000   3.2926659      47.899769      327.94653    
 407140000  -3.2862273      45.95495       314.63129    
 407150000   2.6032295      42.400058      290.29267    
 407160000   3.2982407      48.322693      330.84208    
 407170000   6.8138802      45.60826       312.25767    
 407180000  -3.4745838      56.328544      385.65427    
 407190000   7.9953311      39.171119      268.18569    
 407200000   6.1638137      45.807696      313.62311    
 407210000   2.6609366      44.551366      305.02164    
 407220000   3.4339177      51.449195      352.24773    
 407230000   1.0423317      38.730289      265.16754    
 407240000   3.3879219      35.829722      245.30876    
 407250000   13.847787      34.706523      237.61876    
 407260000  -3.6953647      45.991621      314.88236    
 407270000  -4.7313001      48.423071      331.52933    
 407280000  -7.3546225      45.274476      309.97242    
 407290000  -0.8126225      38.804935      265.67861    
 407300000  -1.323721       49.539678      339.17419    
 407310000  -12.048109      39.276966      268.91037    
 407320000  -15.504825      39.294837      269.03272    
 407330000  -3.5294732      39.867074      272.95056    
 407340000   3.6908159      42.575692      291.49515    
 407350000   1.4628499      44.592895      305.30596    
 407360000   4.503192       38.943973      266.63053    
 407370000   4.9041633      43.17065       295.56854    
 407380000   2.1509251      46.672793      319.54601    
 407390000  -8.4865084      41.753226      285.86413    
 407400000  -2.320858       39.933693      273.40666    
 407410000  -15.612764      38.909508      266.39456    
 407420000  -14.63205       42.364172      290.04697    
 407430000  -5.8143512      32.178997      220.31401    
 407440000  -4.6721245      36.01465       246.57487    
 407450000  -11.927704      40.829122      279.53723    
 407460000  -3.1490762      44.51558       304.77662    
 407470000   3.2940299      37.868531      259.2675     
 407480000  -17.88913       51.361123      351.64474    
 407490000  -19.399625      47.193697      323.11239    
 407500000   0.015137227    44.011008      301.32206    
 407510000   3.7595299      44.026661      301.42923    
 407520000   6.8399913      50.493567      345.70501    
 407530000   0.94778172     47.974449      328.45783    
 407540000   0.92480354     48.308166      330.74262    
 407550000   2.8613553      43.325833      296.631      
 407560000  -11.701489      50.237404      343.95118    
 407570000  -7.1809444      37.275204      255.20527    
 407580000  -9.3768509      48.854356      334.48213    
 407590000  -11.894968      42.533904      291.20905    
 407600000  -2.2853464      40.398227      276.5871     
 407610000   0.5740758      45.648717      312.53466    
 407620000  -11.733267      42.329126      289.80703    
 407630000  -12.782816      39.65425       271.49345    
 407640000  -12.997912      43.181174      295.64059    
 407650000  -8.0773547      51.047429      349.49703    
 407660000   2.7491579      35.137594      240.5701     
 407670000  -1.2490157      40.201097      275.23745    
 407680000  -9.0200302      49.614743      339.68813    
 407690000  -12.609391      39.878126      273.02622    
 407700000  -19.063417      42.835844      293.27629    
 407710000  -5.4986006      35.962963      246.221      
 407720000  -3.7604379      34.269896      234.62939    
 407730000  -16.967483      52.249704      357.72843    
 407740000  -1.9556008      40.411478      276.67783    
 407750000  -0.90019549     49.236817      337.10065    
 407760000  -9.9944921      45.087937      308.69528    
 407770000  -4.8860924      51.754585      354.33858    
 407780000   0.63315766     42.076576      288.07795    
 407790000  -12.087231      43.673117      299.00869    
 407800000  -8.3651937      36.566586      250.35371    
 407810000  -3.5927659      41.46326       283.87887    
 407820000   6.8925673      48.189824      329.93239    
 407830000  -6.353499       49.748692      340.60521    
 407840000   1.3171568      44.711921      306.12087    
 407850000  -11.931171      53.140737      363.8289     
 407860000   7.8303288      39.482664      270.31868    
 407870000   1.0067862      40.782442      279.21764    
 407880000   5.8149768      34.291349      234.77627    
 407890000   6.8033671      40.71203       278.73556    
 407900000   3.182419       43.536932      298.07629    
 407910000  -6.5042273      41.796215      286.15845    
 407920000  -6.2386309      39.937013      273.4294     
 407930000  -2.3227503      53.383081      365.48811    
 407940000   11.0216        36.832403      252.17363    
 407950000  -9.3015968      59.538115      407.62865    
 407960000   3.6949143      42.437609      290.54976    
 407970000  -7.0685901      43.84427       300.18049    
 407980000  -0.31041576     44.713438      306.13126    
 407990000  -8.6452857      43.853526      300.24386    
 408000000  -6.9966184      42.735213      292.58731    
Loop time of 93.1213 on 1 procs for 4000000 steps with 50 atoms

Performance: 37112.870 ns/day, 0.001 hours/ns, 42954.710 timesteps/s, 2.148 Matom-step/s
99.2% CPU use with 1 MPI tasks x 1 OpenMP threads

MPI task timing breakdown:
Section |  min time  |  avg time  |  max time  |%varavg| %total
---------------------------------------------------------------
Pair    | 73.789     | 73.789     | 73.789     |   0.0 | 79.24
Bond    | 10.611     | 10.611     | 10.611     |   0.0 | 11.40
Neigh   | 1.2985     | 1.2985     | 1.2985     |   0.0 |  1.39
Comm    | 1.7927     | 1.7927     | 1.7927     |   0.0 |  1.93
Output  | 0.07968    | 0.07968    | 0.07968    |   0.0 |  0.09
Modify  | 4.9443     | 4.9443     | 4.9443     |   0.0 |  5.31
Other   |            | 0.6059     |            |       |  0.65

Nlocal:             50 ave          50 max          50 min
Histogram: 1 0 0 0 0 0 0 0 0 0
Nghost:              0 ave           0 max           0 min
Histogram: 1 0 0 0 0 0 0 0 0 0
Neighs:            362 ave         362 max         362 min
Histogram: 1 0 0 0 0 0 0 0 0 0

Total # of neighbors = 362
Ave neighs/atom = 7.24
Ave special neighs/atom = 5.76
Neighbor list builds = 8655
Dangerous builds = 0
System init for write_data ...
Generated 0 of 6 mixed pair_coeff terms from geometric mixing rule
Total wall time: 1:49:55
