LAMMPS (29 Aug 2024)
  using 1 OpenMP thread(s) per MPI task
  using 1 OpenMP thread(s) per MPI task
Reading data file ...
  orthogonal box = (-500.6 -500.6 -500.6) to (500.6 500.6 500.6)
  1 by 1 by 1 MPI processor grid
  reading atoms ...
  50 atoms
  scanning bonds ...
  1 = max bonds/atom
  scanning angles ...
  1 = max angles/atom
  orthogonal box = (-500.6 -500.6 -500.6) to (500.6 500.6 500.6)
  1 by 1 by 1 MPI processor grid
  reading bonds ...
  49 bonds
  reading angles ...
  48 angles
Finding 1-2 1-3 1-4 neighbors ...
  special bond factors lj:    0        0        0       
  special bond factors coul:  0        0        0       
     2 = max # of 1-2 neighbors
     2 = max # of 1-3 neighbors
     4 = max # of 1-4 neighbors
     6 = max # of special neighbors
  special bonds CPU = 0.000 seconds
  read_data CPU = 0.025 seconds
Finding 1-2 1-3 1-4 neighbors ...
  special bond factors lj:    0        0        1       
  special bond factors coul:  0        0        0       
     2 = max # of 1-2 neighbors
     2 = max # of 1-3 neighbors
     4 = max # of 1-4 neighbors
     6 = max # of special neighbors
  special bonds CPU = 0.000 seconds

CITE-CITE-CITE-CITE-CITE-CITE-CITE-CITE-CITE-CITE-CITE-CITE-CITE

Your simulation uses code contributions which should be cited:
- Type Label Framework: https://doi.org/10.1021/acs.jpcb.3c08419
The log file lists these citations in BibTeX format.

CITE-CITE-CITE-CITE-CITE-CITE-CITE-CITE-CITE-CITE-CITE-CITE-CITE

Generated 0 of 6 mixed pair_coeff terms from geometric mixing rule
Neighbor list info ...
  update: every = 10 steps, delay = 0 steps, check = yes
  max neighbors/atom: 2000, page size: 100000
  master list distance cutoff = 33
  ghost atom cutoff = 33
  binsize = 16.5, bins = 61 61 61
  2 neighbor lists, perpetual/occasional/extra = 2 0 0
  (1) pair lj/cut, perpetual, trim from (2)
      attributes: half, newton on, cut 25
      pair build: trim
      stencil: none
      bin: none
  (2) pair base/rna, perpetual
      attributes: half, newton on
      pair build: half/bin/newton
      stencil: half/bin/3d
      bin: standard
Setting up Verlet run ...
  Unit style    : real
  Current step  : 0
  Time step     : 10
Per MPI rank memory allocation (min/avg/max) = 8.368 | 8.368 | 8.368 Mbytes
   Step         PotEng         KinEng          Temp     
         0   65.797361      0              0            
     10000   24.047647      48.998177      335.46679    
     20000   18.874588      52.222622      357.54301    
     30000   24.303272      51.650428      353.62547    
     40000   13.160059      41.578342      284.66678    
     50000   15.908448      49.060741      335.89514    
     60000   8.1671967      44.767675      306.50259    
     70000   2.2275187      48.159629      329.72566    
     80000  -2.2714916      45.601691      312.2127     
     90000   2.3032701      46.348282      317.32425    
    100000   2.2536776      34.775986      238.09434    
    110000   5.4124559      38.986274      266.92014    
    120000  -10.639042      44.218923      302.74555    
    130000  -10.408483      44.628407      305.5491     
    140000  -8.2698858      45.344145      310.44941    
    150000   6.1344905      42.460694      290.70781    
    160000  -1.6201759      51.099602      349.85423    
    170000  -4.0920994      45.181411      309.33525    
    180000  -2.4888359      44.511388      304.74792    
    190000   0.99966142     37.982061      260.04478    
    200000  -7.2488205      51.470421      352.39305    
    210000   8.0364257      33.693665      230.68421    
    220000   3.0682202      46.247912      316.63706    
    230000  -4.0041157      47.309626      323.90611    
    240000   3.630301       45.588409      312.12176    
    250000  -5.2868946      34.732992      237.79998    
    260000  -13.709411      42.026506      287.73514    
    270000   1.6725245      39.28661       268.9764     
    280000  -0.83642258     51.069369      349.64725    
    290000   2.8262892      35.085256      240.21176    
    300000  -2.7733965      42.080063      288.10182    
    310000   0.96828951     40.908128      280.07815    
    320000  -1.1336615      40.321059      276.05877    
    330000   11.127484      32.735219      224.12219    
    340000   2.2164678      50.965878      348.93869    
    350000   10.338841      40.936208      280.2704     
    360000   9.9100047      43.094452      295.04685    
    370000   6.3196295      47.802562      327.281      
    380000  -1.8698778      52.123139      356.86189    
    390000  -4.3085164      52.10467       356.73545    
    400000  -1.0223681      45.839055      313.83782    
    410000  -14.166132      36.055038      246.85139    
    420000  -9.582162       43.93094       300.77388    
    430000  -1.3396508      45.143534      309.07592    
    440000  -14.529766      47.644534      326.19906    
    450000  -15.040788      46.546586      318.68194    
    460000  -26.053774      55.086321      377.14937    
    470000  -20.690493      41.750915      285.8483     
    480000  -14.811756      43.690054      299.12465    
    490000  -11.39467       49.077195      336.0078     
    500000  -14.868509      43.20839       295.82693    
    510000  -11.394033      41.144329      281.6953     
    520000  -7.6670363      34.881438      238.81632    
    530000  -10.61616       33.573633      229.86241    
    540000  -18.641131      45.040183      308.36833    
    550000  -23.702113      37.989036      260.09254    
    560000  -23.412822      44.14848       302.26327    
    570000  -8.8517053      35.203356      241.02033    
    580000  -2.0187304      42.737377      292.60213    
    590000  -10.791074      42.067808      288.01791    
    600000  -6.1822385      56.975246      390.08193    
    610000  -2.7258159      55.144851      377.5501     
    620000  -5.476282       46.157591      316.01868    
    630000  -14.10187       46.101448      315.6343     
    640000  -7.8155664      40.917441      280.14191    
    650000  -6.9285231      38.339273      262.49044    
    660000  -7.4223233      41.686272      285.40572    
    670000  -0.83477919     40.941262      280.305      
    680000   0.93893966     51.768547      354.43418    
    690000  -1.6961627      46.244884      316.61633    
    700000  -8.569415       37.54578       257.05778    
    710000  -6.9299002      43.130431      295.29318    
    720000  -6.398396       36.832122      252.17171    
    730000  -4.9442193      34.239586      234.42187    
    740000  -6.6940003      55.398251      379.285      
    750000   7.3632378      44.087962      301.84893    
    760000  -5.0120472      47.030186      321.99291    
    770000   0.61207841     44.387169      303.89746    
    780000  -10.491955      53.688659      367.58025    
    790000  -11.401235      46.032909      315.16504    
    800000  -18.835811      43.022765      294.55604    
    810000  -15.046699      36.844386      252.25567    
    820000  -22.891379      38.027143      260.35344    
    830000  -15.705389      40.826383      279.51848    
    840000  -18.490536      50.676544      346.95776    
    850000  -21.773567      45.948101      314.5844     
    860000  -15.174031      32.822065      224.71679    
    870000  -5.492105       38.368897      262.69326    
    880000  -11.943003      41.117334      281.51048    
    890000  -12.179506      39.262423      268.8108     
    900000  -4.9535398      43.288874      296.37796    
    910000   0.45771378     44.098303      301.91973    
    920000   1.8878615      46.177486      316.15489    
    930000   6.782871       49.615645      339.6943     
    940000  -8.1307891      40.331072      276.12732    
    950000  -21.201538      47.103704      322.49626    
    960000  -19.151592      42.988349      294.32042    
    970000  -20.07038       37.880829      259.3517     
    980000  -10.584177      42.085177      288.13683    
    990000  -2.8787166      38.961729      266.7521     
   1000000  -3.0799094      41.835576      286.42793    
   1010000  -1.5261799      41.293959      282.71975    
   1020000  -10.718696      46.927063      321.28688    
   1030000  -0.73956228     38.576181      264.11243    
   1040000  -0.016367872    46.114555      315.72403    
   1050000  -1.0859751      37.698252      258.10168    
   1060000  -5.8611926      49.714359      340.37014    
   1070000  -10.211467      45.3541        310.51757    
   1080000  -1.9437033      39.43135       269.96736    
   1090000  -7.0380394      45.748347      313.21678    
   1100000  -0.78562461     44.054957      301.62296    
   1110000   3.9069055      49.180198      336.713      
   1120000  -0.61921307     47.915119      328.05162    
   1130000   4.8730004      49.609583      339.6528     
   1140000   4.7774519      47.958911      328.35144    
   1150000  -3.1100819      53.743171      367.95347    
   1160000   5.0164299      40.998738      280.69851    
   1170000   11.286922      48.347286      331.01046    
   1180000   7.8232656      41.067814      281.17144    
   1190000   10.9801        33.215853      227.41286    
   1200000   11.200995      38.167924      261.3173     
   1210000   14.058361      39.622806      271.27817    
   1220000   15.903372      36.280279      248.39351    
   1230000   1.7539486      48.011459      328.71122    
   1240000   8.1980017      46.61265       319.13425    
   1250000   10.021665      43.248274      296.09999    
   1260000  -1.960319       46.565188      318.8093     
   1270000   3.4229514      48.550588      332.40237    
   1280000  -2.0023844      49.266535      337.30411    
   1290000   7.5638026      33.955128      232.47432    
   1300000  -0.23593507     51.524277      352.76178    
   1310000   11.169661      35.334885      241.92085    
   1320000   5.3074379      51.918051      355.45776    
   1330000   12.420598      41.631314      285.02945    
   1340000   15.153781      42.301124      289.61531    
   1350000   5.9524148      43.509867      297.89099    
   1360000   5.4442077      43.414875      297.24063    
   1370000  -7.0018907      48.450132      331.7146     
   1380000  -1.2946128      46.648395      319.37898    
   1390000   7.4020043      38.155247      261.2305     
   1400000   18.605207      39.57427       270.94586    
   1410000   16.651403      45.969189      314.72878    
   1420000   13.767052      46.799086      320.41068    
   1430000   2.3049567      51.651555      353.63319    
   1440000   4.5795633      48.076446      329.15615    
   1450000   2.5760103      44.808815      306.78427    
   1460000   6.253198       37.09782       253.99081    
   1470000   6.1277262      37.006695      253.36693    
   1480000   3.8588205      40.487202      277.19627    
   1490000  -0.077369181    45.043056      308.388      
   1500000   0.022839166    35.188111      240.91596    
   1510000  -9.7387202      39.708019      271.86158    
   1520000  -4.8009798      35.435097      242.60695    
   1530000   3.864857       45.29423       310.10766    
   1540000   1.8095915      45.330439      310.35557    
   1550000   11.551647      43.528372      298.01769    
   1560000   8.1356624      49.680256      340.13666    
   1570000   23.009333      45.794942      313.5358     
   1580000   27.173908      42.349332      289.94538    
   1590000   20.410754      41.532626      284.35379    
   1600000   10.996345      40.255316      275.60866    
   1610000   8.3748233      53.995477      369.68089    
   1620000   10.704643      45.016557      308.20657    
   1630000   16.772544      38.292013      262.16688    
   1640000   11.507858      41.819153      286.31549    
   1650000  -2.6599345      39.294734      269.03202    
   1660000   2.4160027      41.474494      283.95578    
   1670000   3.7758989      47.742899      326.87251    
   1680000  -4.1083032      41.15594       281.7748     
   1690000  -2.0762979      37.767248      258.57406    
   1700000  -2.6160195      44.352604      303.66081    
   1710000   1.8194289      40.324575      276.08284    
   1720000  -0.594477       36.418352      249.33882    
   1730000   2.420959       44.597659      305.33858    
   1740000   4.4041147      49.401799      338.2302     
   1750000   21.617274      44.776608      306.56376    
   1760000   8.5099382      42.168554      288.70767    
   1770000   17.598306      45.132739      309.00201    
   1780000   6.8247984      47.793482      327.21883    
   1790000   9.7286134      42.349347      289.94547    
   1800000   5.6295403      45.833493      313.79974    
   1810000  -0.093123969    36.845871      252.26584    
   1820000   12.407917      43.007147      294.44911    
   1830000   3.4566645      49.31128       337.61046    
   1840000  -4.1568486      38.419944      263.04275    
   1850000   0.14795323     44.491404      304.6111     
   1860000   4.8544222      50.94978       348.82847    
   1870000   4.2572275      46.558501      318.76351    
   1880000   3.3518713      49.549709      339.24287    
   1890000   4.6342348      44.69094       305.97723    
   1900000   3.1231298      42.84809       293.36013    
   1910000   11.61723       45.169044      309.25058    
   1920000   3.5565072      43.362211      296.88007    
   1930000   12.66855       47.92035       328.08744    
   1940000   1.7379022      38.967662      266.79271    
   1950000  -6.0649613      52.677339      360.65624    
   1960000  -5.9654981      45.144175      309.08031    
   1970000   5.2555296      40.057151      274.25192    
   1980000  -3.8226422      43.90891       300.62305    
   1990000   3.6842283      47.153659      322.83827    
   2000000  -9.4364682      41.977293      287.39821    
   2010000  -6.5246055      51.461081      352.3291     
   2020000  -7.7028807      50.675491      346.95055    
   2030000  -7.1504081      50.897834      348.47282    
   2040000   2.377027       42.032121      287.77359    
   2050000   1.5063161      40.370219      276.39534    
   2060000   10.15859       39.099979      267.69863    
   2070000   0.23175957     53.215278      364.33925    
   2080000  -2.6277586      40.901359      280.0318     
   2090000  -1.9938729      47.448996      324.8603     
   2100000   7.5530832      37.177378      254.53551    
   2110000   8.5479458      50.704117      347.14654    
   2120000  -2.5600937      52.31478       358.17397    
   2130000   4.9733487      49.897845      341.62639    
   2140000   7.5950421      43.852535      300.23708    
   2150000  -7.8622151      51.099061      349.85053    
   2160000   5.3237278      45.796133      313.54395    
   2170000  -6.0753928      43.543309      298.11996    
   2180000   1.5412324      44.587859      305.27148    
   2190000  -7.1179679      44.017187      301.36437    
   2200000  -7.7040483      43.098199      295.0725     
   2210000  -13.04095       45.711889      312.96718    
   2220000  -0.0061096868   42.359578      290.01552    
   2230000   0.074137404    48.373124      331.18736    
   2240000   0.17357642     45.632805      312.42572    
   2250000   0.50975249     44.452442      304.34435    
   2260000  -4.7185085      56.192395      384.72212    
   2270000  -4.5620883      40.706981      278.70099    
   2280000   4.8118053      39.506201      270.47983    
   2290000   0.60836712     45.733093      313.11235    
   2300000   0.83317996     55.657088      381.05714    
   2310000   11.067741      45.22423       309.6284     
   2320000   2.5846339      45.816215      313.68144    
   2330000  -1.1750239      41.070275      281.18829    
   2340000   1.5178641      39.47877       270.29202    
   2350000   6.5059342      47.567903      325.6744     
   2360000   14.455228      51.040532      349.44981    
   2370000   7.0966578      46.309289      317.05728    
   2380000  -3.0013019      36.379276      249.07129    
   2390000  -6.4414656      45.894282      314.21593    
   2400000  -15.890058      37.576326      257.26691    
   2410000  -14.425994      40.469188      277.07294    
   2420000  -10.424867      44.725691      306.21515    
   2430000  -3.1649847      46.08773       315.54037    
   2440000  -6.8401018      43.898914      300.55461    
   2450000   5.486887       39.00598       267.05506    
   2460000  -3.133641       42.851309      293.38216    
   2470000   1.1705325      43.925379      300.7358     
   2480000   5.616447       42.821667      293.17922    
   2490000  -6.14457        46.860921      320.83404    
   2500000  -7.2394371      44.39924       303.9801     
   2510000  -0.44960589     48.64208       333.02877    
   2520000   7.8826386      39.944236      273.47884    
   2530000  -10.562877      41.182211      281.95466    
   2540000  -12.195864      41.077401      281.23708    
   2550000  -5.5201181      48.463017      331.80281    
   2560000   6.9182334      54.661107      374.23814    
   2570000  -6.21885        44.05992       301.65694    
   2580000  -4.9188961      44.229923      302.82087    
   2590000   0.62013163     40.839929      279.61122    
   2600000  -3.4851227      48.390845      331.30869    
   2610000   12.383631      41.728257      285.69317    
   2620000   1.6215067      49.657781      339.98279    
   2630000   3.9625573      51.16626       350.31061    
   2640000   0.2664947      57.206765      391.66703    
   2650000  -5.5156924      46.677211      319.57627    
   2660000  -14.351431      51.741229      354.24714    
   2670000   14.144061      43.624033      298.67263    
   2680000  -8.0159742      45.973628      314.75917    
   2690000  -9.5474886      42.981963      294.27669    
   2700000  -15.574985      44.948763      307.74242    
   2710000  -10.77561       37.515072      256.84754    
   2720000  -13.291733      35.984648      246.36946    
   2730000  -6.4770798      45.624413      312.36827    
   2740000  -0.81632464     47.356004      324.22363    
   2750000  -11.453267      41.321181      282.90612    
   2760000  -19.016342      47.775946      327.09877    
   2770000  -12.153803      45.581098      312.07171    
   2780000  -10.450903      48.432722      331.5954     
   2790000  -1.6772357      53.606379      367.01692    
   2800000   7.0007553      42.240342      289.19917    
   2810000  -14.627379      45.896998      314.23452    
   2820000  -12.637239      45.168753      309.24858    
   2830000  -9.2196807      42.148072      288.56744    
   2840000  -7.9720686      45.539397      311.7862     
   2850000  -4.4821537      47.40306       324.5458     
   2860000  -10.314778      40.27112       275.71686    
   2870000  -15.06536       44.745528      306.35097    
   2880000  -19.047429      45.760843      313.30233    
   2890000  -0.14067709     44.41923       304.11696    
   2900000  -10.539599      47.873768      327.76851    
   2910000  -6.7670696      44.760283      306.45199    
   2920000  -9.4744862      46.466351      318.13261    
   2930000  -15.040979      58.263731      398.90356    
   2940000  -7.4451993      46.413431      317.77029    
   2950000  -15.501492      51.012685      349.25915    
   2960000  -12.071996      44.127884      302.12226    
   2970000  -12.637075      42.339058      289.87503    
   2980000  -12.361015      42.74691       292.6674     
   2990000  -4.622882       46.77127       320.22024    
   3000000   3.2462048      50.257198      344.0867     
   3010000  -12.182575      49.424475      338.38545    
   3020000  -12.524963      45.632601      312.42432    
   3030000  -2.4490266      43.577898      298.35677    
   3040000  -15.867489      56.643878      387.81321    
   3050000   0.40524747     41.999827      287.55248    
   3060000  -18.355966      50.304934      344.41353    
   3070000  -17.734446      44.560872      305.08672    
   3080000  -11.660405      44.146171      302.24746    
   3090000  -4.8487597      44.930411      307.61677    
   3100000  -9.3798384      48.342472      330.9775     
   3110000  -7.7944513      53.732403      367.87975    
   3120000  -17.914687      47.260865      323.57226    
   3130000  -7.8383348      42.952171      294.07272    
   3140000  -9.353734       37.798896      258.79074    
   3150000  -0.75629024     40.859218      279.74328    
   3160000  -1.3929433      49.14439       336.46785    
   3170000  -8.293098       50.002862      342.34539    
   3180000  -12.372362      49.05796       335.8761     
   3190000  -10.70197       41.035757      280.95196    
   3200000  -22.193966      58.349208      399.48878    
   3210000  -6.2822013      49.590201      339.5201     
   3220000  -12.195551      49.15735       336.55657    
   3230000  -14.609405      43.755758      299.57449    
   3240000   0.67508112     37.577423      257.27443    
   3250000  -0.84395637     40.651405      278.32049    
   3260000  -13.227107      42.865194      293.47723    
   3270000  -13.469718      48.579622      332.60115    
   3280000  -23.594026      47.06051       322.20053    
   3290000  -10.70221       41.205757      282.11587    
   3300000  -13.806082      46.478466      318.21555    
   3310000  -13.537702      54.42136       372.5967     
   3320000  -12.521993      46.374984      317.50706    
   3330000  -7.1794223      38.86888       266.1164     
   3340000  -2.8245913      45.320935      310.2905     
   3350000  -0.042661517    42.664936      292.10616    
   3360000  -4.2600617      44.711167      306.11571    
   3370000  -0.35961074     48.029362      328.83379    
   3380000   2.0089518      56.141435      384.37323    
   3390000   6.8906295      50.950276      348.83187    
   3400000   14.095455      43.491879      297.76784    
   3410000   5.1707694      48.021024      328.7767     
   3420000  -11.694882      51.59876       353.27173    
   3430000  -9.1299888      40.173462      275.04825    
   3440000  -9.400447       38.119055      260.98271    
   3450000  -6.5435403      45.580827      312.06985    
   3460000  -9.541842       46.11676       315.73913    
   3470000  -6.2120981      37.271392      255.17918    
   3480000  -14.965563      50.382407      344.94395    
   3490000  -11.023307      47.324042      324.0048     
   3500000  -12.086386      46.67633       319.57023    
   3510000  -9.0610168      51.245659      350.85422    
   3520000  -6.3340244      50.444092      345.36627    
   3530000  -3.4425881      51.199563      350.53862    
   3540000  -3.4401808      45.19619       309.43643    
   3550000  -6.1748826      48.832797      334.33452    
   3560000  -13.140868      50.265915      344.14639    
   3570000  -17.924864      46.446039      317.99354    
   3580000  -9.7406881      43.784682      299.77252    
   3590000  -12.740001      50.301225      344.38814    
   3600000  -10.818357      45.988701      314.86237    
   3610000  -7.0902481      42.719444      292.47935    
   3620000  -12.01947       43.046793      294.72055    
   3630000  -9.8827111      38.712551      265.04609    
   3640000  -5.5225298      48.988175      335.39832    
   3650000  -14.966518      55.513884      380.07669    
   3660000  -11.676039      40.214751      275.33093    
   3670000  -5.7594303      42.851422      293.38294    
   3680000  -6.9389107      47.224036      323.32011    
   3690000  -1.2928403      40.540289      277.55973    
   3700000  -2.6737973      44.464475      304.42674    
   3710000  -3.6033917      42.800655      293.03536    
   3720000  -19.649904      48.242054      330.28999    
   3730000  -14.138826      42.076942      288.08045    
   3740000  -13.431751      44.748729      306.37288    
   3750000  -1.4683148      39.745526      272.11838    
   3760000   1.0954263      42.791911      292.9755     
   3770000  -11.351902      44.597467      305.33727    
   3780000  -5.9926523      43.28664       296.36267    
   3790000  -8.0289302      41.488801      284.05374    
   3800000  -6.279213       41.981108      287.42432    
   3810000  -7.6612503      37.691419      258.0549     
   3820000  -6.0244754      44.679239      305.89712    
   3830000  -9.806989       34.876822      238.78472    
   3840000  -3.7590579      47.431636      324.74145    
   3850000   3.1220778      37.527167      256.93034    
   3860000  -2.4285703      46.873278      320.91864    
   3870000   11.533405      45.160796      309.1941     
   3880000   18.943591      39.93383       273.4076     
   3890000  -1.0030699      58.478519      400.37411    
   3900000   4.9609764      44.267335      303.07701    
   3910000   3.5153868      44.638412      305.61759    
   3920000   2.8429423      39.487719      270.35329    
   3930000   3.5443713      39.513662      270.53092    
   3940000   1.4391956      51.733433      354.19377    
   3950000   11.56488       49.141866      336.45056    
   3960000  -2.4226581      59.266159      405.7667     
   3970000   3.724955       47.848772      327.59737    
   3980000   4.6505239      44.611414      305.43275    
   3990000  -6.220934       47.721146      326.72359    
   4000000  -2.0301677      46.065657      315.38925    
Loop time of 116.289 on 1 procs for 4000000 steps with 50 atoms

Performance: 29718.985 ns/day, 0.001 hours/ns, 34396.973 timesteps/s, 1.720 Matom-step/s
99.2% CPU use with 1 MPI tasks x 1 OpenMP threads

MPI task timing breakdown:
Section |  min time  |  avg time  |  max time  |%varavg| %total
---------------------------------------------------------------
Pair    | 98.803     | 98.803     | 98.803     |   0.0 | 84.96
Bond    | 9.4758     | 9.4758     | 9.4758     |   0.0 |  8.15
Neigh   | 1.1509     | 1.1509     | 1.1509     |   0.0 |  0.99
Comm    | 1.6289     | 1.6289     | 1.6289     |   0.0 |  1.40
Output  | 0.057852   | 0.057852   | 0.057852   |   0.0 |  0.05
Modify  | 4.5767     | 4.5767     | 4.5767     |   0.0 |  3.94
Other   |            | 0.5963     |            |       |  0.51

Nlocal:             50 ave          50 max          50 min
Histogram: 1 0 0 0 0 0 0 0 0 0
Nghost:              0 ave           0 max           0 min
Histogram: 1 0 0 0 0 0 0 0 0 0
Neighs:            341 ave         341 max         341 min
Histogram: 1 0 0 0 0 0 0 0 0 0

Total # of neighbors = 341
Ave neighs/atom = 6.82
Ave special neighs/atom = 5.76
Neighbor list builds = 8290
Dangerous builds = 0
Generated 0 of 6 mixed pair_coeff terms from geometric mixing rule
Setting up Verlet run ...
  Unit style    : real
  Current step  : 4000000
  Time step     : 10
Per MPI rank memory allocation (min/avg/max) = 9.625 | 9.625 | 9.625 Mbytes
   Step         PotEng         KinEng          Temp     
   4000000  -2.0301677      46.065657      315.38925    
   4010000  -10.585092      39.743259      272.10285    
   4020000   1.7235268      33.502461      229.37513    
   4030000  -11.85575       46.38067       317.54599    
   4040000  -11.145134      43.581086      298.3786     
   4050000  -6.7218805      48.727482      333.61348    
   4060000  -10.490304      49.45613       338.60218    
   4070000  -9.8489989      49.927071      341.82648    
   4080000  -9.4938258      37.915177      259.58686    
   4090000  -10.181868      49.920338      341.78038    
   4100000  -5.168309       43.246267      296.08625    
   4110000  -0.73259904     42.676703      292.18672    
   4120000  -8.6958762      46.34512       317.3026     
   4130000  -3.6456478      47.162338      322.8977     
   4140000  -7.7719378      45.112238      308.86165    
   4150000  -0.82414625     48.933051      335.02091    
   4160000  -6.2734601      51.514173      352.6926     
   4170000   3.4374767      38.297543      262.20474    
   4180000   5.6881404      45.029577      308.29571    
   4190000  -2.7457656      44.170773      302.41589    
   4200000  -5.1724834      52.759706      361.22016    
   4210000  -9.3206707      49.593052      339.53962    
   4220000  -5.7185683      45.747385      313.2102     
   4230000  -12.547641      45.993307      314.89391    
   4240000  -12.162786      36.760444      251.68096    
   4250000  -4.7203603      46.385892      317.58174    
   4260000  -8.9866308      44.246332      302.93321    
   4270000  -10.987139      37.135188      254.24665    
   4280000  -15.187604      37.756486      258.50038    
   4290000  -15.672408      44.879497      307.26819    
   4300000  -15.374408      44.594511      305.31702    
   4310000  -5.976171       40.077665      274.39237    
   4320000  -1.8622129      45.139984      309.05162    
   4330000  -4.2682579      38.463937      263.34395    
   4340000  -15.543989      38.214907      261.63896    
   4350000  -12.952877      42.77508       292.86027    
   4360000  -1.9200147      49.505276      338.93865    
   4370000  -12.333045      53.773409      368.1605     
   4380000  -3.531832       41.278617      282.61471    
   4390000   7.1148354      35.055561      240.00845    
   4400000  -2.8636009      48.189998      329.93358    
   4410000   8.2228439      49.874604      341.46727    
   4420000   2.7036145      45.717843      313.00793    
   4430000   1.4297732      50.961142      348.90626    
   4440000   0.66898177     42.430584      290.50166    
   4450000  -9.5007051      41.119945      281.52836    
   4460000  -2.3763246      38.574667      264.10207    
   4470000  -3.5100566      46.156659      316.01229    
   4480000  -5.5139172      49.334897      337.77216    
   4490000   6.3228035      44.014029      301.34275    
   4500000   7.2694902      41.08682       281.30156    
   4510000  -3.0654102      42.906551      293.76038    
   4520000  -4.3456722      47.243317      323.45212    
   4530000  -15.738817      57.04094       390.5317     
   4540000  -13.265152      41.397929      283.43158    
   4550000   12.680676      42.686179      292.2516     
   4560000   9.2721874      57.67494       394.87239    
   4570000   3.0559679      51.55703       352.98602    
   4580000   3.9305591      51.821052      354.79366    
   4590000   1.5209499      39.02598       267.19199    
   4600000  -5.3008031      50.801465      347.81304    
   4610000  -7.8010718      48.042569      328.92421    
   4620000  -1.2517053      49.203592      336.87317    
   4630000   1.1808823      47.284681      323.73532    
   4640000   5.0253976      47.449499      324.86375    
   4650000   8.0665237      35.804322      245.13486    
   4660000  -2.2789268      42.334331      289.84267    
   4670000   3.7736696      44.726653      306.22174    
   4680000   8.8767282      49.138075      336.42461    
   4690000   9.4292846      44.97259       307.90555    
   4700000   10.467244      43.272338      296.26475    
   4710000   11.128684      53.351909      365.27469    
   4720000   6.3414147      44.889831      307.33894    
   4730000   16.614613      39.186415      268.29041    
   4740000   16.718216      51.205721      350.58078    
   4750000   6.4231282      46.28765       316.90913    
   4760000   12.882816      56.155778      384.47142    
   4770000   18.656058      56.746076      388.51291    
   4780000   9.0500904      47.140184      322.74601    
   4790000   7.8719175      48.687096      333.33697    
   4800000   10.376948      58.068834      397.5692     
   4810000   9.5955657      49.498448      338.89191    
   4820000   8.2674945      55.585834      380.5693     
   4830000   14.949738      48.395475      331.34038    
   4840000   31.047292      50.522083      345.90024    
   4850000   28.054058      47.982106      328.51025    
   4860000   34.714059      42.601542      291.67213    
   4870000   35.668905      54.93457       376.1104     
   4880000   32.375153      36.149305      247.49679    
   4890000   33.682665      53.909055      369.0892     
   4900000   15.186378      51.109199      349.91994    
   4910000   9.3152532      50.60915       346.49635    
   4920000   1.5466159      43.601712      298.51981    
   4930000   6.9658717      41.697322      285.48138    
   4940000   10.706179      47.51415       325.30638    
   4950000   0.054694084    49.374033      338.0401     
   4960000   14.729516      46.104773      315.65706    
   4970000   17.355254      47.185666      323.05741    
   4980000   8.6211249      48.212777      330.08954    
   4990000   5.0480229      34.502375      236.22106    
   5000000   3.4405887      42.953328      294.08064    
   5010000   9.9981637      43.862542      300.30559    
   5020000   11.264795      51.356908      351.61589    
   5030000   10.513655      50.11368       343.1041     
   5040000   2.6166736      53.643446      367.2707     
   5050000  -2.3981432      36.402181      249.22811    
   5060000  -0.32429796     45.800801      313.57591    
   5070000   5.1407373      56.092396      384.03748    
   5080000   13.657244      48.415237      331.47569    
   5090000   17.705623      54.969401      376.34888    
   5100000   12.600953      49.311389      337.61121    
   5110000   16.517417      54.2905        371.70077    
   5120000   13.387006      49.753145      340.6357     
   5130000   15.743645      49.740496      340.5491     
   5140000   28.69942       54.325189      371.93827    
   5150000   21.402637      43.475192      297.65359    
   5160000   25.62216       44.31554       303.40705    
   5170000   13.479178      52.910592      362.2532     
   5180000   7.0532515      41.590945      284.75306    
   5190000  -5.1269036      37.324236      255.54097    
   5200000  -8.7226545      50.638892      346.69998    
   5210000  -4.7646271      54.923011      376.03127    
   5220000   11.679869      44.011508      301.32549    
   5230000   10.742512      49.726935      340.45625    
   5240000   10.794053      47.970997      328.43419    
   5250000   13.867714      43.89012       300.4944     
   5260000   13.955861      51.203178      350.56337    
   5270000   33.098136      51.04016       349.44726    
   5280000   22.586118      58.726592      402.07254    
   5290000   24.543479      43.852698      300.23819    
   5300000   25.816351      61.894199      423.75961    
   5310000   20.920633      55.272653      378.42509    
   5320000   16.653585      46.493242      318.31672    
   5330000   15.408785      42.8472        293.35403    
   5340000   11.442425      45.362098      310.57232    
   5350000   16.304953      39.713601      271.8998     
   5360000   14.980018      40.276881      275.75631    
   5370000   8.6395892      45.371269      310.63511    
   5380000   13.08451       48.230972      330.21412    
   5390000   19.43503       43.771925      299.68518    
   5400000   21.266886      46.34675       317.31376    
   5410000   19.903977      56.665048      387.95815    
   5420000   30.879488      53.39131       365.54445    
   5430000   36.852527      45.677034      312.72854    
   5440000   26.327009      49.287771      337.44951    
   5450000   38.131791      50.044572      342.63095    
   5460000   17.212892      57.383259      392.87539    
   5470000   24.44935       52.897303      362.16222    
   5480000   18.02493       51.39812       351.89804    
   5490000   14.459476      51.334786      351.46443    
   5500000   25.046284      51.633414      353.50898    
   5510000   11.607555      60.119613      411.60989    
   5520000   14.853566      46.030232      315.14672    
   5530000   4.9123029      45.767654      313.34897    
   5540000   18.248591      49.535695      339.14692    
   5550000   21.817914      42.948769      294.04943    
   5560000   12.131216      48.165273      329.7643     
   5570000   10.942185      46.603312      319.07031    
   5580000   9.9059333      50.324079      344.5446     
   5590000   10.072588      46.472107      318.17201    
   5600000   19.858911      42.75374       292.71416    
   5610000   26.569828      54.942721      376.16621    
   5620000   19.109403      53.600902      366.97943    
   5630000   8.7484705      64.007658      438.22945    
   5640000   20.520027      56.515678      386.93548    
   5650000   22.16494       54.309421      371.83031    
   5660000   19.245988      51.235877      350.78724    
   5670000   16.37503       50.838104      348.06388    
   5680000   32.894526      39.376189      269.5897     
   5690000   18.821428      46.96416       321.54087    
   5700000   19.053727      57.333691      392.53603    
   5710000   17.555983      48.935829      335.03993    
   5720000   19.82927       44.990615      308.02896    
   5730000   14.491341      52.934154      362.41453    
   5740000   13.028186      56.05155       383.75783    
   5750000   17.996429      53.476189      366.12557    
   5760000   18.427716      56.805203      388.91772    
   5770000   22.135467      49.406399      338.26169    
   5780000   14.53335       62.145052      425.47708    
   5790000   13.306205      55.070637      377.04199    
   5800000   3.5581677      57.903171      396.43498    
   5810000   23.9274        57.152322      391.29428    
   5820000   26.289271      46.336421      317.24304    
   5830000   23.490968      53.419563      365.73789    
   5840000   23.930464      51.607701      353.33294    
   5850000   24.231036      51.12727       350.04366    
   5860000   33.365166      47.932475      328.17045    
   5870000   39.580078      61.574581      421.57135    
   5880000   21.7252        67.531154      462.35311    
   5890000   15.867093      55.712571      381.437      
   5900000   13.663994      44.98895       308.01756    
   5910000   10.697766      53.929975      369.23243    
   5920000   9.8419995      55.693946      381.30948    
   5930000   15.973358      45.636755      312.45277    
   5940000   7.633911       49.242664      337.14068    
   5950000   10.020804      46.708876      319.79306    
   5960000   21.695802      58.750929      402.23916    
   5970000   24.939698      49.75527       340.65024    
   5980000   25.985904      45.323926      310.31098    
   5990000   19.801301      45.90032       314.25727    
   6000000   23.486029      41.874619      286.69524    
   6010000   17.018111      53.803939      368.36952    
   6020000   16.406435      45.445594      311.14398    
   6030000   23.893058      40.519462      277.41714    
   6040000   14.547442      46.782971      320.30036    
   6050000   22.154004      50.815739      347.91076    
   6060000   21.427375      51.533072      352.82199    
   6070000   23.695833      58.008761      397.1579     
   6080000   28.312232      61.779897      422.97704    
   6090000   21.588878      65.149085      446.04424    
   6100000   32.47157       67.662527      463.25256    
   6110000   30.3905        56.983428      390.13795    
   6120000   32.589703      46.827889      320.60788    
   6130000   30.400477      48.111316      329.39488    
   6140000   32.178123      62.664088      429.03067    
   6150000   35.425561      45.598907      312.19364    
   6160000   23.704727      49.303887      337.55985    
   6170000   39.628312      59.959681      410.51491    
   6180000   37.180819      61.514346      421.15895    
   6190000   32.39994       60.368173      413.31165    
   6200000   46.827616      64.535294      441.84191    
   6210000   25.331125      56.340731      385.73771    
   6220000   28.121603      45.546752      311.83656    
   6230000   37.851234      47.341946      324.12739    
   6240000   35.477835      50.143419      343.30771    
   6250000   33.035482      44.874449      307.23362    
   6260000   31.346246      57.563296      394.10802    
   6270000   26.542026      51.6451        353.589      
   6280000   31.479627      50.900889      348.49374    
   6290000   26.324206      60.025448      410.96518    
   6300000   35.28501       51.057175      349.56376    
   6310000   10.941839      50.300786      344.38513    
   6320000   21.353213      52.369973      358.55185    
   6330000   18.676031      51.211823      350.62256    
   6340000   40.429043      43.771846      299.68464    
   6350000   22.847982      57.651801      394.71397    
   6360000   21.274115      50.879255      348.34562    
   6370000   28.613183      59.71483       408.83853    
   6380000   40.923026      57.120615      391.07719    
   6390000   29.731068      46.447606      318.00427    
   6400000   33.808406      56.434002      386.37629    
   6410000   29.970373      47.091057      322.40967    
   6420000   33.279929      46.228823      316.50637    
   6430000   29.465658      56.322997      385.61629    
   6440000   38.172569      48.126017      329.49554    
   6450000   32.771444      60.375558      413.36222    
   6460000   39.806996      58.761436      402.3111     
   6470000   39.055918      60.098064      411.46235    
   6480000   38.161203      53.778378      368.19452    
   6490000   43.1822        56.273601      385.2781     
   6500000   46.792017      49.97134       342.12957    
   6510000   37.907941      51.300421      351.22914    
   6520000   35.819905      58.998291      403.93274    
   6530000   34.536779      48.062007      329.05729    
   6540000   41.15675       43.483375      297.70961    
   6550000   21.402963      53.180198      364.09907    
   6560000   30.884014      51.342953      351.52034    
   6570000   28.839383      54.644734      374.12603    
   6580000   18.375878      50.279082      344.23653    
   6590000   18.157416      46.057475      315.33323    
   6600000   20.079825      45.958095      314.65283    
   6610000   18.943831      44.587101      305.26629    
   6620000   28.04419       49.82015       341.09445    
   6630000   28.727608      56.123604      384.25114    
   6640000   25.244944      58.873643      403.07933    
   6650000   29.414487      50.184         343.58555    
   6660000   43.411687      53.2863        364.8255     
   6670000   31.318221      64.063435      438.61133    
   6680000   32.895487      53.041005      363.14608    
   6690000   31.193243      63.298451      433.37385    
   6700000   49.472016      67.930413      465.08665    
   6710000   35.167258      46.509765      318.42984    
   6720000   24.2317        60.285216      412.74368    
   6730000   38.414669      52.884061      362.07156    
   6740000   33.620982      61.179856      418.86885    
   6750000   25.766737      64.944514      444.64365    
   6760000   26.678023      61.992781      424.43456    
   6770000   25.109708      62.84516       430.27038    
   6780000   21.84813       43.352979      296.81686    
   6790000   33.672342      42.38628       290.19834    
   6800000   21.178562      56.241287      385.05686    
   6810000   23.989793      43.262412      296.19679    
   6820000   20.323406      42.512756      291.06426    
   6830000   10.53303       51.083458      349.7437     
   6840000   22.049488      49.973704      342.14576    
   6850000   18.520396      50.403192      345.08625    
   6860000   7.5886967      54.340257      372.04143    
   6870000   11.291793      41.122676      281.54706    
   6880000   9.5600582      38.819344      265.77726    
   6890000  -5.0287024      53.564829      366.73245    
   6900000   7.0697175      44.484704      304.56523    
   6910000   8.8603496      53.060848      363.28193    
   6920000   0.60231074     52.311834      358.1538     
   6930000   20.582385      58.489757      400.45105    
   6940000   40.584051      54.305324      371.80226    
   6950000   25.296462      57.186459      391.528      
   6960000   25.221306      59.927573      410.29508    
   6970000   31.344918      48.390005      331.30294    
   6980000   26.664268      58.378952      399.69242    
   6990000   31.847379      49.98406       342.21666    
   7000000   38.620878      46.220858      316.45184    
   7010000   37.846528      56.943973      389.86781    
   7020000   29.037697      59.252663      405.6743     
   7030000   46.213898      48.671312      333.22891    
   7040000   27.63142       71.765148      491.34122    
   7050000   31.775722      47.786891      327.1737     
   7060000   23.042293      49.232995      337.07448    
   7070000   23.834753      40.416692      276.71352    
   7080000   12.592686      69.082321      472.97321    
   7090000   20.556996      52.51895       359.57183    
   7100000   22.583348      56.226849      384.95801    
   7110000   13.086585      56.769694      388.67461    
   7120000   3.5599928      52.037761      356.27735    
   7130000   20.357204      56.431874      386.36172    
   7140000   28.576934      61.344976      419.99935    
   7150000   38.626125      51.432846      352.1358     
   7160000   28.261309      50.698294      347.10667    
   7170000   20.692502      57.325564      392.48039    
   7180000   33.465637      51.830776      354.86023    
   7190000   24.026873      63.483279      434.63928    
   7200000   28.006622      51.332472      351.44859    
   7210000   23.681709      57.413639      393.08339    
   7220000   32.240697      57.792743      395.67893    
   7230000   40.457438      58.412715      399.92358    
   7240000   38.113086      62.843915      430.26186    
   7250000   40.361202      53.27714       364.76278    
   7260000   34.279265      57.468315      393.45773    
   7270000   36.357999      57.264025      392.05905    
   7280000   31.998959      62.842725      430.25371    
   7290000   32.387192      53.492472      366.23706    
   7300000   35.826757      52.972259      362.67541    
   7310000   37.507125      54.585668      373.72164    
   7320000   46.005051      55.396235      379.2712     
   7330000   36.796881      58.548043      400.85011    
   7340000   40.824667      59.383907      406.57286    
   7350000   27.850332      57.287743      392.22144    
   7360000   30.318854      55.090478      377.17783    
   7370000   35.522823      54.430014      372.65595    
   7380000   30.539701      51.522196      352.74753    
   7390000   29.935992      46.039426      315.20966    
   7400000   38.27496       47.773809      327.08414    
   7410000   31.302092      53.779981      368.20549    
   7420000   35.000423      51.84648       354.96775    
   7430000   52.47808       63.88061       437.35961    
   7440000   40.729289      56.620509      387.65321    
   7450000   36.203981      60.997947      417.62341    
   7460000   33.595687      59.821905      409.57162    
   7470000   38.349231      50.766068      347.57069    
   7480000   33.111573      56.962373      389.99379    
   7490000   36.542466      62.195137      425.81999    
   7500000   38.467288      60.788923      416.19232    
   7510000   53.658714      61.957575      424.19352    
   7520000   31.540576      70.43183       482.21264    
   7530000   32.21196       65.133602      445.93824    
   7540000   31.380007      72.962669      499.54007    
   7550000   33.771868      49.30581       337.57301    
   7560000   27.162614      49.562957      339.33357    
   7570000   25.960224      55.228036      378.11962    
   7580000   29.637192      64.954702      444.7134     
   7590000   25.675147      58.637186      401.46042    
   7600000   29.488187      49.224162      337.01401    
   7610000   33.640557      51.333693      351.45694    
   7620000   28.307466      50.843755      348.10258    
   7630000   21.748697      63.054177      431.70142    
   7640000   25.786899      57.703269      395.06634    
   7650000   18.078773      59.345533      406.31013    
   7660000   30.903096      57.891703      396.35646    
   7670000   31.345841      60.475785      414.04842    
   7680000   38.209574      49.827455      341.14446    
   7690000   38.274963      54.334832      372.00429    
   7700000   42.308407      53.102049      363.56402    
   7710000   39.759231      73.08539       500.38028    
   7720000   34.415744      73.647023      504.22551    
   7730000   31.858805      66.856281      457.73258    
   7740000   36.565018      74.151165      507.67712    
   7750000   53.38787       68.180537      466.79913    
   7760000   40.324737      54.442093      372.73865    
   7770000   28.646066      50.442391      345.35463    
   7780000   30.598096      57.012107      390.33429    
   7790000   28.330323      51.051131      349.52237    
   7800000   22.773848      55.17357       377.74672    
   7810000   17.813691      57.022718      390.40694    
   7820000   26.668028      58.175628      398.30036    
   7830000   7.5857696      76.016686      520.44944    
   7840000   13.463858      63.677477      435.96885    
   7850000   11.91687       53.140008      363.82391    
   7860000   30.142028      46.624798      319.21742    
   7870000   30.314038      66.134371      452.79002    
   7880000   39.210732      63.818468      436.93415    
   7890000   44.954483      58.158314      398.18182    
   7900000   41.109165      70.784164      484.6249     
   7910000   37.842637      71.885045      492.1621     
   7920000   42.278508      71.205886      487.51223    
   7930000   36.853626      65.559605      448.85487    
   7940000   36.273712      54.449276      372.78783    
   7950000   37.969185      58.139794      398.05502    
   7960000   33.307271      51.786158      354.55475    
   7970000   33.751638      61.385954      420.27991    
   7980000   29.877364      55.967029      383.17915    
   7990000   36.359152      60.589922      414.82986    
   8000000   34.969179      64.167275      439.32227    
   8010000   39.047692      55.428786      379.49406    
   8020000   32.639594      63.814146      436.90456    
   8030000   21.482217      59.304404      406.02854    
   8040000   39.449034      54.134723      370.63424    
   8050000   42.925613      56.616755      387.62751    
   8060000   43.280313      59.678923      408.59269    
   8070000   39.01782       76.202656      521.72269    
   8080000   38.067874      75.793999      518.92482    
   8090000   33.68564       54.352646      372.12625    
   8100000   39.27306       44.893043      307.36093    
   8110000   40.060171      67.799891      464.19303    
   8120000   38.866725      61.008079      417.69278    
   8130000   34.511904      54.336743      372.01737    
   8140000   39.233249      59.045735      404.25756    
   8150000   37.030558      56.542124      387.11655    
   8160000   33.741503      49.688253      340.19141    
   8170000   30.271855      66.35096       454.2729     
   8180000   38.733022      64.537589      441.85763    
   8190000   43.725367      56.729387      388.39865    
   8200000   41.492731      51.664455      353.72151    
   8210000   30.495498      70.450396      482.33975    
   8220000   30.986079      52.860795      361.91227    
   8230000   34.158518      61.241217      419.28896    
   8240000   25.713885      61.843508      423.41256    
   8250000   36.50588       68.890233      471.65807    
   8260000   33.985842      70.52247       482.83321    
   8270000   25.542255      64.116644      438.97562    
   8280000   31.039454      61.093771      418.27947    
   8290000   20.473293      62.4516        427.57587    
   8300000   32.46567       59.592761      408.00279    
   8310000   31.270457      56.377737      385.99107    
   8320000   32.291983      52.813962      361.59163    
   8330000   11.989853      65.924737      451.35476    
   8340000   15.821946      51.083204      349.74197    
   8350000   22.189674      58.131342      397.99715    
   8360000   14.493144      46.650555      319.39377    
   8370000   21.937668      49.825156      341.12872    
   8380000   24.22919       52.273044      357.88823    
   8390000   21.641672      57.590245      394.29252    
   8400000   24.475953      49.640203      339.86244    
   8410000   34.80324       59.689207      408.6631     
   8420000   47.958263      56.302838      385.47828    
   8430000   29.393312      62.079698      425.02963    
   8440000   23.117769      55.1836        377.81539    
   8450000   35.422455      57.522226      393.82683    
   8460000   42.535576      65.281309      446.94952    
   8470000   46.612071      64.441753      441.20148    
   8480000   38.257306      62.372289      427.03287    
   8490000   35.970281      63.482407      434.6333     
   8500000   36.724585      54.296241      371.74007    
   8510000   42.704689      68.182094      466.80978    
   8520000   37.48088       60.63783       415.15786    
   8530000   43.370061      59.579315      407.91072    
   8540000   36.316995      70.793966      484.69201    
   8550000   33.430371      59.81645       409.53427    
   8560000   40.385785      56.575472      387.34486    
   8570000   36.485809      64.223746      439.7089     
   8580000   48.486773      53.268401      364.70295    
   8590000   37.899686      73.135413      500.72277    
   8600000   36.684226      62.225052      426.02481    
   8610000   39.432302      68.702254      470.37107    
   8620000   33.191014      72.861223      498.84552    
   8630000   39.212998      46.614397      319.14621    
   8640000   30.130601      65.945626      451.49777    
   8650000   39.386775      67.109424      459.46573    
   8660000   43.187418      51.132756      350.08122    
   8670000   47.274007      56.959793      389.97612    
   8680000   43.819252      59.16516       405.0752     
   8690000   42.387457      51.208342      350.59872    
   8700000   30.210265      60.078045      411.32529    
   8710000   32.147047      54.943347      376.1705     
   8720000   37.103147      66.424212      454.77442    
   8730000   44.252835      64.725703      443.14555    
   8740000   40.008878      63.8823        437.37118    
   8750000   38.652945      47.554262      325.58101    
   8760000   42.217572      61.57161       421.551      
   8770000   30.629975      55.860617      382.4506     
   8780000   38.65807       60.116254      411.58688    
   8790000   37.086726      57.640573      394.6371     
   8800000   28.138765      75.901595      519.66147    
   8810000   36.681006      60.80913       416.33067    
   8820000   30.388766      63.515695      434.86121    
   8830000   38.655527      76.147791      521.34706    
   8840000   40.482814      71.724705      491.06433    
   8850000   40.356261      73.205733      501.20421    
   8860000   37.985963      60.283712      412.73339    
   8870000   51.525208      57.726147      395.22298    
   8880000   37.119642      61.809561      423.18014    
   8890000   43.539479      55.334202      378.84649    
   8900000   35.70199       59.04419       404.24699    
   8910000   27.71843       66.560814      455.70967    
   8920000   47.263705      62.653049      428.95509    
   8930000   33.413102      70.75666       484.43659    
   8940000   54.236962      81.192082      555.88288    
   8950000   46.364912      65.784693      450.39595    
   8960000   38.818949      61.502346      421.07679    
   8970000   47.322753      59.255182      405.69154    
   8980000   31.094754      60.598628      414.88947    
   8990000   39.616956      68.838097      471.30113    
   9000000   40.387174      71.328213      488.34974    
   9010000   44.197859      62.485484      427.80786    
   9020000   26.330574      71.256622      487.85959    
   9030000   44.234646      63.107558      432.0669     
   9040000   38.576709      65.154168      446.07905    
   9050000   49.618292      58.994152      403.90439    
   9060000   43.054549      62.097015      425.1482     
   9070000   43.067558      68.345275      467.92701    
   9080000   35.8963        61.900483      423.80264    
   9090000   37.555108      60.369703      413.32213    
   9100000   48.891872      62.89988       430.64502    
   9110000   37.782047      48.05525       329.01103    
   9120000   42.247534      54.745021      374.81265    
   9130000   24.545558      77.954656      533.71779    
   9140000   55.072164      57.938007      396.67348    
   9150000   44.215184      66.218187      453.36386    
   9160000   49.547201      70.448006      482.32339    
   9170000   45.962538      58.088773      397.70571    
   9180000   34.500511      67.22463       460.25449    
   9190000   47.849432      67.030977      458.92865    
   9200000   41.978757      72.541196      496.65445    
   9210000   37.418346      58.164675      398.22537    
   9220000   41.151168      53.516403      366.4009     
   9230000   44.68431       68.178928      466.78811    
   9240000   38.775777      62.722698      429.43195    
   9250000   38.36588       61.260132      419.41847    
   9260000   42.327452      61.329195      419.89131    
   9270000   37.458487      69.178748      473.6334     
   9280000   53.133997      57.713183      395.13422    
   9290000   38.858839      69.184901      473.67552    
   9300000   61.246758      69.13221       473.31477    
   9310000   36.284947      68.002543      465.58049    
   9320000   31.726291      67.462174      461.88084    
   9330000   48.236936      60.415304      413.63434    
   9340000   33.91853       44.99652       308.06939    
   9350000   34.547403      57.817294      395.84702    
   9360000   35.139901      51.630535      353.48928    
   9370000   42.047668      53.873507      368.84582    
   9380000   32.309391      62.655193      428.96977    
   9390000   40.083764      56.946411      389.88451    
   9400000   32.842011      72.717503      497.86154    
   9410000   48.342703      56.175504      384.60648    
   9420000   41.856405      62.274902      426.36611    
   9430000   39.727111      76.432173      523.29408    
   9440000   51.379213      64.025054      438.34855    
   9450000   38.052789      66.303718      453.94946    
   9460000   39.293186      59.760483      409.15109    
   9470000   44.249598      63.880205      437.35684    
   9480000   32.883729      72.276508      494.84226    
   9490000   44.517033      61.223183      419.16549    
   9500000   49.217523      61.633376      421.97389    
   9510000   33.808132      73.217165      501.28248    
   9520000   39.30994       61.276744      419.5322     
   9530000   41.250852      67.528306      462.33362    
   9540000   57.081696      60.472287      414.02447    
   9550000   44.359512      65.338189      447.33895    
   9560000   38.482577      71.454912      489.21719    
   9570000   29.205363      58.083957      397.67273    
   9580000   37.142365      62.721618      429.42455    
   9590000   40.328255      63.84587       437.12176    
   9600000   41.866175      81.423123      557.4647     
   9610000   40.499571      73.789821      505.20318    
   9620000   47.730221      67.364883      461.21474    
   9630000   40.879208      53.25663       364.62236    
   9640000   42.785454      71.930324      492.4721     
   9650000   55.28217       66.923554      458.19317    
   9660000   48.496145      63.042545      431.62178    
   9670000   47.203542      74.503347      510.08834    
   9680000   33.434408      71.972025      492.75761    
   9690000   41.008535      72.199811      494.31715    
   9700000   44.831451      77.27114       529.03808    
   9710000   49.845466      82.56367       565.27347    
   9720000   43.67458       69.663094      476.94948    
   9730000   37.390023      55.515566      380.0882     
   9740000   35.614084      71.377426      488.68668    
   9750000   43.119223      82.936307      567.82474    
   9760000   44.824533      68.403704      468.32704    
   9770000   42.298405      58.263809      398.9041     
   9780000   39.254766      62.705577      429.31473    
   9790000   31.530408      71.850698      491.92695    
   9800000   35.00443       58.466675      400.29302    
   9810000   31.004248      60.508202      414.27036    
   9820000   38.602057      59.564759      407.81107    
   9830000   37.497087      64.8037        443.67956    
   9840000   45.938127      78.761702      539.24324    
   9850000   45.830353      73.70667       504.63389    
   9860000   53.522091      64.513103      441.68998    
   9870000   38.898376      66.536563      455.54363    
   9880000   42.66287       61.412533      420.46188    
   9890000   41.309812      73.44066       502.81265    
   9900000   43.950569      61.778065      422.9645     
   9910000   52.276069      64.32086       440.37379    
   9920000   46.319052      46.664674      319.49043    
   9930000   40.668385      61.108273      418.37876    
   9940000   41.391274      58.779097      402.43202    
   9950000   28.993685      77.304096      529.26372    
   9960000   35.838385      60.665704      415.3487     
   9970000   43.921559      53.339273      365.18818    
   9980000   53.032745      60.719324      415.71582    
   9990000   34.554425      75.951531      520.00336    
  10000000   25.65499       67.092478      459.34971    
  10010000   36.451621      70.215989      480.73488    
  10020000   53.678383      68.225085      467.10413    
  10030000   42.473302      70.375962      481.83014    
  10040000   43.579626      65.270133      446.873      
  10050000   41.555909      65.491642      448.38956    
  10060000   44.563105      62.340973      426.81846    
  10070000   51.994912      65.61297       449.22024    
  10080000   36.841085      63.314283      433.48224    
  10090000   37.156299      70.630087      483.57001    
  10100000   34.686211      63.177239      432.54397    
  10110000   48.667421      55.728652      381.5471     
  10120000   35.328545      68.879569      471.58506    
  10130000   51.381485      65.487412      448.36061    
  10140000   42.517491      62.298916      426.53051    
  10150000   45.4817        69.505287      475.86905    
  10160000   40.256618      76.711746      525.20819    
  10170000   42.069612      64.332724      440.45501    
  10180000   49.42123       64.357591      440.62527    
  10190000   34.294212      62.478814      427.76219    
  10200000   42.566542      69.609703      476.58394    
  10210000   46.396386      70.139952      480.21429    
  10220000   53.150885      70.62123       483.50937    
  10230000   35.649482      64.100379      438.86426    
  10240000   34.377657      45.780181      313.43473    
  10250000   31.991018      66.161378      452.97492    
  10260000   41.478495      57.757944      395.44068    
  10270000   45.398014      62.043201      424.77976    
  10280000   22.278076      75.373068      516.04291    
  10290000   44.49964       76.785459      525.71286    
  10300000   44.194828      74.049182      506.9789     
  10310000   50.456341      63.117437      432.13453    
  10320000   29.740497      72.357402      495.3961     
  10330000   57.35243       55.126185      377.4223     
  10340000   41.802714      55.219089      378.05837    
  10350000   39.344724      81.40012       557.30721    
  10360000   39.334797      56.139505      384.36001    
  10370000   51.45804       68.865063      471.48575    
  10380000   46.197101      78.025846      534.20519    
  10390000   45.792698      58.587561      401.12066    
  10400000   38.501059      54.033297      369.93983    
  10410000   38.743647      77.555353      530.98396    
  10420000   40.931714      64.840067      443.92855    
  10430000   51.377235      71.052611      486.46283    
  10440000   41.697726      72.215396      494.42386    
  10450000   46.786969      71.389508      488.7694     
  10460000   41.933222      78.056576      534.41559    
  10470000   36.103036      71.919225      492.39611    
  10480000   46.243733      65.314003      447.17336    
  10490000   44.218675      66.492567      455.24242    
  10500000   35.838216      70.327988      481.50168    
  10510000   37.801276      68.67914       470.21282    
  10520000   37.745559      71.713587      490.98821    
  10530000   41.861885      58.236791      398.71912    
  10540000   40.587042      82.915496      567.68226    
  10550000   52.444078      79.060177      541.28676    
  10560000   40.187166      71.751233      491.24595    
  10570000   48.339988      65.791869      450.44508    
  10580000   36.120251      88.728845      607.48344    
  10590000   40.194783      75.35034       515.8873     
  10600000   40.17404       66.355433      454.30353    
  10610000   62.702426      74.236291      508.25994    
  10620000   51.796074      85.898345      588.10438    
  10630000   44.701404      78.227382      535.58501    
  10640000   42.097404      62.120197      425.30691    
  10650000   48.899651      68.987343      472.32294    
  10660000   45.729749      71.06171       486.52512    
  10670000   55.980159      79.35507       543.30575    
  10680000   57.909933      84.476182      578.36752    
  10690000   48.033606      76.078234      520.87084    
  10700000   41.312753      75.393476      516.18263    
  10710000   43.490234      58.356052      399.53564    
  10720000   34.623767      67.334239      461.00493    
  10730000   61.841583      78.363432      536.51648    
  10740000   35.583963      66.898736      458.02325    
  10750000   43.554348      65.948317      451.5162     
  10760000   49.377864      70.895866      485.38967    
  10770000   57.518063      83.889495      574.35076    
  10780000   51.112811      67.727386      463.69662    
  10790000   43.694703      69.287712      474.37942    
  10800000   36.528483      81.3694        557.09689    
  10810000   40.384563      60.46236       413.9565     
  10820000   50.377664      59.356465      406.38498    
  10830000   45.667554      62.299174      426.53229    
  10840000   44.758675      73.506196      503.26134    
  10850000   43.031806      78.763845      539.25791    
  10860000   43.856996      80.723848      552.67711    
  10870000   33.272274      68.143946      466.5486     
  10880000   32.344288      66.366796      454.38132    
  10890000   39.124936      55.207876      377.9816     
  10900000   20.176206      67.493033      462.09212    
  10910000   46.231934      61.517212      421.17857    
  10920000   52.743347      81.494925      557.95629    
  10930000   51.395317      68.014097      465.6596     
  10940000   44.115421      51.677711      353.81227    
  10950000   38.294608      73.545098      503.52768    
  10960000   32.890746      49.538788      339.1681     
  10970000   37.250285      60.91103       417.02834    
  10980000   41.451359      64.171228      439.34933    
  10990000   39.395863      79.997635      547.70507    
  11000000   43.145941      59.05476       404.31935    
  11010000   25.948114      64.371401      440.71981    
  11020000   52.820081      52.75861       361.21266    
  11030000   46.442105      60.847784      416.59532    
  11040000   46.476032      58.744947      402.19821    
  11050000   50.607037      57.405746      393.02935    
  11060000   36.643447      71.478263      489.37706    
  11070000   42.285621      62.98091       431.1998     
  11080000   24.554782      67.464979      461.90005    
  11090000   38.415013      72.793458      498.38157    
  11100000   43.213648      64.42353       441.07672    
  11110000   38.080834      82.997187      568.24156    
  11120000   51.892739      60.465244      413.97626    
  11130000   34.851543      50.715996      347.22787    
  11140000   32.943303      65.134172      445.94214    
  11150000   36.549886      71.810527      491.65191    
  11160000   37.767761      77.239753      528.82319    
  11170000   40.271971      68.826658      471.22281    
  11180000   48.706638      64.205192      439.58186    
  11190000   49.628393      77.082008      527.74319    
  11200000   49.767611      58.28348       399.03877    
  11210000   40.360904      62.102157      425.18341    
  11220000   46.858029      54.81088       375.26356    
  11230000   38.409707      62.743369      429.57347    
  11240000   41.054648      78.895163      540.15698    
  11250000   54.086332      67.409155      461.51785    
  11260000   39.57456       70.324086      481.47497    
  11270000   39.946312      75.721122      518.42586    
  11280000   41.550593      60.969842      417.43099    
  11290000   36.854833      69.181036      473.64906    
  11300000   52.31022       65.266464      446.84788    
  11310000   40.827249      69.82256       478.04126    
  11320000   41.720331      64.326612      440.41317    
  11330000   59.889396      67.306537      460.81527    
  11340000   44.520206      69.926511      478.75296    
  11350000   46.957425      69.443482      475.4459     
  11360000   37.38037       60.962459      417.38045    
  11370000   52.922658      57.984597      396.99246    
  11380000   54.249969      73.951403      506.30945    
  11390000   49.318552      65.790487      450.43561    
  11400000   56.958347      80.009947      547.78937    
  11410000   45.760019      87.373748      598.20575    
  11420000   38.695187      72.930745      499.3215     
  11430000   45.974422      68.354992      467.99354    
  11440000   45.283365      61.727999      422.62172    
  11450000   45.403378      67.702391      463.52549    
  11460000   39.416616      85.721726      586.89515    
  11470000   50.350111      71.766867      491.353      
  11480000   36.525388      77.258597      528.95221    
  11490000   35.031347      78.254453      535.77035    
  11500000   54.047773      69.828167      478.07965    
  11510000   46.180807      79.660716      545.39835    
  11520000   53.364222      76.681271      524.99954    
  11530000   45.257372      75.257532      515.25189    
  11540000   47.099137      73.198103      501.15197    
  11550000   39.592686      57.550358      394.01944    
  11560000   41.326889      77.416784      530.03524    
  11570000   42.958045      78.40875       536.82675    
  11580000   45.330843      73.44521       502.84379    
  11590000   54.697333      76.750519      525.47364    
  11600000   40.442021      69.178781      473.63362    
  11610000   44.113995      83.782456      573.61791    
  11620000   59.097337      60.268196      412.62716    
  11630000   38.858746      79.409602      543.6791     
  11640000   46.79359       72.390266      495.6211     
  11650000   39.377923      65.505859      448.4869     
  11660000   56.236455      60.359013      413.24894    
  11670000   41.186339      81.52792       558.18219    
  11680000   55.396404      65.650937      449.48018    
  11690000   45.364763      71.716948      491.01122    
  11700000   47.248245      67.813722      464.28772    
  11710000   47.184624      84.247827      576.80408    
  11720000   46.862707      73.664008      504.3418     
  11730000   43.401949      65.115996      445.8177     
  11740000   47.442762      70.792512      484.68206    
  11750000   49.235051      79.034377      541.11011    
  11760000   46.622753      76.255125      522.08192    
  11770000   42.42497       69.88523       478.47033    
  11780000   37.11091       74.899234      512.79879    
  11790000   44.069639      84.325282      577.33438    
  11800000   51.623376      76.13037       521.22779    
  11810000   41.453675      73.878159      505.80799    
  11820000   53.716637      68.394925      468.26694    
  11830000   44.734586      71.757899      491.29159    
  11840000   38.290398      67.104258      459.43037    
  11850000   54.186117      71.646207      490.52689    
  11860000   34.259341      69.027271      472.59631    
  11870000   38.597986      79.505556      544.33605    
  11880000   48.767476      63.707927      436.17733    
  11890000   46.794849      69.062453      472.83718    
  11900000   47.123594      65.043236      445.31955    
  11910000   48.302701      72.806889      498.47352    
  11920000   41.630396      87.929946      602.01377    
  11930000   38.164371      63.7338        436.35447    
  11940000   40.391772      74.185296      507.91081    
  11950000   40.397883      64.267971      440.01168    
  11960000   36.475721      76.911226      526.57393    
  11970000   46.99987       77.785191      532.55754    
  11980000   38.847025      97.025778      664.28853    
  11990000   50.456713      80.154796      548.78108    
  12000000   48.314962      81.269876      556.4155     
Loop time of 131.349 on 1 procs for 8000000 steps with 50 atoms

Performance: 52623.039 ns/day, 0.000 hours/ns, 60906.295 timesteps/s, 3.045 Matom-step/s
99.2% CPU use with 1 MPI tasks x 1 OpenMP threads

MPI task timing breakdown:
Section |  min time  |  avg time  |  max time  |%varavg| %total
---------------------------------------------------------------
Pair    | 95.913     | 95.913     | 95.913     |   0.0 | 73.02
Bond    | 19.07      | 19.07      | 19.07      |   0.0 | 14.52
Neigh   | 2.8407     | 2.8407     | 2.8407     |   0.0 |  2.16
Comm    | 3.0952     | 3.0952     | 3.0952     |   0.0 |  2.36
Output  | 0.10432    | 0.10432    | 0.10432    |   0.0 |  0.08
Modify  | 9.1388     | 9.1388     | 9.1388     |   0.0 |  6.96
Other   |            | 1.187      |            |       |  0.90

Nlocal:             50 ave          50 max          50 min
Histogram: 1 0 0 0 0 0 0 0 0 0
Nghost:              0 ave           0 max           0 min
Histogram: 1 0 0 0 0 0 0 0 0 0
Neighs:            199 ave         199 max         199 min
Histogram: 1 0 0 0 0 0 0 0 0 0

Total # of neighbors = 199
Ave neighs/atom = 3.98
Ave special neighs/atom = 5.76
Neighbor list builds = 21742
Dangerous builds = 0
Generated 0 of 6 mixed pair_coeff terms from geometric mixing rule
Setting up Verlet run ...
  Unit style    : real
  Current step  : 12000000
  Time step     : 10
Per MPI rank memory allocation (min/avg/max) = 9.625 | 9.625 | 9.625 Mbytes
   Step         PotEng         KinEng          Temp     
  12000000   48.314962      81.269876      556.4155     
  12010000   40.678086      77.474963      530.43356    
  12020000   43.749946      73.980402      506.50799    
  12030000   53.813311      75.414579      516.32711    
  12040000   45.294632      84.213531      576.56927    
  12050000   59.817095      61.500257      421.06249    
  12060000   37.442973      71.616679      490.32473    
  12070000   44.747962      78.766442      539.2757     
  12080000   40.836621      73.434509      502.77053    
  12090000   38.909739      81.948911      561.06452    
  12100000   49.693183      86.64216       593.19692    
  12110000   53.552058      92.441651      632.90323    
  12120000   44.851949      93.591157      640.77334    
  12130000   46.41791       74.055929      507.02509    
  12140000   47.571562      94.01466       643.67286    
  12150000   40.308832      86.332173      591.07459    
  12160000   51.622826      75.876985      519.49298    
  12170000   46.505873      59.190064      405.24571    
  12180000   47.04576       74.12156       507.47443    
  12190000   44.608613      65.831065      450.71343    
  12200000   46.434648      70.50887       482.7401     
  12210000   41.545759      71.698857      490.88736    
  12220000   53.516518      73.789022      505.19771    
  12230000   53.939006      69.337396      474.71958    
  12240000   50.850503      68.075524      466.08015    
  12250000   48.726631      64.531337      441.81482    
  12260000   36.652132      67.934216      465.11269    
  12270000   38.992017      81.621288      558.82144    
  12280000   40.982438      85.576577      585.90139    
  12290000   36.492301      84.213207      576.56706    
  12300000   37.057061      74.281212      508.56749    
  12310000   51.162987      63.324751      433.55391    
  12320000   46.131832      78.849799      539.8464     
  12330000   46.064649      79.095137      541.52611    
  12340000   52.388698      71.339915      488.42986    
  12350000   44.854483      80.598293      551.81749    
  12360000   40.444651      62.168513      425.63771    
  12370000   38.474337      83.904799      574.45553    
  12380000   48.587667      66.24285       453.53272    
  12390000   46.550544      58.516055      400.6311     
  12400000   44.917033      77.186492      528.45854    
  12410000   41.032487      79.365464      543.37691    
  12420000   45.313275      73.883305      505.84322    
  12430000   65.548581      65.929638      451.38831    
  12440000   67.879487      71.674291      490.71917    
  12450000   49.613695      93.774184      642.02644    
  12460000   43.249476      73.824052      505.43754    
  12470000   44.623904      75.84995       519.30789    
  12480000   26.928987      76.329751      522.59285    
  12490000   54.056907      87.147195      596.65465    
  12500000   50.817214      77.7344        532.2098     
  12510000   59.328498      71.280683      488.02433    
  12520000   38.150537      84.381049      577.71619    
  12530000   47.625653      71.873357      492.08208    
  12540000   58.334625      72.924786      499.28071    
  12550000   62.735527      69.382484      475.02827    
  12560000   55.917894      73.806313      505.31609    
  12570000   54.737261      77.013583      527.27472    
  12580000   54.151023      77.647796      531.61687    
  12590000   44.240978      92.942199      636.33024    
  12600000   38.819257      76.673611      524.94709    
  12610000   58.296018      68.415893      468.4105     
  12620000   34.537749      78.237373      535.65342    
  12630000   50.588451      65.305898      447.11786    
  12640000   43.436099      69.850891      478.23523    
  12650000   42.549986      77.357218      529.62742    
  12660000   42.656685      72.888192      499.03016    
  12670000   49.005925      73.99422       506.6026     
  12680000   48.994158      73.011819      499.87657    
  12690000   50.476474      56.91257       389.65281    
  12700000   47.486716      81.096782      555.23041    
  12710000   42.158834      93.365787      639.23034    
  12720000   51.153133      82.666076      565.9746     
  12730000   35.405174      77.681172      531.84537    
  12740000   53.833263      78.095762      534.68388    
  12750000   49.20531       71.173468      487.29028    
  12760000   56.730458      69.926904      478.75566    
  12770000   30.128222      82.973383      568.07858    
  12780000   45.733229      65.820263      450.63948    
  12790000   54.65845       60.935763      417.19767    
  12800000   40.65447       82.272153      563.2776     
  12810000   34.660405      89.182012      610.58606    
  12820000   62.370965      71.845913      491.89418    
  12830000   50.279474      82.015333      561.51928    
  12840000   55.868224      70.943011      485.71245    
  12850000   54.660357      77.908967      533.40498    
  12860000   44.363464      90.080884      616.7402     
  12870000   46.289333      82.688416      566.12755    
  12880000   43.878292      80.917599      554.00362    
  12890000   46.470969      70.496371      482.65452    
  12900000   55.978154      72.988568      499.71739    
  12910000   58.338698      57.756078      395.42791    
  12920000   55.950539      78.972137      540.68399    
  12930000   55.898878      74.600214      510.75155    
  12940000   55.027418      75.965132      520.09648    
  12950000   46.410638      67.104303      459.43068    
  12960000   47.110823      68.372069      468.11045    
  12970000   39.495599      72.49962       496.3698     
  12980000   44.27672       88.72578       607.46246    
  12990000   61.696665      83.174182      569.45336    
  13000000   58.557794      74.349363      509.03409    
  13010000   51.751361      71.122102      486.9386     
  13020000   47.553468      70.809591      484.79899    
  13030000   46.694129      80.827793      553.38876    
  13040000   46.941179      77.676579      531.81393    
  13050000   51.131075      84.797789      580.5694     
  13060000   66.545339      70.5781        483.21408    
[...]
  34190000   15.902472      42.704418      292.37647    
  34200000   11.301754      40.642464      278.25927    
  34210000   4.4469907      52.023481      356.17959    
  34220000   11.759085      39.227004      268.5683     
  34230000   15.696496      41.264437      282.51762    
  34240000   19.984092      45.030705      308.30344    
  34250000   15.677248      47.931089      328.16096    
  34260000   15.082925      43.776926      299.71942    
  34270000   1.4923636      47.716998      326.69518    
  34280000  -8.067923       54.276263      371.6033     
  34290000   13.33532       51.633601      353.51027    
  34300000   19.915505      41.731731      285.71696    
  34310000   4.71375        65.618207      449.25609    
  34320000   21.05762       49.091981      336.10902    
  34330000   8.5958778      54.84874       375.52277    
  34340000   16.607676      53.332667      365.14295    
  34350000   5.8753688      37.088834      253.92929    
  34360000   2.7544254      40.098771      274.53687    
  34370000   3.4182155      43.50186       297.83617    
  34380000   7.7393252      48.427752      331.56137    
  34390000   17.827846      55.754195      381.72198    
  34400000   10.137749      50.672562      346.9305     
  34410000   17.824925      39.821666      272.63967    
  34420000   23.391421      38.065906      260.61883    
  34430000   19.408083      51.9475        355.65938    
  34440000   19.618919      41.374441      283.27077    
  34450000   7.9928906      55.133732      377.47397    
  34460000   17.045161      43.883652      300.45012    
  34470000   6.2788323      52.417448      358.87689    
  34480000   20.931288      45.623473      312.36183    
  34490000   15.540885      47.381054      324.39514    
  34500000   12.706134      40.08948       274.47326    
  34510000   11.601928      54.605575      373.85794    
  34520000   14.424158      43.810973      299.95252    
  34530000   28.575986      49.303009      337.55383    
  34540000   15.243036      54.293394      371.72058    
  34550000   14.433792      55.038323      376.82075    
  34560000   15.87047       56.024264      383.57102    
  34570000   17.016752      47.191975      323.1006     
  34580000   8.0258906      31.971101      218.89065    
  34590000   1.5895359      41.205918      282.11697    
  34600000   5.150071       49.312059      337.6158     
  34610000   16.029937      60.773379      416.0859     
  34620000   21.279263      57.365108      392.75112    
  34630000   31.913056      47.665558      326.343      
  34640000   26.046947      39.431845      269.97075    
  34650000   28.880418      47.435433      324.76744    
  34660000   27.902478      55.883635      382.60819    
  34670000   24.680366      49.680218      340.1364     
  34680000   21.546543      40.574876      277.79653    
  34690000   13.729187      41.096572      281.36833    
  34700000   27.581036      45.292343      310.09474    
  34710000   19.113544      47.514007      325.3054     
  34720000   10.102693      48.821441      334.25677    
  34730000   23.333587      45.539797      311.78894    
  34740000   14.128773      40.602451      277.98532    
  34750000   24.782139      37.35553       255.75523    
  34760000   7.1375718      51.471006      352.39706    
  34770000   10.222903      51.539753      352.86774    
  34780000   11.829764      44.113418      302.02322    
  34790000   8.2898158      47.650095      326.23713    
  34800000  -1.6353553      48.104291      329.34679    
  34810000   10.682825      51.901803      355.34652    
  34820000   18.645066      46.786221      320.32261    
  34830000   16.599471      48.008043      328.68783    
  34840000   19.106975      50.244628      344.00064    
  34850000   12.513768      57.805961      395.76943    
  34860000   25.623973      47.710328      326.64952    
  34870000   27.239653      49.018159      335.6036     
  34880000   12.559972      51.543088      352.89057    
  34890000   11.557957      49.49962       338.89993    
  34900000   22.389237      49.216262      336.95991    
  34910000   14.774049      51.350449      351.57166    
  34920000   10.133971      53.974459      369.53699    
  34930000   8.0440394      46.819533      320.55067    
  34940000   18.422419      39.869255      272.96549    
  34950000   9.7134062      47.432084      324.74452    
  34960000   8.2845438      36.61096       250.65752    
  34970000   17.699556      34.590718      236.8259     
  34980000   20.156325      48.204938      330.03587    
  34990000   20.435508      45.390202      310.76474    
  35000000   7.3068478      41.687542      285.41442    
  35010000   6.2980761      45.430127      311.03808    
  35020000  -9.5978421      46.06722       315.39995    
  35030000  -8.9425316      39.734728      272.04444    
  35040000  -12.963443      48.812591      334.19618    
  35050000   1.5418278      44.140808      302.21074    
  35060000  -6.0188697      50.795745      347.77387    
  35070000  -7.8861466      55.670885      381.1516     
  35080000   8.0872291      53.844014      368.64389    
  35090000   17.155922      53.059505      363.27274    
  35100000   7.5353129      50.220198      343.83338    
  35110000   4.1916967      48.472464      331.86749    
  35120000   9.8796121      44.637413      305.61075    
  35130000   1.0330132      37.84377       259.09797    
  35140000  -2.5093058      42.595731      291.63234    
  35150000  -0.28004131     49.831399      341.17147    
  35160000   14.572629      40.238364      275.4926     
  35170000   12.778801      44.803173      306.74564    
  35180000   9.5055298      47.133472      322.70006    
  35190000  -1.8409979      44.025114      301.41864    
  35200000   10.388995      52.43816       359.0187     
  35210000   16.004275      36.826965      252.1364     
  35220000   6.2217952      46.015777      315.04775    
  35230000   9.6511454      47.942402      328.23842    
  35240000  -1.2432039      48.325749      330.86301    
  35250000   4.8695339      45.475012      311.34539    
  35260000   14.044273      47.298027      323.82669    
  35270000   17.018353      49.96975       342.11868    
  35280000   14.307684      44.610088      305.42368    
  35290000   15.904843      55.25456       378.30122    
  35300000   10.090247      54.96651       376.32908    
  35310000   5.0384191      45.789519      313.49867    
  35320000   18.417014      54.578415      373.67199    
  35330000   23.724407      47.015719      321.89386    
  35340000   15.55688       41.101448      281.40172    
  35350000   8.340791       53.480947      366.15815    
  35360000   4.9872211      47.893906      327.90638    
  35370000   1.9030074      46.586994      318.9586     
  35380000  -0.012205569    44.403487      304.00917    
  35390000  -4.1870563      48.186221      329.90773    
  35400000   2.4663619      49.081056      336.03423    
  35410000   3.4136064      41.183383      281.96269    
  35420000  -11.990795      51.738753      354.23019    
  35430000   0.97984929     42.976931      294.24224    
  35440000   9.1168174      46.916092      321.21177    
  35450000   21.477373      50.024021      342.49025    
  35460000   15.150242      56.083082      383.97371    
  35470000   19.878772      46.483894      318.25272    
  35480000   25.930861      42.11605       288.34821    
  35490000   30.134093      43.607295      298.55804    
  35500000   29.710498      46.808587      320.47573    
  35510000   34.575404      37.135222      254.24689    
  35520000   26.77831       51.153533      350.22347    
  35530000   16.970287      50.094331      342.97163    
  35540000   15.509238      53.188239      364.15412    
  35550000  -13.397297      58.231039      398.67973    
  35560000  -4.0976604      44.830495      306.9327     
  35570000  -12.882352      41.384241      283.33786    
  35580000  -13.637105      45.301922      310.16033    
  35590000  -10.982125      53.551497      366.64117    
  35600000  -5.5532394      49.688078      340.19021    
  35610000   0.18692216     41.687221      285.41222    
  35620000  -3.9809298      35.671166      244.22321    
  35630000  -11.302112      46.617677      319.16866    
  35640000  -1.458196       41.227471      282.26453    
  35650000   3.1027624      43.111076      295.16067    
  35660000   4.2313046      44.829433      306.92542    
  35670000  -2.0939717      45.916008      314.36468    
  35680000   0.3943483      43.510447      297.89496    
  35690000  -3.4143511      43.503953      297.8505     
  35700000  -4.9345687      46.390632      317.61419    
  35710000   1.0049889      53.305989      364.9603     
  35720000   1.6767511      50.403199      345.0863     
  35730000  -11.731376      43.884275      300.45438    
  35740000  -13.504945      40.251538      275.5828     
  35750000  -17.760936      37.942541      259.77421    
  35760000  -19.402998      50.368585      344.84932    
  35770000  -16.798197      47.833848      327.4952     
  35780000  -6.8787674      38.667189      264.73552    
  35790000  -8.7630958      39.476465      270.27625    
  35800000  -19.931613      41.767105      285.95915    
  35810000  -14.162884      42.020525      287.69419    
  35820000  -15.826737      43.983213      301.13177    
  35830000  -18.618127      48.402871      331.39102    
  35840000  -11.018033      36.924471      252.80397    
  35850000  -6.6084074      37.545859      257.05832    
  35860000  -1.5455939      40.465769      277.04953    
  35870000  -8.8872141      48.415548      331.47782    
  35880000  -0.68494125     42.368959      290.07975    
  35890000  -3.3932685      48.991894      335.42378    
  35900000   8.419895       40.662328      278.39527    
  35910000  -8.396204       46.570802      318.84773    
  35920000  -9.6576046      41.497062      284.1103     
  35930000  -15.323036      44.87608       307.24479    
  35940000  -13.242989      42.945524      294.02721    
  35950000  -10.643584      39.271362      268.872      
  35960000  -13.108518      36.00555       246.51257    
  35970000  -16.5639        43.511031      297.89896    
  35980000  -12.854782      39.997255      273.84184    
  35990000  -11.273994      42.823173      293.18953    
  36000000  -13.926916      41.536805      284.3824     
Loop time of 250.303 on 1 procs for 16000000 steps with 50 atoms

Performance: 55229.134 ns/day, 0.000 hours/ns, 63922.609 timesteps/s, 3.196 Matom-step/s
99.2% CPU use with 1 MPI tasks x 1 OpenMP threads

MPI task timing breakdown:
Section |  min time  |  avg time  |  max time  |%varavg| %total
---------------------------------------------------------------
Pair    | 179.06     | 179.06     | 179.06     |   0.0 | 71.54
Bond    | 38.125     | 38.125     | 38.125     |   0.0 | 15.23
Neigh   | 5.6971     | 5.6971     | 5.6971     |   0.0 |  2.28
Comm    | 6.5121     | 6.5121     | 6.5121     |   0.0 |  2.60
Output  | 0.22317    | 0.22317    | 0.22317    |   0.0 |  0.09
Modify  | 18.327     | 18.327     | 18.327     |   0.0 |  7.32
Other   |            | 2.359      |            |       |  0.94

Nlocal:             50 ave          50 max          50 min
Histogram: 1 0 0 0 0 0 0 0 0 0
Nghost:              0 ave           0 max           0 min
Histogram: 1 0 0 0 0 0 0 0 0 0
Neighs:            558 ave         558 max         558 min
Histogram: 1 0 0 0 0 0 0 0 0 0

Total # of neighbors = 558
Ave neighs/atom = 11.16
Ave special neighs/atom = 5.76
Neighbor list builds = 43810
Dangerous builds = 0
Generated 0 of 6 mixed pair_coeff terms from geometric mixing rule
Setting up Verlet run ...
  Unit style    : real
  Current step  : 36000000
  Time step     : 10
Per MPI rank memory allocation (min/avg/max) = 9.625 | 9.625 | 9.625 Mbytes
   Step         PotEng         KinEng          Temp     
  36000000  -13.926916      41.536805      284.3824     
  36010000  -16.446846      48.793503      334.06549    
  36020000  -11.136845      50.012073      342.40845    
  36030000  -4.3514839      43.056485      294.7869     
  36040000  -14.008054      39.769855      272.28494    
  36050000  -7.3566577      38.186365      261.44356    
  36060000  -16.669223      43.512488      297.90894    
  36070000  -6.3350568      40.974928      280.53549    
  36080000  -14.012222      43.446248      297.45543    
  36090000  -12.291593      47.496149      325.18314    
  36100000  -11.898773      48.305744      330.72604    
  36110000  -8.1206235      38.267333      261.99791    
  36120000  -12.014724      39.176162      268.22021    
  36130000  -5.3693893      44.534776      304.90805    
  36140000  -14.536699      51.97582       355.85328    
  36150000  -7.9287673      38.659815      264.68504    
  36160000  -6.6019977      40.045343      274.17108    
  36170000  -13.025315      49.953009      342.00407    
  36180000  -11.466208      44.232356      302.83753    
  36190000  -1.8024329      48.219857      330.13801    
  36200000  -9.8832709      46.159282      316.03026    
  36210000  -11.14665       34.782325      238.13774    
  36220000  -23.088273      42.965789      294.16595    
  36230000  -14.496618      43.752993      299.55556    
  36240000  -7.5152233      50.284216      344.27168    
  36250000   4.5067962      43.338371      296.71684    
  36260000  -4.02353        51.487814      352.51214    
  36270000  -8.0124315      40.580699      277.8364     
  36280000  -11.950826      39.757346      272.1993     
  36290000  -12.780212      56.855191      389.25996    
  36300000  -9.2045001      47.416964      324.64099    
  36310000  -17.315122      48.843517      334.40791    
  36320000  -16.132619      43.10023       295.08641    
  36330000  -18.228054      39.356551      269.45525    
  36340000  -15.372601      40.268372      275.69804    
  36350000  -10.976627      46.400227      317.67989    
  36360000  -7.217595       37.741702      258.39916    
  36370000  -17.901672      47.641014      326.17496    
  36380000  -3.5529026      34.453951      235.88952    
  36390000   1.1047053      44.369086      303.77365    
  36400000  -0.46362504     37.403287      256.0822     
  36410000   6.9595515      38.238847      261.80287    
  36420000  -6.9143254      45.920395      314.39471    
  36430000  -4.3489036      41.102057      281.40588    
  36440000  -15.516486      43.326522      296.63572    
  36450000  -12.649605      35.902546      245.80735    
  36460000  -14.059724      34.072434      233.27746    
  36470000  -23.080611      47.32797       324.03169    
  36480000  -14.262352      43.054281      294.77182    
  36490000  -14.245366      39.901188      273.18412    
  36500000  -11.451193      41.766574      285.95551    
  36510000  -17.612208      39.743432      272.10403    
  36520000  -9.5623456      43.034583      294.63695    
  36530000  -12.167315      30.782314      210.7516     
  36540000  -15.765353      41.660306      285.22795    
  36550000  -13.477603      38.966891      266.78744    
  36560000  -12.011797      36.598293      250.57079    
  36570000  -3.9797452      34.968377      239.41155    
  36580000  -11.830133      47.415073      324.62805    
  36590000  -12.837553      45.005383      308.13007    
  36600000  -11.11727       40.38785       276.51605    
  36610000  -11.321993      46.741002      320.01301    
  36620000  -7.1440898      41.512146      284.21356    
  36630000  -12.311576      38.944598      266.63481    
  36640000  -13.505318      51.057021      349.5627     
  36650000  -15.55424       47.77849       327.11619    
  36660000  -0.62146633     43.207484      295.82072    
  36670000  -1.8235713      41.049598      281.04672    
  36680000   0.69710413     48.898309      334.78305    
  36690000  -5.5577915      40.954981      280.39893    
  36700000  -9.3962374      39.565942      270.88885    
  36710000  -7.3184944      41.807528      286.2359     
  36720000  -10.256057      50.735261      347.35977    
  36730000  -6.1219188      47.030644      321.99605    
  36740000  -2.3283035      40.326823      276.09823    
  36750000  -8.6526537      39.33844       269.33125    
  36760000  -8.0383034      43.499049      297.81693    
  36770000  -16.772753      38.62319       264.43428    
  36780000  -12.332189      43.239893      296.04262    
  36790000  -15.107968      48.143783      329.61717    
  36800000  -5.7322509      41.617223      284.93298    
  36810000  -9.3858739      37.074598      253.83182    
  36820000  -1.1535428      41.17214       281.88571    
  36830000  -2.0012075      44.47233       304.48051    
  36840000   3.6993734      48.00324       328.65495    
  36850000   4.2143444      48.628625      332.93665    
  36860000   1.5511592      44.16234       302.35816    
  36870000   11.244036      38.731221      265.17392    
  36880000  -6.8955064      47.55657       325.59681    
  36890000  -3.671433       46.166474      316.0795     
  36900000  -12.030082      42.503986      291.00422    
  36910000  -12.854298      34.34106       235.11661    
  36920000  -24.86922       38.234334      261.77197    
  36930000  -17.844766      39.00432       267.0437     
  36940000  -14.668512      43.211133      295.8457     
  36950000  -29.312651      47.161087      322.88913    
  36960000  -22.076285      40.259309      275.636      
  36970000  -19.341494      42.026224      287.73321    
  36980000  -18.036502      45.190973      309.40071    
  36990000  -25.365974      43.174105      295.59219    
  37000000  -17.865662      40.329728      276.11812    
  37010000  -10.577077      32.494523      222.47427    
  37020000  -15.41649       40.192088      275.17577    
  37030000  -14.767926      48.101828      329.32993    
  37040000  -13.091805      46.040856      315.21945    
  37050000   1.0448698      46.0994        315.62028    
  37060000  -7.0657414      42.091161      288.1778     
  37070000  -7.5953036      53.712628      367.74436    
  37080000  -12.913573      46.809487      320.48189    
  37090000  -10.14498       41.605509      284.85278    
  37100000  -28.82424       42.700234      292.34783    
  37110000  -25.227325      45.029959      308.29833    
  37120000  -26.593854      39.039548      267.28488    
  37130000  -18.745181      45.602683      312.21949    
  37140000  -16.89815       39.773136      272.3074     
  37150000  -19.514158      45.668179      312.66791    
  37160000  -27.154127      40.856971      279.7279     
  37170000  -14.495131      36.466244      249.66672    
  37180000  -12.254852      40.226249      275.40965    
  37190000  -16.00365       50.988635      349.0945     
  37200000  -9.3531757      53.680282      367.5229     
  37210000  -17.045587      49.127554      336.35258    
  37220000  -2.8691821      40.971777      280.51392    
  37230000  -23.018547      54.562635      373.56394    
  37240000  -15.816164      42.372303      290.10264    
  37250000  -5.1144527      49.190819      336.78572    
  37260000  -14.893869      50.249097      344.03124    
  37270000  -17.944969      49.766134      340.72463    
  37280000  -17.630405      39.769871      272.28505    
  37290000  -13.43769       46.227696      316.49866    
  37300000  -14.290672      42.67872       292.20053    
  37310000  -13.032865      42.003453      287.57731    
  37320000  -13.639628      41.82303       286.34203    
  37330000  -0.17277024     38.911204      266.40617    
  37340000  -8.4846367      53.937538      369.28421    
  37350000  -2.6107578      47.510731      325.28297    
srun: Job step aborted: Waiting up to 47 seconds for job step to finish.
[2025-11-21T03:05:23.606] error: *** STEP 2471032.0 ON della-i13n25 CANCELLED AT 2025-11-21T03:05:23 DUE to SIGNAL Terminated ***
[2025-11-21T03:05:23.607] error: *** JOB 2471032 ON della-i13n25 CANCELLED AT 2025-11-21T03:05:23 DUE to SIGNAL Terminated ***
