LAMMPS (29 Aug 2024)
  using 1 OpenMP thread(s) per MPI task
  using 1 OpenMP thread(s) per MPI task
Reading data file ...
  orthogonal box = (-1000.6 -1000.6 -1800.6) to (1000.6 1000.6 1000.6)
  1 by 1 by 1 MPI processor grid
  reading atoms ...
  200 atoms
  scanning bonds ...
  1 = max bonds/atom
  scanning angles ...
  1 = max angles/atom
  orthogonal box = (-1000.6 -1000.6 -1800.6) to (1000.6 1000.6 1000.6)
  1 by 1 by 1 MPI processor grid
  reading bonds ...
  199 bonds
  reading angles ...
  198 angles
Finding 1-2 1-3 1-4 neighbors ...
  special bond factors lj:    0        0        0       
  special bond factors coul:  0        0        0       
     2 = max # of 1-2 neighbors
     2 = max # of 1-3 neighbors
     4 = max # of 1-4 neighbors
     6 = max # of special neighbors
  special bonds CPU = 0.000 seconds
  read_data CPU = 0.009 seconds
Finding 1-2 1-3 1-4 neighbors ...
  special bond factors lj:    0        0        1       
  special bond factors coul:  0        0        0       
     2 = max # of 1-2 neighbors
     2 = max # of 1-3 neighbors
     4 = max # of 1-4 neighbors
     6 = max # of special neighbors
  special bonds CPU = 0.000 seconds

CITE-CITE-CITE-CITE-CITE-CITE-CITE-CITE-CITE-CITE-CITE-CITE-CITE

Your simulation uses code contributions which should be cited:
- Type Label Framework: https://doi.org/10.1021/acs.jpcb.3c08419
The log file lists these citations in BibTeX format.

CITE-CITE-CITE-CITE-CITE-CITE-CITE-CITE-CITE-CITE-CITE-CITE-CITE

Generated 0 of 6 mixed pair_coeff terms from geometric mixing rule
Neighbor list info ...
  update: every = 10 steps, delay = 0 steps, check = yes
  max neighbors/atom: 2000, page size: 100000
  master list distance cutoff = 33
  ghost atom cutoff = 33
  binsize = 16.5, bins = 122 122 170
  2 neighbor lists, perpetual/occasional/extra = 2 0 0
  (1) pair lj/cut, perpetual, trim from (2)
      attributes: half, newton on, cut 25
      pair build: trim
      stencil: none
      bin: none
  (2) pair base/rna, perpetual
      attributes: half, newton on
      pair build: half/bin/newton
      stencil: half/bin/3d
      bin: standard
Setting up Verlet run ...
  Unit style    : real
  Current step  : 0
  Time step     : 10
Per MPI rank memory allocation (min/avg/max) = 18.05 | 18.05 | 18.05 Mbytes
   Step         PotEng         KinEng          Temp     
         0   271.41412      0              0            
     10000   95.399841      184.10404      310.36729    
     20000   102.432        159.11948      268.24768    
     30000   104.58634      179.48474      302.57995    
     40000   104.5132       174.41771      294.03783    
     50000   105.75482      165.9642       279.78668    
     60000   111.77594      178.92587      301.63779    
     70000   91.014258      193.24609      325.77919    
     80000   92.955484      172.64085      291.04235    
     90000   115.87868      174.67532      294.47211    
    100000   93.776243      169.9627       286.52745    
    110000   101.48035      183.98295      310.16316    
    120000   87.30356       193.70023      326.54479    
    130000   77.751292      178.42171      300.78788    
    140000   78.648858      178.41846      300.7824     
    150000   82.590068      178.01037      300.09443    
    160000   93.451382      163.05251      274.87807    
    170000   85.226678      176.63639      297.77813    
    180000   73.741939      175.34195      295.59593    
    190000   76.144267      189.42173      319.33198    
    200000   34.032293      191.08777      322.14063    
    210000   67.971598      192.04278      323.75062    
    220000   32.41674       201.09407      339.00951    
    230000   30.741815      186.0827       313.70297    
    240000   29.239705      198.70259      334.97789    
    250000   28.445659      190.25402      320.73509    
    260000   43.432388      188.95162      318.53946    
    270000   47.111799      171.15878      288.54384    
    280000   36.087272      195.44856      329.49216    
    290000   14.590637      186.5023       314.41034    
    300000   9.8103297      172.65531      291.06673    
    310000   6.5760611      157.4808       265.48515    
    320000  -4.7944036      159.05181      268.13359    
    330000  -5.6475711      184.06611      310.30334    
    340000  -12.258694      197.63137      333.17201    
    350000  -8.7914305      177.2354       298.78796    
    360000  -19.046056      170.435        287.32367    
    370000  -20.745665      172.75566      291.23589    
    380000  -27.115852      167.61026      282.56165    
    390000  -36.055294      172.4881       290.78484    
    400000  -50.798888      168.03924      283.28484    
    410000  -26.520631      169.01715      284.93343    
    420000  -32.354899      197.70322      333.29314    
    430000  -19.979026      188.97952      318.5865     
    440000   6.9970892      180.64632      304.53818    
    450000  -10.967919      188.18758      317.25143    
    460000  -26.214605      187.13069      315.46969    
    470000  -10.229295      166.08214      279.9855     
    480000  -28.539349      193.06526      325.47434    
    490000  -8.5360826      162.4748       273.90416    
    500000  -26.167501      185.36369      312.49084    
    510000  -36.34552       193.37681      325.99956    
    520000  -19.553706      188.61161      317.96627    
    530000  -27.090496      194.36714      327.66908    
    540000  -3.2649323      171.17125      288.56486    
    550000  -15.088595      188.27072      317.39158    
    560000  -47.634433      183.79933      309.8536     
    570000  -37.044114      178.89696      301.58906    
    580000  -27.913673      174.86602      294.7936     
    590000  -35.403594      195.6756       329.87491    
    600000  -54.278802      210.33483      354.58782    
    610000  -17.574955      169.78784      286.23268    
    620000  -36.292886      185.28792      312.3631     
    630000  -24.444312      181.95073      306.73719    
    640000  -33.302194      208.99332      352.32626    
    650000  -6.7348561      181.46237      305.91388    
    660000  -13.813697      182.90919      308.35299    
    670000  -29.837256      170.93421      288.16525    
    680000  -47.718198      169.80419      286.26024    
    690000  -41.09266       162.93368      274.67775    
    700000  -38.760897      157.87216      266.14491    
    710000  -54.647376      163.88302      276.27818    
    720000  -61.54891       163.12998      275.00868    
    730000  -51.608586      160.57424      270.70014    
    740000  -59.295043      175.51198      295.88257    
    750000  -51.1403        170.75957      287.87084    
    760000  -45.386772      168.2531       283.64537    
    770000  -14.598724      161.90007      272.93527    
    780000  -41.439343      175.62775      296.07774    
    790000  -57.378835      180.37874      304.08708    
    800000  -36.458575      173.53583      292.55113    
    810000  -54.388323      161.91495      272.96036    
    820000  -80.337422      171.63291      289.34314    
    830000  -69.989713      177.4264       299.10996    
    840000  -70.419993      168.43015      283.94384    
    850000  -32.569881      154.98154      261.27183    
    860000  -37.219615      173.35994      292.25461    
    870000  -51.79623       174.81964      294.7154     
    880000  -54.915691      163.22928      275.17609    
    890000  -43.366006      180.57146      304.41198    
    900000  -59.693401      186.4546       314.32993    
    910000  -23.768959      175.11233      295.20883    
    920000  -50.547449      169.47924      285.71242    
    930000  -42.13866       169.04462      284.97974    
    940000  -21.344917      166.43758      280.58472    
    950000  -30.421224      168.46035      283.99476    
    960000  -51.273565      158.9656       267.98827    
    970000  -52.3027        148.94743      251.09938    
    980000  -75.77761       187.92164      316.80309    
    990000  -90.63043       174.48695      294.15456    
   1000000  -49.946059      169.29054      285.39431    
   1010000  -33.907433      175.09129      295.17336    
   1020000  -34.564296      178.35718      300.67909    
   1030000  -34.341756      181.08639      305.28006    
   1040000  -40.464015      195.2571       329.1694     
   1050000  -60.203786      175.12525      295.23061    
   1060000  -49.632384      182.24228      307.22869    
   1070000  -52.27699       188.3777       317.57194    
   1080000  -49.761348      192.74685      324.93755    
   1090000  -44.974458      195.96528      330.36326    
   1100000  -43.858364      183.69911      309.68465    
   1110000  -31.709872      171.97533      289.9204     
   1120000  -47.163564      182.36194      307.43042    
   1130000  -39.950698      186.02644      313.60812    
   1140000  -62.045263      189.21686      318.98662    
   1150000  -32.569468      155.89622      262.81382    
   1160000  -49.86972       193.31437      325.89431    
   1170000  -43.0159        174.55742      294.27335    
   1180000  -22.755438      200.67011      338.29479    
   1190000  -43.791639      192.65175      324.77723    
   1200000  -43.074084      171.67381      289.41209    
   1210000  -45.474187      178.47833      300.88332    
   1220000  -33.291064      185.15508      312.13915    
   1230000  -32.090784      190.58804      321.29818    
   1240000  -39.210222      191.54789      322.91631    
   1250000  -36.449322      185.24503      312.2908     
   1260000  -1.4058237      154.06696      259.73       
   1270000  -43.710763      186.63709      314.63757    
   1280000  -41.62648       169.86933      286.37004    
   1290000  -27.545631      178.00639      300.08772    
   1300000  -14.108576      176.80749      298.06657    
   1310000  -19.19615       197.32717      332.65918    
   1320000  -12.481339      175.05053      295.10464    
   1330000  -5.5664134      170.5396       287.50001    
   1340000  -22.82402       184.64069      311.27199    
   1350000  -27.827371      177.29725      298.89223    
   1360000  -64.463181      197.88208      333.59466    
   1370000  -51.575441      183.05277      308.59502    
   1380000  -10.977558      168.93534      284.7955     
   1390000  -20.907947      206.62917      348.34073    
   1400000  -5.5931113      178.3125       300.60377    
   1410000  -31.840434      172.82922      291.35991    
   1420000  -44.933747      176.23828      297.10699    
   1430000  -52.806033      166.74648      281.10547    
   1440000  -28.789419      176.06141      296.80881    
   1450000  -56.503979      173.75815      292.92593    
   1460000  -64.99449       171.31299      288.80381    
   1470000  -77.330867      173.52347      292.5303     
   1480000  -66.776421      183.89745      310.01901    
   1490000  -50.997546      171.84074      289.69351    
   1500000  -51.257718      162.78167      274.42149    
   1510000  -83.79902       184.96789      311.82359    
   1520000  -23.76232       163.73459      276.02795    
   1530000  -46.942959      193.37099      325.98974    
   1540000  -76.403436      189.01329      318.64342    
   1550000  -50.182299      165.32977      278.71714    
   1560000  -74.04386       172.98382      291.62053    
   1570000  -64.359263      175.69663      296.19385    
   1580000  -67.628205      171.10294      288.4497     
   1590000  -50.329098      180.47742      304.25344    
   1600000  -44.953823      185.37904      312.51672    
   1610000  -40.045429      174.00528      293.34254    
   1620000  -31.398138      162.89373      274.61041    
   1630000  -22.343866      187.57078      316.21161    
   1640000  -59.446279      182.67061      307.95078    
   1650000  -54.937384      179.45506      302.52992    
   1660000  -60.207683      176.32234      297.2487     
   1670000  -75.690037      170.53499      287.49224    
   1680000  -70.200082      157.55702      265.61365    
   1690000  -47.633315      169.91183      286.4417     
   1700000  -23.175528      203.10491      342.39943    
   1710000  -6.3161316      178.7193       301.28955    
   1720000  -53.668141      195.53717      329.64155    
   1730000  -69.664577      167.73901      282.7787     
   1740000  -61.324183      160.97345      271.37315    
   1750000  -52.298094      168.44652      283.97144    
   1760000  -51.056874      180.06667      303.56099    
   1770000  -33.004199      176.70921      297.90089    
   1780000  -55.577698      185.53473      312.77919    
   1790000  -26.334039      161.39738      272.08782    
   1800000  -49.599294      187.73613      316.49036    
   1810000  -63.35878       191.47902      322.80021    
   1820000  -58.636013      167.95124      283.13648    
   1830000  -77.596815      169.54528      285.82376    
   1840000  -62.460141      187.31628      315.78256    
   1850000  -49.210145      170.2285       286.97555    
   1860000  -57.210923      180.19964      303.78515    
   1870000  -48.886898      179.61688      302.80272    
   1880000  -59.771062      168.26661      283.66814    
   1890000  -53.252862      174.02302      293.37245    
   1900000  -59.502058      174.82206      294.71949    
   1910000  -77.861025      175.33621      295.58625    
   1920000  -82.942732      176.83124      298.10661    
   1930000  -90.470385      162.82092      274.48766    
   1940000  -69.530418      180.48057      304.25875    
   1950000  -53.448184      180.98141      305.10308    
   1960000  -66.564536      176.67832      297.84882    
   1970000  -52.159273      198.42015      334.50175    
   1980000  -51.555071      168.73194      284.45261    
   1990000  -62.146361      170.53783      287.49702    
   2000000  -75.173322      190.92433      321.8651     
   2010000  -46.754934      176.99983      298.39083    
   2020000  -62.881048      157.55617      265.61222    
   2030000  -59.396063      175.99933      296.70417    
   2040000  -60.625008      170.83154      287.99217    
   2050000  -64.571417      169.1414       285.14288    
   2060000  -73.522755      179.71346      302.96554    
   2070000  -74.228766      169.96765      286.5358     
   2080000  -73.388589      170.31981      287.12948    
   2090000  -76.86736       190.1112       320.49431    
   2100000  -30.07762       176.85122      298.14029    
   2110000  -30.898968      196.24277      330.83107    
   2120000  -39.074417      194.22352      327.42697    
   2130000  -51.909307      176.60978      297.73328    
   2140000  -74.125371      179.89584      303.27299    
   2150000  -73.778621      169.6749       286.04227    
   2160000  -78.122903      163.00542      274.7987     
   2170000  -40.166916      162.20216      273.44453    
   2180000  -30.68814       181.63207      306.19998    
   2190000  -7.7620673      185.52554      312.7637     
   2200000  -49.426176      189.93742      320.20135    
   2210000  -61.590293      179.7681       303.05765    
   2220000  -46.449167      164.99779      278.15748    
   2230000  -41.597231      180.31752      303.98387    
   2240000  -70.734814      186.04211      313.63454    
   2250000  -49.685413      183.31424      309.03582    
   2260000  -40.324102      194.61743      328.09104    
   2270000  -39.012374      166.35381      280.44349    
   2280000  -43.017356      173.73263      292.8829     
   2290000  -40.701652      173.18193      291.95452    
   2300000  -45.176894      193.28778      325.84948    
   2310000  -41.065385      174.38761      293.98708    
   2320000  -69.462606      177.88822      299.88849    
   2330000  -60.224957      161.27287      271.87792    
   2340000  -79.652263      175.68339      296.17154    
   2350000  -72.019798      174.82968      294.73233    
   2360000  -55.721344      172.62113      291.00911    
   2370000  -84.658719      197.11674      332.30443    
   2380000  -70.863547      180.80322      304.80268    
   2390000  -57.371032      173.30313      292.15883    
   2400000  -97.596739      187.87723      316.72823    
   2410000  -101.29415      173.15826      291.91461    
   2420000  -104.0556       167.62825      282.59198    
   2430000  -80.999657      169.55053      285.83262    
   2440000  -85.601614      167.57624      282.5043     
   2450000  -56.066604      179.42503      302.4793     
   2460000  -72.192624      198.34471      334.37457    
   2470000  -63.704498      191.47664      322.79621    
   2480000  -87.555548      202.65939      341.64837    
   2490000  -97.133364      169.88687      286.39962    
   2500000  -97.851866      176.46023      297.48115    
   2510000  -77.280544      197.45239      332.87027    
   2520000  -87.812284      183.18169      308.81236    
   2530000  -69.442827      169.04445      284.97945    
   2540000  -70.163278      175.66352      296.13804    
   2550000  -76.989627      177.77096      299.69081    
   2560000  -72.920832      178.22799      300.46129    
   2570000  -96.053937      165.00649      278.17216    
   2580000  -89.821354      182.10037      306.98945    
   2590000  -69.726742      170.41079      287.28286    
   2600000  -70.097518      182.91398      308.36106    
   2610000  -47.852771      165.47526      278.96242    
   2620000  -51.232969      175.54428      295.93702    
   2630000  -40.687611      164.87843      277.95626    
   2640000  -84.289888      194.73779      328.29394    
   2650000  -75.806784      184.3099       310.71433    
   2660000  -44.661299      193.94319      326.95438    
   2670000  -41.277747      173.04953      291.73132    
   2680000  -61.903352      181.02712      305.18013    
   2690000  -60.044401      186.59547      314.5674     
   2700000  -68.908853      185.80654      313.23741    
   2710000  -52.986873      181.4513       305.89523    
   2720000  -46.477542      175.68594      296.17585    
   2730000  -75.341181      187.31154      315.77457    
   2740000  -94.882693      169.73268      286.13969    
   2750000  -81.630678      154.39814      260.28833    
   2760000  -82.21339       162.04879      273.18599    
   2770000  -68.720798      188.68339      318.08728    
   2780000  -97.249403      189.93892      320.20388    
   2790000  -80.551082      188.8305       318.33527    
   2800000  -64.146122      158.12471      266.57067    
   2810000  -80.728129      165.5189       279.03598    
   2820000  -88.644951      158.68946      267.52275    
   2830000  -98.016294      182.62464      307.87328    
   2840000  -83.192963      180.49298      304.27967    
   2850000  -80.162612      166.40273      280.52596    
   2860000  -72.695572      174.87692      294.81198    
   2870000  -69.499545      166.43129      280.57411    
   2880000  -87.117788      172.29416      290.45789    
   2890000  -92.993442      169.27968      285.376      
   2900000  -67.432223      168.52967      284.11162    
   2910000  -67.467071      192.58921      324.67181    
   2920000  -82.713057      180.79009      304.78055    
   2930000  -82.625119      177.77156      299.69183    
   2940000  -76.547437      162.92301      274.65977    
   2950000  -69.195435      170.90912      288.12296    
   2960000  -52.65569       165.43406      278.89296    
   2970000  -69.6679        183.88458      309.99732    
   2980000  -57.246704      187.92736      316.81273    
   2990000  -60.972576      187.93752      316.82987    
   3000000  -32.570687      195.37953      329.3758     
   3010000  -67.315014      184.52157      311.07118    
   3020000  -40.350425      195.06547      328.84634    
   3030000  -39.593288      187.22329      315.62579    
   3040000  -35.346155      171.16158      288.54855    
   3050000  -46.285003      192.61601      324.71699    
   3060000  -65.456492      196.9945       332.09835    
   3070000  -70.817716      174.84015      294.74999    
   3080000  -78.076979      182.40016      307.49483    
   3090000  -64.623234      170.57976      287.56771    
   3100000  -67.245645      167.40498      282.21558    
   3110000  -64.971033      166.52147      280.72614    
   3120000  -81.302595      182.52075      307.69813    
   3130000  -73.814494      169.27556      285.36905    
   3140000  -91.383662      185.06445      311.98637    
   3150000  -77.9901        188.59448      317.93739    
   3160000  -68.33299       183.76498      309.79569    
   3170000  -83.705338      182.50328      307.66869    
   3180000  -59.105275      171.95869      289.89234    
   3190000  -56.621293      176.42901      297.42853    
   3200000  -35.180282      171.29836      288.77915    
   3210000  -52.315324      181.69605      306.30784    
   3220000  -64.309828      170.19231      286.91454    
   3230000  -47.724528      196.01588      330.44858    
   3240000  -53.983826      176.89598      298.21576    
   3250000  -64.789605      185.59008      312.87249    
   3260000  -50.906611      176.00213      296.70888    
   3270000  -52.067563      177.33523      298.95625    
   3280000  -65.743826      187.05433      315.34095    
   3290000  -74.117743      178.4601       300.85259    
   3300000  -79.089503      175.68109      296.16767    
   3310000  -71.49592       174.98863      295.0003     
   3320000  -75.297387      181.91051      306.66937    
   3330000  -85.274786      181.85517      306.57609    
   3340000  -76.008173      174.12737      293.54836    
   3350000  -75.927627      157.48206      265.48728    
   3360000  -83.618982      167.75304      282.80236    
   3370000  -86.884908      176.12903      296.92282    
   3380000  -69.782508      190.04497      320.38266    
   3390000  -67.555751      165.73361      279.39794    
   3400000  -51.700704      180.69988      304.62846    
   3410000  -72.226708      175.96571      296.64748    
   3420000  -69.673283      180.97132      305.08607    
   3430000  -67.45809       184.98934      311.85974    
   3440000  -37.958556      193.00754      325.37704    
   3450000  -57.401463      181.12595      305.34675    
   3460000  -65.877661      188.34554      317.51771    
   3470000  -73.523692      189.89353      320.12735    
   3480000  -80.132282      160.02631      269.77644    
   3490000  -62.518224      157.37368      265.30456    
   3500000  -94.061706      191.05522      322.08577    
   3510000  -51.310913      170.82847      287.987      
   3520000  -53.978454      198.92809      335.35805    
   3530000  -57.711537      164.54087      277.38719    
   3540000  -98.722104      191.46246      322.77231    
   3550000  -85.095692      169.57629      285.87603    
   3560000  -67.67213       174.91107      294.86954    
   3570000  -80.815487      181.84005      306.55059    
   3580000  -73.468129      178.41762      300.78098    
   3590000  -71.395973      159.82874      269.44336    
   3600000  -92.572747      173.53488      292.54953    
   3610000  -62.772754      178.54973      301.00369    
   3620000  -65.092194      183.1671       308.78777    
   3630000  -73.936393      194.22575      327.43072    
   3640000  -51.465823      163.21546      275.15279    
   3650000  -62.412934      181.47379      305.93315    
   3660000  -43.662935      173.68435      292.80151    
   3670000  -65.391261      196.02889      330.4705     
   3680000  -53.840998      188.91508      318.47787    
   3690000  -35.929828      178.31402      300.60632    
   3700000  -79.727935      203.81838      343.60222    
   3710000  -97.286404      186.11611      313.75929    
   3720000  -83.370634      167.84676      282.96035    
   3730000  -94.160196      164.58825      277.46707    
   3740000  -66.888475      173.03698      291.71016    
   3750000  -64.549788      167.26872      281.98587    
   3760000  -72.481442      186.65254      314.66361    
   3770000  -84.094341      189.71859      319.83244    
   3780000  -76.65244       176.96314      298.32898    
   3790000  -86.141783      171.11779      288.47474    
   3800000  -46.908206      182.60484      307.8399     
   3810000  -88.979651      184.63656      311.26503    
   3820000  -45.944507      173.58522      292.6344     
   3830000  -44.588696      179.42292      302.47574    
   3840000  -73.246974      175.49625      295.85606    
   3850000  -70.763481      190.47504      321.10768    
   3860000  -79.307898      173.75522      292.92098    
   3870000  -45.673172      170.37128      287.21625    
   3880000  -70.600744      185.47445      312.67756    
   3890000  -60.949649      198.20001      334.13064    
   3900000  -34.583799      190.65831      321.41664    
   3910000  -64.925356      168.97278      284.85862    
   3920000  -75.52692       178.15958      300.34596    
   3930000  -79.882019      205.94464      347.18673    
   3940000  -61.096808      182.84436      308.24368    
   3950000  -60.868214      176.839        298.1197     
   3960000  -85.818453      172.35377      290.55838    
   3970000  -72.993349      187.67471      316.38681    
   3980000  -51.562349      188.46436      317.71803    
   3990000  -36.127371      170.69243      287.75765    
   4000000  -49.744918      175.3486       295.60714    
Loop time of 610.59 on 1 procs for 4000000 steps with 200 atoms

Performance: 5660.103 ns/day, 0.004 hours/ns, 6551.045 timesteps/s, 1.310 Matom-step/s
99.3% CPU use with 1 MPI tasks x 1 OpenMP threads

MPI task timing breakdown:
Section |  min time  |  avg time  |  max time  |%varavg| %total
---------------------------------------------------------------
Pair    | 524.56     | 524.56     | 524.56     |   0.0 | 85.91
Bond    | 38.895     | 38.895     | 38.895     |   0.0 |  6.37
Neigh   | 16.912     | 16.912     | 16.912     |   0.0 |  2.77
Comm    | 13.245     | 13.245     | 13.245     |   0.0 |  2.17
Output  | 0.15964    | 0.15964    | 0.15964    |   0.0 |  0.03
Modify  | 15.961     | 15.961     | 15.961     |   0.0 |  2.61
Other   |            | 0.8598     |            |       |  0.14

Nlocal:            200 ave         200 max         200 min
Histogram: 1 0 0 0 0 0 0 0 0 0
Nghost:              0 ave           0 max           0 min
Histogram: 1 0 0 0 0 0 0 0 0 0
Neighs:           1760 ave        1760 max        1760 min
Histogram: 1 0 0 0 0 0 0 0 0 0

Total # of neighbors = 1760
Ave neighs/atom = 8.8
Ave special neighs/atom = 5.94
Neighbor list builds = 9591
Dangerous builds = 0
Generated 0 of 6 mixed pair_coeff terms from geometric mixing rule
Setting up Verlet run ...
  Unit style    : real
  Current step  : 4000000
  Time step     : 10
Per MPI rank memory allocation (min/avg/max) = 19.32 | 19.32 | 19.32 Mbytes
   Step         PotEng         KinEng          Temp     
   4000000  -49.744918      175.3486       295.60714    
   4010000  -46.985167      180.90816      304.9796     
   4020000  -72.636888      181.01369      305.1575     
   4030000  -86.806923      199.49601      336.31546    
   4040000  -84.390296      195.91307      330.27525    
   4050000  -69.440299      178.3384       300.64743    
   4060000  -47.969315      157.37318      265.30372    
   4070000  -62.023906      182.73378      308.05727    
   4080000  -68.699963      187.34935      315.83831    
   4090000  -47.3027        186.19243      313.88795    
   4100000  -76.557894      189.40448      319.3029     
   4110000  -53.805255      170.1576       286.85602    
   4120000  -67.338925      178.18641      300.3912     
   4130000  -68.628527      173.16422      291.92465    
   4140000  -66.52909       182.16564      307.09948    
   4150000  -83.23879       183.72855      309.73427    
   4160000  -95.117842      194.27148      327.50782    
   4170000  -82.499719      170.85111      288.02517    
   4180000  -65.421946      175.49078      295.84683    
   4190000  -74.333059      190.55329      321.23959    
   4200000  -64.238142      168.15168      283.4744     
   4210000  -59.142855      184.17426      310.48567    
   4220000  -39.579801      179.08808      301.91126    
   4230000  -51.746788      179.91367      303.30305    
   4240000  -65.752376      188.15696      317.1998     
   4250000  -75.860751      189.06615      318.73253    
   4260000  -31.379382      178.45562      300.84504    
   4270000  -47.011237      195.63565      329.80757    
   4280000  -50.98407       174.21337      293.69334    
   4290000  -64.84289       176.88065      298.18991    
   4300000  -68.422944      172.1737       290.25482    
   4310000  -76.060621      182.25455      307.24938    
   4320000  -71.998201      180.98881      305.11555    
   4330000  -65.695885      187.7038       316.43585    
   4340000  -75.627106      178.83479      301.48425    
   4350000  -44.078495      166.53894      280.7556     
   4360000  -76.38002       195.09773      328.90074    
   4370000  -81.750739      187.83746      316.66118    
   4380000  -51.051481      171.55426      289.21055    
   4390000  -59.288504      176.98901      298.37259    
   4400000  -57.45105       183.75369      309.77667    
   4410000  -24.625755      172.23199      290.35309    
   4420000  -61.460421      189.24963      319.04186    
   4430000  -71.161904      198.09854      333.95957    
   4440000  -51.159941      188.15102      317.18979    
   4450000  -45.136606      179.16963      302.04873    
   4460000  -42.430502      180.08505      303.59197    
   4470000  -75.41413       202.09465      340.69631    
   4480000  -69.466127      200.06151      337.26879    
   4490000  -50.859351      186.60044      314.57578    
   4500000  -49.534256      163.9883       276.45565    
   4510000  -61.131818      186.99426      315.23969    
   4520000  -58.499053      190.08229      320.44557    
   4530000  -58.851609      190.87694      321.78522    
   4540000  -55.020931      184.48665      311.01231    
   4550000  -49.384427      186.64026      314.64291    
   4560000  -66.416291      175.38621      295.67055    
   4570000  -76.498837      194.41909      327.75667    
   4580000  -70.767411      177.1683       298.67483    
   4590000  -61.269956      175.87324      296.4916     
   4600000  -88.849375      183.39532      309.17251    
   4610000  -68.963978      177.94433      299.9831     
   4620000  -55.965692      186.04897      313.6461     
   4630000  -52.442169      185.02734      311.92381    
   4640000  -47.81887       193.98735      327.02882    
   4650000  -62.187582      187.04526      315.32567    
   4660000  -61.622485      188.78835      318.26422    
   4670000  -70.247527      190.41037      320.99866    
   4680000  -45.078221      181.9894       306.80238    
   4690000  -59.88447       205.38927      346.25047    
   4700000  -64.797531      185.81899      313.25839    
   4710000  -48.554146      188.30291      317.44584    
   4720000  -55.027969      183.22238      308.88097    
   4730000  -39.507034      182.63967      307.89861    
   4740000  -60.633493      205.06928      345.71102    
   4750000  -79.487953      197.57344      333.07435    
   4760000  -60.047093      184.76439      311.48052    
   4770000  -39.078092      189.24215      319.02924    
   4780000  -15.085219      193.4668       326.15127    
   4790000  -23.171468      180.45486      304.21541    
   4800000   6.3284109      194.6524       328.14998    
   4810000  -24.730454      202.67906      341.68154    
   4820000  -27.446459      188.3501       317.52541    
   4830000  -30.778986      198.4455       334.54448    
   4840000  -55.581943      193.32438      325.91117    
   4850000  -35.957539      181.34441      305.71503    
   4860000  -11.683573      172.32207      290.50494    
   4870000  -22.898656      197.27341      332.56854    
   4880000  -21.696397      180.97446      305.09136    
   4890000  -2.1268874      186.82357      314.95193    
   4900000  -9.3378068      205.6305       346.65714    
   4910000  -7.5702244      188.94587      318.52976    
   4920000   1.3030586      181.781        306.45105    
   4930000   3.0767616      179.42775      302.48388    
   4940000  -0.84606039     178.9103       301.61155    
   4950000  -1.6158995      198.31181      334.3191     
   4960000   4.7985458      179.35598      302.36289    
   4970000  -34.192533      202.06949      340.6539     
   4980000  -31.615398      175.32133      295.56117    
   4990000  -35.335917      189.49309      319.45229    
   5000000  -35.717718      193.79195      326.69942    
   5010000  -20.766983      175.40592      295.70378    
   5020000  -37.910087      199.25239      335.90476    
   5030000   3.9977759      194.89886      328.56548    
   5040000  -14.609325      199.86642      336.93991    
   5050000  -5.5938299      197.34361      332.68688    
   5060000  -23.249007      203.76471      343.51174    
   5070000  -14.385885      194.65166      328.14874    
   5080000  -3.5456922      190.29988      320.8124     
   5090000   23.843503      202.80077      341.88672    
   5100000   16.792235      210.88853      355.52127    
   5110000  -7.4101659      205.42446      346.3098     
   5120000  -0.37562272     206.36711      347.89894    
   5130000  -17.34405       190.83464      321.7139     
   5140000  -42.844321      200.36585      337.78186    
   5150000  -54.226022      194.36777      327.67015    
   5160000  -42.33352       191.8769       323.47098    
   5170000  -40.646989      176.28388      297.18387    
   5180000  -28.721047      171.90216      289.79705    
   5190000  -62.327931      199.3014       335.98739    
   5200000  -47.689404      186.82592      314.9559     
   5210000  -62.339438      185.69201      313.04432    
   5220000  -21.213564      187.85493      316.69063    
   5230000  -37.074926      203.04558      342.29942    
   5240000  -38.248167      208.25905      351.08842    
   5250000  -35.898685      209.66435      353.4575     
   5260000  -32.864778      202.91528      342.07976    
   5270000  -34.96878       198.60466      334.8128     
   5280000  -51.261038      211.14268      355.94971    
   5290000  -66.500302      221.35954      373.17357    
   5300000  -37.450952      193.76808      326.65917    
   5310000  -33.775564      213.33049      359.63798    
   5320000  -28.065427      220.79545      372.2226     
   5330000   2.9516345      208.19878      350.98681    
   5340000  -29.577543      207.14693      349.21357    
   5350000  -35.389513      216.94815      365.73672    
   5360000  -36.211568      203.33529      342.78781    
   5370000  -23.409745      193.07525      325.49119    
   5380000   0.77130895     184.34067      310.76621    
   5390000  -29.036871      181.36286      305.74614    
   5400000  -29.883146      210.22576      354.40395    
   5410000  -45.412179      199.11648      335.67564    
   5420000  -6.1679526      190.60839      321.33248    
   5430000  -20.754372      202.90821      342.06783    
   5440000  -10.533133      201.36187      339.46097    
   5450000  -1.4063063      215.30481      362.96634    
   5460000  -7.5945988      202.265        340.98349    
   5470000   0.010487676    205.40616      346.27895    
   5480000   15.577613      208.20089      350.99037    
   5490000   17.128411      210.89224      355.52752    
   5500000  -11.647005      190.45888      321.08043    
   5510000  -26.820277      209.15238      352.59442    
   5520000   2.7659252      216.94627      365.73356    
   5530000   4.6878972      200.14494      337.40945    
   5540000   23.461808      200.80703      338.52561    
   5550000   17.390215      193.9359       326.94209    
   5560000   6.9576001      212.98624      359.05764    
   5570000   24.95658       191.64145      323.07405    
   5580000   2.7351717      197.70052      333.28859    
   5590000  -16.865059      207.96244      350.58839    
   5600000   3.7134562      198.84013      335.20977    
   5610000   12.314822      218.04107      367.5792     
   5620000   6.6245471      189.70741      319.81359    
   5630000  -15.583406      198.18151      334.09945    
   5640000   31.715454      201.88994      340.35122    
   5650000   43.993172      210.46396      354.80552    
   5660000   36.409138      204.57525      344.87817    
   5670000   16.144186      224.70784      378.8182     
   5680000   0.54660141     198.23973      334.1976     
   5690000   20.960591      173.21301      292.00691    
   5700000   9.211417       189.41064      319.31329    
   5710000   5.4577438      199.9242       337.03732    
   5720000  -1.8070872      215.14366      362.69467    
   5730000   3.938692       196.99741      332.10326    
   5740000   11.952812      211.28534      356.19022    
   5750000  -5.4187562      200.62244      338.21443    
   5760000  -8.0292021      200.74008      338.41274    
   5770000  -15.644238      205.94494      347.18723    
   5780000   0.3197317      195.9539       330.34408    
   5790000  -14.457488      208.22253      351.02685    
   5800000   2.7520378      208.92696      352.2144     
   5810000   12.088775      212.67025      358.52493    
   5820000  -5.4864124      214.41411      361.46477    
   5830000   5.8343747      218.83676      368.92059    
   5840000  -0.44948196     226.15985      381.26604    
   5850000   6.9299425      210.46109      354.80068    
   5860000   9.9587743      206.11993      347.48223    
   5870000   23.604564      198.89952      335.30988    
   5880000   20.581956      204.59957      344.91918    
   5890000   3.1675624      223.4662       376.72503    
   5900000  -0.86349963     205.81241      346.96381    
   5910000   34.811753      183.8083       309.86872    
   5920000   31.766429      219.04184      369.26632    
   5930000   31.853623      205.70525      346.78316    
   5940000   20.815496      207.49486      349.80013    
   5950000   19.816413      211.01516      355.73475    
   5960000   14.809156      211.8895       357.20873    
   5970000   5.0671507      206.48931      348.10494    
   5980000   27.999457      206.7066       348.47127    
   5990000   26.354401      201.52689      339.73917    
   6000000   11.781305      220.11175      371.07       
   6010000   24.280126      208.75528      351.92498    
   6020000   14.120751      205.80966      346.95918    
   6030000   13.319664      199.67841      336.62295    
   6040000   5.5378413      212.64182      358.477      
   6050000  -0.70798795     215.04847      362.53419    
   6060000   19.473379      196.49773      331.26089    
   6070000   49.769968      211.01624      355.73657    
   6080000   56.641886      243.48526      410.47366    
   6090000   47.614784      223.17313      376.23096    
   6100000   21.054679      213.17686      359.37899    
   6110000   41.756164      219.58788      370.18686    
   6120000   56.575793      198.85618      335.23681    
   6130000   27.238498      197.95503      333.71764    
   6140000   50.645496      208.87967      352.13468    
   6150000   31.151225      203.89547      343.73218    
   6160000   51.194041      215.94262      364.04158    
   6170000   37.364717      196.85035      331.85534    
   6180000   75.485201      195.09943      328.9036     
   6190000   65.370329      216.25248      364.56394    
   6200000   50.161332      233.47502      393.59814    
   6210000   57.463224      211.77412      357.01421    
   6220000   64.360692      203.07939      342.35642    
   6230000   58.408574      206.38704      347.93254    
   6240000   84.59504       172.98343      291.61989    
   6250000   56.09379       197.27867      332.57742    
   6260000   80.23384       201.96313      340.47459    
   6270000   61.557784      212.62146      358.44269    
   6280000   92.43342       196.63067      331.48499    
   6290000   60.808503      202.77282      341.83959    
   6300000   76.578308      193.94108      326.95081    
   6310000   78.83331       209.23002      352.72531    
   6320000   87.026726      219.10677      369.37578    
   6330000   95.623802      242.97233      409.60895    
   6340000   67.765888      217.78817      367.15286    
   6350000   58.200362      217.81577      367.19938    
   6360000   51.863452      223.83129      377.34051    
   6370000   45.575915      213.6966       360.25518    
   6380000   53.947716      212.32997      357.95128    
   6390000   52.004265      215.99265      364.12592    
   6400000   57.921657      198.45354      334.55805    
   6410000   28.060651      208.69683      351.82645    
   6420000   29.178143      226.63413      382.0656     
   6430000   25.816204      226.72266      382.21485    
   6440000   64.228845      203.35644      342.82348    
   6450000   78.534257      201.39734      339.52078    
   6460000   50.362746      220.79834      372.22747    
   6470000   49.526263      226.24003      381.40122    
   6480000   64.068858      218.48043      368.31988    
   6490000   89.334558      204.46914      344.69929    
   6500000   61.666179      206.70264      348.46459    
   6510000   65.80846       194.27425      327.51248    
   6520000   55.685311      204.69736      345.08403    
   6530000   65.00245       205.94023      347.17929    
   6540000   50.300716      220.24978      371.3027     
   6550000   98.208558      194.27712      327.51733    
   6560000   74.063721      205.22408      345.97199    
   6570000   94.953488      231.12166      389.6308     
   6580000   80.117582      222.80115      375.60386    
   6590000   78.396861      237.80587      400.89921    
   6600000   69.812923      232.88006      392.59514    
   6610000   59.32557       235.02021      396.20306    
   6620000   78.692595      252.34514      425.40987    
   6630000   79.142134      228.39526      385.03456    
   6640000   64.423407      207.59843      349.97472    
   6650000   57.905642      206.32262      347.82393    
   6660000   50.301343      208.1721       350.94183    
   6670000   52.555348      198.48355      334.60864    
   6680000   51.901497      200.05875      337.26414    
   6690000   36.365424      218.21327      367.8695     
   6700000   36.757172      213.58363      360.06473    
   6710000   64.892463      215.92113      364.00535    
   6720000   66.218206      227.36683      383.3008     
   6730000   72.117651      231.96901      391.05927    
   6740000   103.67871      219.25885      369.63217    
   6750000   82.560133      211.6444       356.79553    
   6760000   81.468349      204.25712      344.34186    
   6770000   38.322243      237.943        401.13037    
   6780000   79.768424      223.00365      375.94524    
   6790000   60.823885      228.74099      385.6174     
   6800000   80.25055       222.27465      374.71627    
   6810000   92.547435      214.38142      361.40967    
   6820000   74.729374      237.30292      400.05131    
   6830000   85.841686      222.38847      374.90815    
   6840000   88.490894      214.45846      361.53955    
   6850000   118.26462      222.86763      375.71593    
   6860000   104.47113      222.56392      375.20393    
   6870000   94.283955      209.03815      352.40184    
   6880000   81.602795      215.54659      363.37393    
   6890000   78.085977      209.04436      352.41232    
   6900000   73.475069      222.88198      375.74012    
   6910000   51.981072      224.62653      378.68113    
   6920000   69.662183      237.53681      400.44561    
   6930000   75.170238      224.48981      378.45064    
   6940000   100.05748      199.11957      335.68084    
   6950000   83.366672      215.97729      364.10003    
   6960000   82.088169      219.11628      369.39182    
   6970000   71.616833      247.86297      417.85371    
   6980000   92.753087      233.09055      392.94999    
   6990000   110.91133      210.9509       355.62641    
   7000000   76.917584      205.01446      345.61861    
   7010000   80.873519      210.5271       354.91195    
   7020000   94.665373      219.95411      370.80426    
   7030000   125.95028      205.08223      345.73286    
   7040000   114.40094      220.79029      372.2139     
   7050000   115.80534      231.1964       389.75678    
   7060000   87.693716      244.43926      412.08194    
   7070000   98.47209       209.21581      352.70135    
   7080000   80.907115      234.20945      394.83626    
   7090000   87.750865      212.10938      357.57941    
   7100000   49.496471      235.14704      396.41688    
   7110000   82.464585      230.5591       388.68242    
   7120000   112.46894      239.92827      404.4772     
   7130000   94.358212      255.52281      430.76687    
   7140000   77.741454      236.584        398.83934    
   7150000   110.6357       218.17123      367.79862    
   7160000   89.216815      222.23775      374.65408    
   7170000   102.62172      197.1044       332.28363    
   7180000   89.995115      248.35753      418.68747    
   7190000   97.351338      238.4002       401.90113    
   7200000   93.219692      206.87613      348.75705    
   7210000   109.37308      230.43541      388.4739     
   7220000   120.38226      236.9406       399.4405     
   7230000   105.37016      217.41359      366.52137    
   7240000   100.13033      233.59914      393.80739    
   7250000   86.974461      228.95441      385.97718    
   7260000   101.40486      227.2956       383.18072    
   7270000   106.27886      215.54426      363.37001    
   7280000   132.61102      216.12453      364.34825    
   7290000   112.33071      234.97255      396.12273    
   7300000   120.59699      230.9557       389.35102    
   7310000   113.01802      219.25454      369.62489    
   7320000   116.89735      222.71367      375.45639    
   7330000   134.11377      223.59715      376.94579    
   7340000   123.48323      234.66565      395.60534    
   7350000   137.06457      234.32574      395.03232    
   7360000   122.41584      270.46053      455.94926    
   7370000   122.77243      210.6762       355.16332    
   7380000   108.25898      214.48886      361.59079    
   7390000   134.60137      239.52213      403.79251    
   7400000   104.09372      256.67437      432.70821    
   7410000   124.26923      232.53393      392.01163    
   7420000   138.09984      236.57471      398.82368    
   7430000   143.29966      223.50586      376.79188    
   7440000   134.2592       225.02557      379.35384    
   7450000   147.34036      217.34106      366.39911    
   7460000   151.75203      230.38442      388.38793    
   7470000   147.39628      223.29665      376.43919    
   7480000   166.96871      231.48766      390.24781    
   7490000   135.40026      222.20141      374.5928     
   7500000   130.82405      233.05111      392.88351    
   7510000   126.19088      231.22592      389.80656    
   7520000   107.30224      251.78079      424.45848    
   7530000   123.22684      224.80064      378.97466    
   7540000   99.754582      222.9697       375.888      
   7550000   94.99572       250.92756      423.02008    
   7560000   154.37146      212.98875      359.06186    
   7570000   125.59401      244.61215      412.37341    
   7580000   126.30788      230.64513      388.82745    
   7590000   121.71529      233.53081      393.6922     
   7600000   122.56225      228.9072       385.8976     
   7610000   114.36429      195.02081      328.77106    
   7620000   130.4634       214.88446      362.2577     
   7630000   136.40528      223.6689       377.06673    
   7640000   127.78434      220.41728      371.58507    
   7650000   100.27956      218.95296      369.11648    
   7660000   121.58497      193.97214      327.00319    
   7670000   107.98303      249.91137      421.30696    
   7680000   116.21782      251.2397       423.5463     
   7690000   122.16639      257.74925      434.52027    
   7700000   161.1936       248.02682      418.12995    
   7710000   147.81161      236.38267      398.49993    
   7720000   133.284        241.26628      406.73285    
   7730000   134.09327      252.07894      424.9611     
   7740000   145.50582      246.45         415.4717     
   7750000   117.11382      224.10109      377.79533    
   7760000   141.50122      232.02361      391.15132    
   7770000   134.46794      238.52423      402.11024    
   7780000   131.09246      234.29269      394.97659    
   7790000   116.25114      235.52577      397.05535    
   7800000   118.99707      220.00953      370.89769    
   7810000   126.07487      218.10479      367.68661    
   7820000   118.48249      230.57604      388.71098    
   7830000   154.94835      226.78647      382.32241    
   7840000   149.54918      236.3341       398.41805    
   7850000   138.16335      222.54085      375.16504    
   7860000   132.68179      227.51762      383.55502    
   7870000   93.496908      237.97609      401.18617    
   7880000   125.67631      255.85145      431.32091    
   7890000   133.95815      235.04694      396.24813    
   7900000   112.29419      236.51689      398.72621    
   7910000   123.20285      212.71703      358.60379    
   7920000   118.19664      255.53685      430.79054    
   7930000   135.62496      244.10219      411.51371    
   7940000   101.50088      233.34005      393.37061    
   7950000   111.30657      252.49058      425.65507    
   7960000   110.64618      236.69658      399.02913    
   7970000   125.29551      227.51851      383.55651    
   7980000   112.31815      248.17031      418.37184    
   7990000   135.8147       270.28396      455.6516     
   8000000   156.75136      234.79223      395.81874    
   8010000   140.01381      261.70062      441.18158    
   8020000   131.70906      240.57489      405.56728    
   8030000   131.39833      242.00086      407.97123    
   8040000   123.74393      256.57815      432.54599    
   8050000   134.99574      217.95561      367.43513    
   8060000   109.34622      247.86652      417.8597     
   8070000   127.47384      253.35987      427.12053    
   8080000   131.66235      241.96648      407.91326    
   8090000   133.37548      234.72677      395.70837    
   8100000   117.79081      235.67912      397.31387    
   8110000   121.64011      254.5046       429.05034    
   8120000   131.58985      242.71299      409.17175    
   8130000   132.2447       228.68839      385.52872    
   8140000   141.28524      231.49656      390.26281    
   8150000   116.21362      233.96358      394.42177    
   8160000   133.05817      246.81392      416.0852     
   8170000   130.61947      223.43376      376.67034    
   8180000   128.13426      242.58951      408.96359    
   8190000   137.13696      246.67815      415.85631    
   8200000   121.99628      248.95978      419.70275    
   8210000   123.17427      225.30802      379.83002    
   8220000   121.80347      242.62823      409.02887    
   8230000   141.771        237.16942      399.82625    
   8240000   137.09826      237.63485      400.6109     
   8250000   130.97043      247.31226      416.92532    
   8260000   143.6558       250.59231      422.4549     
   8270000   151.65559      227.85613      384.12568    
   8280000   117.40887      226.9472       382.59338    
   8290000   107.87476      240.77837      405.91032    
   8300000   126.84533      240.91699      406.14401    
   8310000   139.22825      258.38065      435.58469    
   8320000   121.42135      238.66596      402.34917    
   8330000   125.82143      239.79821      404.25795    
   8340000   150.51573      236.63391      398.92349    
   8350000   127.79324      246.13154      414.93482    
   8360000   144.20869      219.6557       370.30118    
   8370000   113.51275      263.2687       443.82509    
   8380000   141.82507      270.66713      456.29755    
   8390000   128.04682      264.5667       446.01329    
   8400000   142.68189      242.21168      408.32662    
   8410000   134.14682      247.02017      416.43291    
   8420000   141.72372      225.8217       380.69598    
   8430000   140.52543      243.00451      409.6632     
   8440000   151.52471      211.71268      356.91064    
   8450000   138.96045      230.34218      388.31672    
   8460000   134.16056      229.08286      386.19373    
   8470000   113.8112       228.53587      385.2716     
   8480000   109.99908      241.59085      407.28002    
   8490000   128.72151      268.41409      452.49931    
   8500000   118.38655      267.51331      450.98076    
   8510000   135.17146      269.62148      454.53476    
   8520000   140.26365      247.48532      417.21707    
   8530000   139.37737      234.33173      395.04241    
   8540000   126.60184      266.56408      449.38053    
   8550000   142.20226      248.6004       419.0969     
   8560000   141.82624      260.05383      438.40539    
   8570000   165.90846      233.50398      393.64697    
   8580000   144.23936      246.87923      416.1953     
   8590000   140.15323      246.3779       415.35015    
   8600000   144.10595      257.39788      433.92791    
   8610000   155.47819      256.93762      433.152      
   8620000   142.04631      264.77726      446.36826    
   8630000   141.21282      257.21973      433.62758    
   8640000   151.37101      262.5591       442.62883    
   8650000   153.4604       241.37676      406.9191     
   8660000   162.58277      230.9722       389.37883    
   8670000   144.42525      239.64409      403.99813    
   8680000   124.59102      233.52297      393.67899    
   8690000   155.62319      233.30255      393.30739    
   8700000   158.11872      252.8567       426.27228    
   8710000   141.32664      244.02915      411.39056    
   8720000   137.90485      252.88077      426.31286    
   8730000   141.91521      233.84987      394.23007    
   8740000   167.44308      249.83958      421.18594    
   8750000   154.48632      258.0694       435.05998    
   8760000   164.56674      242.41663      408.67214    
   8770000   159.64037      237.63654      400.61374    
   8780000   138.98327      259.28155      437.10345    
   8790000   166.79973      256.3437       432.15075    
   8800000   150.96373      265.05881      446.8429     
   8810000   155.36005      280.18844      472.34882    
   8820000   153.35363      262.27478      442.14951    
   8830000   147.94749      253.50887      427.37172    
   8840000   168.19626      238.92268      402.78195    
   8850000   168.42656      232.6802       392.25822    
   8860000   151.40643      273.91708      461.7764     
   8870000   165.16628      228.52276      385.2495     
   8880000   168.91476      243.90988      411.1895     
   8890000   144.76179      238.93756      402.80703    
   8900000   151.9731       235.61843      397.21157    
   8910000   146.37345      266.95084      450.03253    
   8920000   157.78528      240.62258      405.64768    
   8930000   139.85761      273.18326      460.53931    
   8940000   148.1307       226.09932      381.164      
   8950000   143.83179      240.31915      405.13615    
   8960000   152.98913      245.17943      413.32974    
   8970000   139.92543      249.64553      420.85881    
   8980000   149.1306       244.22682      411.7238     
   8990000   178.8454       253.70227      427.69775    
   9000000   160.02738      265.29964      447.2489     
   9010000   169.22821      232.99039      392.78114    
   9020000   135.88134      241.60018      407.29575    
   9030000   162.76288      217.47591      366.62644    
   9040000   164.26947      247.57922      417.37537    
   9050000   160.95246      250.61389      422.49129    
   9060000   158.57119      233.77172      394.09834    
   9070000   155.9202       257.8831       434.7459     
   9080000   147.81457      271.46609      457.64445    
   9090000   141.72974      260.64884      439.40846    
   9100000   144.0617       234.26364      394.92763    
   9110000   136.24912      258.60342      435.96024    
   9120000   152.67444      245.93155      414.59769    
   9130000   161.29326      250.21329      421.81594    
   9140000   157.16548      251.04783      423.22284    
   9150000   159.92231      286.5213       483.02491    
   9160000   161.66419      271.55134      457.78817    
   9170000   179.52456      235.7644       397.45763    
   9180000   152.90113      269.39793      454.15791    
   9190000   176.84269      254.15651      428.46352    
   9200000   140.88865      282.52829      476.29339    
   9210000   141.40179      254.63354      429.26772    
   9220000   172.90004      231.31614      389.95865    
   9230000   168.85651      253.12937      426.73195    
   9240000   145.49444      281.13668      473.94739    
   9250000   151.4024       260.0223       438.35222    
   9260000   145.37868      276.34534      465.87003    
   9270000   177.03785      256.34192      432.14775    
   9280000   173.94015      261.11232      440.18982    
   9290000   174.89671      264.66268      446.1751     
   9300000   163.24913      263.96839      445.00464    
   9310000   156.43742      236.99533      399.53277    
   9320000   141.50619      265.17093      447.03192    
   9330000   157.54409      263.47988      444.1811     
   9340000   174.78748      274.04318      461.98899    
   9350000   173.19437      267.00067      450.11655    
   9360000   156.12209      235.42131      396.87925    
   9370000   169.27575      262.9426       443.27535    
   9380000   129.84595      239.96833      404.54473    
   9390000   155.14726      241.18163      406.59015    
   9400000   138.82313      247.79586      417.74058    
   9410000   155.317        255.74901      431.14821    
   9420000   161.66087      280.9319       473.60217    
   9430000   157.99867      265.86803      448.2071     
   9440000   157.37548      244.497        412.17927    
   9450000   141.59815      264.53821      445.96525    
   9460000   163.11032      254.73687      429.44192    
   9470000   152.81865      272.78289      459.86436    
   9480000   167.87979      258.91256      436.48141    
   9490000   170.36781      254.54832      429.12405    
   9500000   150.09498      249.36653      420.38846    
   9510000   177.65762      232.46034      391.88757    
   9520000   163.53067      252.02235      424.8657     
   9530000   160.3984       268.68723      452.95978    
   9540000   187.95344      243.36702      410.27434    
   9550000   159.12927      262.20935      442.03921    
   9560000   159.28903      229.58565      387.04135    
   9570000   152.57651      247.64086      417.47929    
   9580000   170.5455       274.90937      463.44923    
   9590000   162.2689       259.58533      437.61557    
   9600000   160.78374      267.4941       450.94838    
   9610000   157.46195      265.11503      446.93768    
   9620000   169.86051      268.5241       452.68478    
   9630000   162.86147      248.78928      419.41532    
   9640000   160.84731      276.5803       466.26613    
   9650000   180.0969       245.48443      413.84392    
   9660000   154.08148      286.53981      483.05613    
   9670000   189.79743      246.59081      415.70908    
   9680000   156.44813      284.15932      479.04303    
   9690000   159.91987      286.92838      483.71118    
   9700000   172.77141      256.22841      431.9564     
   9710000   158.7645       261.74634      441.25866    
   9720000   159.8121       240.06954      404.71536    
   9730000   155.54117      270.67275      456.30703    
   9740000   161.33325      272.61196      459.57619    
   9750000   180.67497      253.35399      427.11063    
   9760000   176.07832      273.85207      461.6668     
   9770000   156.1664       273.883        461.71896    
   9780000   148.11446      281.23704      474.11657    
   9790000   167.63068      261.50111      440.84525    
   9800000   153.56546      273.44535      460.98115    
   9810000   153.24867      250.81172      422.82479    
   9820000   135.47083      250.5007       422.30046    
   9830000   136.56498      264.5772       446.03099    
   9840000   116.85315      301.0273       507.47951    
   9850000   139.6668       277.29238      467.46657    
   9860000   150.50429      260.37028      438.93886    
   9870000   139.59059      250.64392      422.54192    
   9880000   161.47153      259.20856      436.98041    
   9890000   160.91969      272.57896      459.52057    
   9900000   149.66904      244.60128      412.35507    
   9910000   165.31808      298.29732      502.87723    
   9920000   156.91047      258.02745      434.98925    
   9930000   158.8872       270.3912       455.83239    
   9940000   151.86155      268.40448      452.48311    
   9950000   177.78913      261.14164      440.23923    
   9960000   169.24258      291.61572      491.61322    
   9970000   166.96342      266.86807      449.893      
   9980000   169.01306      254.84856      429.6302     
   9990000   168.71229      275.50157      464.44757    
  10000000   174.00351      269.26173      453.92829    
  10010000   158.10668      259.0612       436.73197    
  10020000   184.55543      262.78384      443.00769    
  10030000   189.25581      276.69873      466.46577    
  10040000   175.82669      256.00867      431.58595    
  10050000   163.26768      263.69379      444.54171    
  10060000   148.59103      257.41797      433.96178    
  10070000   181.04726      272.12331      458.75242    
  10080000   182.59061      266.66601      449.55237    
  10090000   181.41759      272.07296      458.66754    
  10100000   171.36323      249.82798      421.16638    
  10110000   161.47987      263.75267      444.64099    
  10120000   156.22386      261.25607      440.43216    
  10130000   178.09271      265.05921      446.84358    
  10140000   178.26211      299.65773      505.17065    
  10150000   162.70188      290.2592       489.32636    
  10160000   178.42109      284.23229      479.16605    
  10170000   184.67745      287.52032      484.70909    
  10180000   165.43768      280.7026       473.21561    
  10190000   175.82739      281.00634      473.72765    
  10200000   174.69215      280.39697      472.70036    
  10210000   175.48599      256.75896      432.85081    
  10220000   175.22418      238.38522      401.87589    
  10230000   179.48924      268.88824      453.29865    
  10240000   150.78282      293.79367      495.28486    
  10250000   176.46796      281.39404      474.38125    
  10260000   168.1001       277.05701      467.06978    
  10270000   150.45724      264.04441      445.1328     
  10280000   211.65034      273.04404      460.30461    
  10290000   180.96916      278.29191      469.1516     
  10300000   160.73227      286.40541      482.82955    
  10310000   162.66502      272.53875      459.45278    
  10320000   161.87277      272.56819      459.5024     
  10330000   172.42643      253.56513      427.46657    
  10340000   177.7762       267.79422      451.45433    
  10350000   167.09179      285.73892      481.70596    
  10360000   169.38067      297.58653      501.67896    
  10370000   198.18484      277.97579      468.61868    
  10380000   180.3202       259.48891      437.45302    
  10390000   174.70891      249.36439      420.38486    
  10400000   156.98213      254.45359      428.96435    
  10410000   140.98168      267.34626      450.69915    
  10420000   180.52102      256.69347      432.74039    
  10430000   192.23104      246.63485      415.78331    
  10440000   150.33216      271.93293      458.43146    
  10450000   178.25404      284.50152      479.61993    
  10460000   176.28549      257.82168      434.64237    
  10470000   168.17155      275.16917      463.88721    
  10480000   178.51187      256.61723      432.61186    
  10490000   174.06504      253.5917       427.51135    
  10500000   186.73346      277.92389      468.53119    
  10510000   183.15832      264.48483      445.87528    
  10520000   160.69057      288.58016      486.4958     
  10530000   171.32123      261.79896      441.34737    
  10540000   157.89394      281.99084      475.38736    
  10550000   171.06213      271.51682      457.72998    
  10560000   193.6081       270.49386      456.00545    
  10570000   190.61978      280.61612      473.06981    
  10580000   176.65816      290.84894      490.32056    
  10590000   186.34482      319.06861      537.894      
  10600000   171.43222      280.19566      472.36098    
  10610000   168.26668      269.79659      454.82998    
  10620000   155.17839      255.2924       430.37844    
  10630000   175.17937      267.41344      450.81239    
  10640000   159.05433      280.77016      473.3295     
  10650000   180.65122      273.21407      460.59124    
  10660000   162.34874      281.49777      474.55612    
  10670000   163.10236      256.2591       432.00813    
  10680000   181.61729      256.62663      432.62772    
  10690000   164.80969      254.7721       429.50131    
  10700000   166.56391      254.13535      428.42786    
  10710000   186.88267      247.92474      417.95784    
  10720000   178.6257       286.90435      483.67068    
  10730000   189.35179      305.93952      515.76065    
  10740000   193.2527       325.74202      549.14421    
  10750000   191.62411      277.52833      467.86435    
  10760000   197.44711      290.07372      489.01369    
  10770000   201.16098      283.37348      477.71824    
  10780000   195.00655      287.3302       484.38858    
  10790000   192.47996      294.45156      496.39396    
  10800000   181.45935      273.27614      460.69589    
  10810000   169.62541      269.29588      453.98587    
  10820000   190.1318       269.79027      454.81932    
  10830000   185.34172      267.74269      451.36746    
  10840000   172.66136      287.64429      484.91809    
  10850000   188.0043       301.59464      508.43593    
  10860000   185.82692      290.50234      489.73625    
  10870000   162.25746      302.4422       509.86477    
  10880000   185.94093      298.34911      502.96454    
  10890000   152.89311      310.43883      523.34569    
  10900000   176.36976      272.5059       459.39739    
  10910000   199.00311      296.07579      499.13213    
  10920000   163.07091      261.44397      440.74891    
  10930000   171.26675      298.47536      503.17738    
  10940000   174.60683      289.83117      488.60478    
  10950000   182.33348      273.22558      460.61065    
  10960000   184.50001      270.84369      456.5952     
  10970000   171.8696       280.84581      473.45703    
  10980000   189.25317      285.94197      482.04827    
  10990000   197.35073      289.32055      487.74397    
  11000000   161.03077      302.72726      510.34534    
  11010000   182.53588      304.90416      514.0152     
  11020000   192.09588      267.20457      450.46028    
  11030000   169.2849       295.41921      498.02524    
  11040000   166.57824      284.88929      480.27363    
  11050000   191.69147      268.02885      451.84987    
  11060000   173.31225      278.78077      469.97573    
  11070000   179.47586      297.30584      501.20576    
  11080000   177.37578      305.83174      515.57895    
  11090000   173.79117      310.87311      524.07782    
  11100000   174.52022      268.29801      452.30363    
  11110000   166.21713      269.9196       455.03734    
  11120000   162.69744      298.39175      503.03643    
  11130000   175.99146      276.47879      466.09499    
  11140000   177.14442      293.62872      495.00678    
  11150000   175.33501      274.99531      463.59411    
  11160000   171.77427      276.18187      465.59445    
  11170000   185.69057      270.44948      455.93064    
  11180000   171.47595      297.23681      501.08939    
  11190000   191.53681      272.44049      459.28712    
  11200000   180.49921      289.70737      488.39608    
  11210000   161.41265      283.59503      478.09173    
  11220000   170.31434      296.3996       499.67801    
  11230000   221.17589      298.21687      502.7416     
  11240000   175.15251      286.72967      483.37619    
  11250000   183.12642      283.85372      478.52784    
  11260000   172.97141      311.06539      524.40198    
  11270000   158.43977      287.35274      484.42658    
  11280000   194.84857      282.02979      475.45301    
  11290000   190.99336      229.66037      387.16731    
  11300000   184.81051      286.23045      482.5346     
  11310000   176.29885      257.1535       433.51593    
  11320000   166.96773      284.57219      479.73906    
  11330000   150.35053      297.58681      501.67943    
  11340000   201.31392      293.53047      494.84116    
  11350000   187.08809      292.92523      493.82083    
  11360000   189.56398      278.05715      468.75584    
  11370000   185.84536      287.20271      484.17365    
  11380000   180.7122       263.51167      444.2347     
  11390000   175.69675      290.99341      490.56412    
  11400000   197.54007      319.24948      538.19892    
  11410000   185.62488      289.60624      488.22559    
  11420000   174.42581      321.58819      542.14158    
  11430000   196.91414      285.626        481.5156     
  11440000   195.70912      317.2636       534.85107    
  11450000   171.66359      287.9774       485.47965    
  11460000   188.48595      295.03846      497.38336    
  11470000   173.84673      286.59104      483.14249    
  11480000   198.88208      304.88391      513.98108    
  11490000   189.05358      287.14517      484.07666    
  11500000   192.90865      302.32837      509.67288    
  11510000   172.31136      323.45315      545.28557    
  11520000   225.39991      310.48575      523.42479    
  11530000   199.56915      312.13165      526.1995     
  11540000   193.56008      318.42137      536.80286    
  11550000   197.32669      314.81638      530.72548    
  11560000   167.38983      301.70232      508.61746    
  11570000   187.86579      280.50024      472.87446    
  11580000   192.43144      292.75367      493.5316     
  11590000   178.28565      271.82791      458.25443    
  11600000   166.8635       300.46907      506.53842    
  11610000   186.90165      297.22114      501.06298    
  11620000   194.58137      301.23052      507.82209    
  11630000   216.06582      285.11378      480.65209    
  11640000   199.94017      305.55424      515.11114    
  11650000   179.70214      281.68026      474.86376    
  11660000   194.35885      275.24602      464.01677    
  11670000   192.94783      283.83255      478.49215    
  11680000   194.40444      310.29488      523.10302    
  11690000   199.90372      301.27304      507.89377    
  11700000   208.87917      303.12163      511.01017    
  11710000   176.53547      305.35457      514.77453    
  11720000   196.50955      269.92499      455.04644    
  11730000   194.41217      305.00565      514.18631    
  11740000   190.0611       302.03386      509.17639    
  11750000   197.5147       273.46963      461.02208    
  11760000   174.59338      315.19332      531.36094    
  11770000   213.80394      264.11974      445.2598     
  11780000   163.53437      263.65787      444.48116    
  11790000   180.27356      316.87308      534.19272    
  11800000   207.42453      284.48274      479.58825    
  11810000   184.34931      284.19041      479.09544    
  11820000   189.29802      294.7729       496.93568    
  11830000   196.4711       301.37691      508.06889    
  11840000   171.08321      314.46035      530.12529    
  11850000   174.86507      301.50166      508.2792     
  11860000   177.25273      311.01948      524.32458    
  11870000   183.6329       293.70462      495.13474    
  11880000   188.34251      269.38845      454.14193    
  11890000   193.48486      282.72607      476.62682    
  11900000   221.86687      289.98116      488.85764    
  11910000   179.99056      300.87626      507.22488    
  11920000   172.26975      289.34677      487.78816    
  11930000   181.85945      272.80185      459.89632    
  11940000   162.11099      312.1208       526.18122    
  11950000   186.39012      284.20857      479.12605    
  11960000   163.25118      296.06555      499.11486    
  11970000   179.36323      311.84945      525.72376    
  11980000   207.57         273.98146      461.88493    
  11990000   193.04994      316.87529      534.19645    
  12000000   176.10734      299.01145      504.08113    
Loop time of 752.357 on 1 procs for 8000000 steps with 200 atoms

Performance: 9187.129 ns/day, 0.003 hours/ns, 10633.252 timesteps/s, 2.127 Matom-step/s
99.3% CPU use with 1 MPI tasks x 1 OpenMP threads

MPI task timing breakdown:
Section |  min time  |  avg time  |  max time  |%varavg| %total
---------------------------------------------------------------
Pair    | 572.84     | 572.84     | 572.84     |   0.0 | 76.14
Bond    | 76.694     | 76.694     | 76.694     |   0.0 | 10.19
Neigh   | 42.893     | 42.893     | 42.893     |   0.0 |  5.70
Comm    | 26.14      | 26.14      | 26.14      |   0.0 |  3.47
Output  | 0.28661    | 0.28661    | 0.28661    |   0.0 |  0.04
Modify  | 31.812     | 31.812     | 31.812     |   0.0 |  4.23
Other   |            | 1.694      |            |       |  0.23

Nlocal:            200 ave         200 max         200 min
Histogram: 1 0 0 0 0 0 0 0 0 0
Nghost:              0 ave           0 max           0 min
Histogram: 1 0 0 0 0 0 0 0 0 0
Neighs:            668 ave         668 max         668 min
Histogram: 1 0 0 0 0 0 0 0 0 0

Total # of neighbors = 668
Ave neighs/atom = 3.34
Ave special neighs/atom = 5.94
Neighbor list builds = 25250
Dangerous builds = 0
Generated 0 of 6 mixed pair_coeff terms from geometric mixing rule
Setting up Verlet run ...
  Unit style    : real
  Current step  : 12000000
  Time step     : 10
Per MPI rank memory allocation (min/avg/max) = 19.32 | 19.32 | 19.32 Mbytes
   Step         PotEng         KinEng          Temp     
  12000000   176.10734      299.01145      504.08113    
  12010000   198.37902      299.29788      504.564      
  12020000   153.13553      302.93871      510.70181    
  12030000   159.18453      289.04108      487.27283    
  12040000   183.09576      274.08574      462.06073    
  12050000   162.55832      293.0174       493.97621    
  12060000   149.69495      300.07887      505.88061    
  12070000   175.77994      315.31725      531.56986    
  12080000   195.50844      286.24788      482.56398    
  12090000   195.18727      309.29117      521.41094    
  12100000   200.44887      329.37438      555.26773    
  12110000   185.28753      321.34637      541.73391    
  12120000   174.03999      316.21615      533.08526    
  12130000   200.9865       299.2854       504.54297    
  12140000   188.94544      298.35772      502.97905    
  12150000   194.85884      285.62802      481.519      
  12160000   179.63683      295.80923      498.68274    
  12170000   197.10428      302.9012       510.63856    
  12180000   179.74528      293.21698      494.31267    
  12190000   180.9565       284.44289      479.52108    
  12200000   191.87015      303.67641      511.94543    
  12210000   214.73248      303.01474      510.82999    
  12220000   186.72866      291.37698      491.21074    
  12230000   191.43742      311.30217      524.80113    
  12240000   198.83554      303.95538      512.41574    
  12250000   211.41191      289.71312      488.40576    
  12260000   194.14624      289.75067      488.46907    
  12270000   175.79777      304.76347      513.77803    
  12280000   183.08248      310.12105      522.80997    
  12290000   178.61465      289.68421      488.35703    
  12300000   190.55905      321.58811      542.14145    
  12310000   172.48753      330.927        557.88518    
  12320000   182.18153      297.97543      502.33458    
  12330000   173.61946      296.7837       500.32554    
  12340000   181.56346      291.24579      490.98958    
  12350000   184.46425      326.49351      550.41109    
  12360000   195.01339      300.386        506.39838    
  12370000   182.33348      306.07472      515.98857    
  12380000   186.78075      312.7492       527.24059    
  12390000   211.39201      278.79469      469.99921    
  12400000   210.73625      283.02734      477.13471    
  12410000   188.80017      305.2605       514.61594    
  12420000   179.01997      295.94778      498.91632    
  12430000   231.19103      291.2644       491.02096    
  12440000   172.37187      305.23995      514.58129    
  12450000   179.09622      290.70768      490.08242    
  12460000   182.05947      315.84668      532.46239    
  12470000   175.46098      298.64093      503.4565     
  12480000   215.81766      300.44559      506.49884    
  12490000   223.8486       304.68075      513.63859    
  12500000   170.25947      310.59458      523.60826    
  12510000   186.32777      268.75881      453.08047    
  12520000   194.89953      281.40608      474.40155    
  12530000   182.77597      269.69844      454.66451    
  12540000   171.93621      259.67664      437.7695     
  12550000   180.77896      274.27162      462.37409    
  12560000   170.08277      286.66452      483.26637    
  12570000   184.42812      293.2088       494.29888    
  12580000   157.33441      364.16034      613.91079    
  12590000   186.04624      293.37988      494.58728    
  12600000   203.22152      275.94653      465.1977     
  12610000   200.46795      293.26159      494.38787    
  12620000   195.03484      330.29118      556.81329    
  12630000   183.3732       299.51167      504.92442    
  12640000   189.35771      297.56291      501.63915    
  12650000   199.90825      316.61856      533.76365    
  12660000   198.28843      316.42495      533.43725    
  12670000   179.49823      306.659        516.97357    
  12680000   184.94688      285.1522       480.71685    
  12690000   205.1664       287.43002      484.55686    
  12700000   170.41884      302.53602      510.02294    
  12710000   164.77077      324.50751      547.06304    
  12720000   198.55894      279.53429      471.24603    
  12730000   193.05111      287.46034      484.60797    
  12740000   210.25801      292.54772      493.1844     
  12750000   189.16966      335.63556      565.82299    
  12760000   198.14246      291.69684      491.74998    
  12770000   185.8413       280.20994      472.38507    
  12780000   217.7369       314.56327      530.29878    
  12790000   206.0218       300.66009      506.86044    
  12800000   190.90126      301.58416      508.41827    
  12810000   162.53734      291.36052      491.18299    
  12820000   183.12112      268.73951      453.04793    
  12830000   184.01025      290.06483      488.9987     
  12840000   190.56816      323.06593      544.63278    
  12850000   200.64556      275.97994      465.25402    
  12860000   162.41964      300.15579      506.01029    
  12870000   194.40353      275.45215      464.36427    
  12880000   202.06756      300.83159      507.14957    
  12890000   196.84807      285.25777      480.89482    
  12900000   180.57387      299.26801      504.51365    
  12910000   193.66214      270.402        455.85058    
  12920000   201.06729      275.80247      464.95484    
  12930000   204.98182      251.97443      424.78491    
  12940000   189.26487      302.04418      509.19378    
  12950000   188.79546      288.56918      486.47729    
  12960000   225.77905      303.07071      510.92434    
  12970000   187.87855      297.02774      500.73695    
  12980000   169.89066      275.79793      464.94718    
  12990000   181.09996      301.93253      509.00556    
  13000000   213.60217      273.90302      461.75269    
  13010000   172.77837      336.12977      566.65615    
  13020000   193.13637      292.76763      493.55514    
  13030000   185.22262      317.09789      534.57172    
  13040000   209.58438      311.34353      524.87087    
  13050000   185.57745      298.27306      502.83634    
  13060000   166.40988      283.58542      478.07553    
[...]
 404740000  -89.29225       196.15163      330.67742    
 404750000  -88.51008       172.22398      290.33958    
 404760000  -83.4859        178.13328      300.30162    
 404770000  -59.936914      163.29669      275.28972    
 404780000  -42.230188      155.16204      261.57613    
 404790000  -72.841049      185.05239      311.96604    
 404800000  -67.594685      177.84765      299.8201     
 404810000  -66.71918       183.87352      309.97867    
 404820000  -59.412709      195.79314      330.07307    
 404830000  -40.397229      186.67395      314.6997     
 404840000  -41.160367      183.3098       309.02834    
 404850000  -83.915352      186.06703      313.67655    
 404860000  -67.177859      173.41934      292.35475    
 404870000  -88.457519      175.27137      295.47695    
 404880000  -66.047818      176.34948      297.29446    
 404890000  -84.652649      176.62984      297.76708    
 404900000  -71.780402      172.29366      290.45704    
 404910000  -82.919437      182.47078      307.6139     
 404920000  -72.261301      168.84673      284.64613    
 404930000  -63.829209      161.39868      272.09001    
 404940000  -88.242787      189.94739      320.21816    
 404950000  -91.973733      174.81534      294.70815    
 404960000  -87.325344      165.16162      278.43367    
 404970000  -77.838971      172.5591       290.90453    
 404980000  -91.579419      163.07918      274.92305    
 404990000  -102.33392      196.93254      331.99391    
 405000000  -66.126711      182.16241      307.09404    
 405010000  -71.568363      171.71152      289.47566    
 405020000  -68.760716      168.11366      283.4103     
 405030000  -82.352562      178.64666      301.1671     
 405040000  -68.194287      166.11771      280.04548    
 405050000  -86.919602      171.00242      288.28025    
 405060000  -89.669749      193.93297      326.93715    
 405070000  -79.954233      172.90763      291.4921     
 405080000  -73.416673      178.89249      301.58152    
 405090000  -66.01856       163.51782      275.66252    
 405100000  -65.559701      177.55976      299.33478    
 405110000  -60.62606       183.01851      308.53727    
 405120000  -52.516865      199.51787      336.35232    
 405130000  -46.536546      181.51315      305.99951    
 405140000  -63.763355      184.40491      310.87451    
 405150000  -55.938312      191.40565      322.67653    
 405160000  -71.733668      185.9118       313.41486    
 405170000  -60.969593      180.78542      304.77267    
 405180000  -24.551149      167.74744      282.79292    
 405190000  -75.390934      192.77574      324.98626    
 405200000  -74.277012      187.77231      316.55135    
 405210000  -52.301553      179.4112       302.45598    
 405220000  -45.182567      180.35775      304.0517     
 405230000  -69.055176      186.00873      313.57827    
 405240000  -65.196764      171.04403      288.35039    
 405250000  -64.179116      193.12793      325.57999    
 405260000  -55.794531      189.55395      319.55489    
 405270000  -80.363144      180.8025       304.80146    
 405280000  -72.553517      180.12725      303.66312    
 405290000  -65.45037       181.24609      305.54929    
 405300000  -65.646892      172.4927       290.7926     
 405310000  -79.38388       195.34137      329.31147    
 405320000  -68.027159      171.05644      288.37132    
 405330000  -87.967621      178.03043      300.12823    
 405340000  -63.799267      166.22331      280.2235     
 405350000  -74.804446      190.65278      321.40731    
 405360000  -44.357526      164.37507      277.10769    
 405370000  -47.364307      167.67239      282.6664     
 405380000  -86.642998      180.14825      303.69852    
 405390000  -76.269752      176.79656      298.04816    
 405400000  -74.848979      188.04491      317.0109     
 405410000  -68.634688      171.67157      289.40832    
 405420000  -54.087513      171.68666      289.43375    
 405430000  -39.505713      173.16981      291.93409    
 405440000  -58.185923      188.11494      317.12896    
 405450000  -38.029499      181.18922      305.4534     
 405460000  -53.743164      171.87608      289.75308    
 405470000  -62.086933      190.74482      321.56249    
 405480000  -59.956942      168.62527      284.27278    
 405490000  -58.788768      164.99299      278.1494     
 405500000  -63.594195      168.66634      284.34201    
 405510000  -66.593321      168.15679      283.483      
 405520000  -53.184913      170.16435      286.86739    
 405530000  -63.763638      177.87237      299.86178    
 405540000  -78.354197      174.76082      294.61625    
 405550000  -68.639922      195.59192      329.73384    
 405560000  -61.185835      182.95855      308.43619    
 405570000  -61.229559      165.75701      279.43739    
 405580000  -90.781366      176.24559      297.11932    
 405590000  -73.315779      161.78722      272.74503    
 405600000  -73.925238      166.00082      279.84842    
 405610000  -58.93745       171.63557      289.34763    
 405620000  -82.796417      187.5978       316.25716    
 405630000  -66.521303      168.56667      284.17399    
 405640000  -62.637206      170.57163      287.55401    
 405650000  -70.594012      162.02353      273.1434     
 405660000  -69.630917      175.22056      295.39129    
 405670000  -64.791092      179.62279      302.81268    
 405680000  -77.859207      180.292        303.94086    
 405690000  -93.880255      168.86833      284.68254    
 405700000  -66.317983      159.78416      269.36821    
 405710000  -84.160811      178.60946      301.10438    
 405720000  -79.35681       189.56399      319.57181    
 405730000  -65.5348        170.95071      288.19306    
 405740000  -85.640904      169.35035      285.49514    
 405750000  -93.559145      172.36733      290.58123    
 405760000  -99.362129      176.03279      296.76058    
 405770000  -88.215909      176.25865      297.14133    
 405780000  -86.981802      164.29241      276.96834    
 405790000  -89.686484      163.65263      275.88979    
 405800000  -94.995127      172.06971      290.0795     
 405810000  -74.596087      178.14121      300.315      
 405820000  -79.793709      175.81611      296.39529    
 405830000  -81.168706      187.86007      316.69929    
 405840000  -74.596954      183.23969      308.91014    
 405850000  -55.120897      178.48015      300.88638    
 405860000  -89.818275      176.10243      296.87797    
 405870000  -78.027489      176.20586      297.05233    
 405880000  -110.53453      195.28798      329.22146    
 405890000  -95.843994      164.74301      277.72797    
 405900000  -88.828344      186.3305       314.12071    
 405910000  -95.799505      160.87652      271.20973    
 405920000  -77.833657      177.90776      299.92144    
 405930000  -83.317155      180.26323      303.89235    
 405940000  -81.67786       182.18162      307.12641    
 405950000  -63.893143      178.18631      300.39102    
 405960000  -91.139256      187.26173      315.69061    
 405970000  -83.110726      178.79301      301.41382    
 405980000  -82.894458      170.34891      287.17854    
 405990000  -89.196273      176.22888      297.09114    
 406000000  -102.04478      164.51916      277.35059    
 406010000  -76.713592      163.79987      276.138      
 406020000  -79.915419      171.03921      288.34226    
 406030000  -76.299338      185.22363      312.25472    
 406040000  -64.979758      169.49527      285.73945    
 406050000  -71.867195      168.61619      284.25747    
 406060000  -66.692987      169.743        286.15709    
 406070000  -66.338584      170.04973      286.67417    
 406080000  -65.765027      171.24338      288.68647    
 406090000  -69.079799      173.50013      292.49095    
 406100000  -38.289488      154.7437       260.87088    
 406110000  -68.369324      183.67636      309.64629    
 406120000  -66.804705      193.77904      326.67765    
 406130000  -61.744744      170.4705       287.38352    
 406140000  -49.258142      154.78326      260.93757    
 406150000  -75.063861      160.9169       271.27782    
 406160000  -67.834997      174.80254      294.68658    
 406170000  -53.989152      160.97297      271.37234    
 406180000  -70.41652       168.19995      283.55577    
 406190000  -75.918042      179.71527      302.96859    
 406200000  -87.401913      184.78574      311.51651    
 406210000  -88.539015      180.10623      303.62768    
 406220000  -80.48799       171.98034      289.92884    
 406230000  -88.699487      182.13786      307.05266    
 406240000  -86.30734       161.18693      271.73303    
 406250000  -87.549038      172.38518      290.61133    
 406260000  -84.011168      180.23119      303.83833    
 406270000  -114.38387      178.86069      301.52792    
 406280000  -110.66403      172.61506      290.99887    
 406290000  -121.92662      171.68207      289.42602    
 406300000  -113.14203      182.39878      307.49251    
 406310000  -102.02566      168.66023      284.33172    
 406320000  -108.26708      170.11348      286.78165    
 406330000  -97.799177      163.61307      275.82309    
 406340000  -100.68397      184.50507      311.04336    
 406350000  -88.294869      178.66467      301.19747    
 406360000  -76.785091      177.48841      299.2145     
 406370000  -73.671312      170.75761      287.86754    
 406380000  -79.332579      199.27275      335.93908    
 406390000  -88.022591      191.71191      323.19283    
 406400000  -65.558188      192.99905      325.36273    
 406410000  -61.533918      195.63209      329.80158    
 406420000  -65.05144       196.14577      330.66754    
 406430000  -46.944174      180.28512      303.92926    
 406440000  -59.881983      169.38038      285.54577    
 406450000  -76.866014      197.39114      332.76703    
 406460000  -70.756001      163.54546      275.7091     
 406470000  -82.326724      170.32791      287.14314    
 406480000  -83.631217      189.20276      318.96284    
 406490000  -61.337932      178.17526      300.37239    
 406500000  -76.201452      197.39778      332.77821    
 406510000  -61.458808      175.19983      295.35634    
 406520000  -99.680311      189.12443      318.8308     
 406530000  -75.184262      175.95635      296.6317     
 406540000  -84.528001      178.05093      300.1628     
 406550000  -75.821982      183.07643      308.63491    
 406560000  -63.490302      197.49888      332.94865    
 406570000  -63.951588      194.6182       328.09233    
 406580000  -61.498932      188.50396      317.78478    
 406590000  -64.043779      163.44637      275.54206    
 406600000  -83.828843      177.70318      299.57655    
 406610000  -78.364695      188.66449      318.05541    
 406620000  -97.844283      163.51254      275.65362    
 406630000  -95.511636      170.32585      287.13967    
 406640000  -81.560865      157.3539       265.27122    
 406650000  -101.06856      153.0309       257.9834     
 406660000  -95.973753      196.63212      331.48745    
 406670000  -101.60598      168.18129      283.52431    
 406680000  -94.614832      178.254        300.50514    
 406690000  -80.213765      177.18838      298.70869    
 406700000  -73.135112      169.91159      286.44129    
 406710000  -87.355475      178.54086      300.98873    
 406720000  -85.000608      176.76424      297.99366    
 406730000  -62.26291       169.38872      285.55982    
 406740000  -88.866574      168.10362      283.39338    
 406750000  -91.569114      175.97675      296.66609    
 406760000  -70.045106      170.77148      287.89091    
 406770000  -72.711         179.20501      302.10838    
 406780000  -104.36482      170.47175      287.38563    
 406790000  -87.336636      159.78175      269.36415    
 406800000  -97.342214      163.57546      275.75969    
 406810000  -88.259737      163.9801       276.44184    
 406820000  -78.42904       160.89575      271.24216    
 406830000  -64.399838      179.6381       302.83849    
 406840000  -98.911125      180.13139      303.67008    
 406850000  -82.345941      159.07408      268.17115    
 406860000  -109.74796      184.09605      310.35382    
 406870000  -116.85914      175.57603      295.99055    
 406880000  -82.666608      177.60893      299.41766    
 406890000  -99.677192      173.33292      292.20906    
 406900000  -83.734033      169.758        286.18237    
 406910000  -120.78971      189.86624      320.08134    
 406920000  -105.86838      175.80615      296.3785     
 406930000  -97.90217       167.60891      282.55937    
 406940000  -86.502188      174.23502      293.72984    
 406950000  -100.77773      179.80275      303.11606    
 406960000  -106.86617      174.20326      293.67631    
 406970000  -100.13048      188.45077      317.69512    
 406980000  -84.089142      185.74602      313.13539    
 406990000  -101.80745      191.66609      323.11558    
 407000000  -102.81647      162.10767      273.28525    
 407010000  -126.1394       184.5961       311.19681    
 407020000  -118.8385       189.48477      319.43825    
 407030000  -85.293173      188.86745      318.39757    
 407040000  -80.234638      187.26541      315.69681    
 407050000  -70.171389      170.05455      286.6823     
 407060000  -74.676058      190.8349       321.71434    
 407070000  -62.257754      178.70659      301.26812    
 407080000  -57.426599      173.29171      292.13959    
 407090000  -75.166656      171.25898      288.71276    
 407100000  -96.41279       196.98125      332.07602    
 407110000  -95.043611      194.50383      327.89952    
 407120000  -96.654673      189.00125      318.62313    
 407130000  -94.331001      171.79848      289.62226    
 407140000  -92.786084      170.19023      286.91104    
 407150000  -94.733667      171.07155      288.39678    
 407160000  -80.94081       174.05227      293.42175    
 407170000  -91.664239      163.39615      275.4574     
 407180000  -91.995605      174.35597      293.93374    
 407190000  -83.41514       172.04783      290.04261    
 407200000  -79.660344      177.04047      298.45934    
 407210000  -113.72875      161.20661      271.76621    
 407220000  -88.384352      155.32392      261.84903    
 407230000  -108.91045      170.82794      287.98609    
 407240000  -81.647811      171.08933      288.42676    
 407250000  -60.738728      178.25736      300.51081    
 407260000  -82.271777      188.57275      317.90076    
 407270000  -80.788508      188.99935      318.61993    
 407280000  -94.781548      181.13051      305.35444    
 407290000  -77.656373      187.3853       315.89892    
 407300000  -75.257324      180.55888      304.39077    
 407310000  -68.111776      174.82901      294.7312     
 407320000  -61.375697      188.87671      318.41318    
 407330000  -106.96742      194.81935      328.43143    
 407340000  -69.49129       183.13168      308.72805    
 407350000  -64.399399      165.22745      278.54465    
 407360000  -62.036078      169.71688      286.11305    
 407370000  -78.132442      177.20687      298.73986    
 407380000  -78.309469      182.2288       307.20596    
 407390000  -64.870847      186.55278      314.49543    
 407400000  -69.328776      190.40987      320.99782    
 407410000  -74.787003      187.37816      315.88688    
 407420000  -51.44209       175.79211      296.35483    
 407430000  -40.524099      189.97989      320.27294    
 407440000  -56.340577      193.32866      325.91839    
 407450000  -35.882786      184.10193      310.36373    
 407460000  -65.674835      211.61232      356.74144    
 407470000  -72.218833      163.93604      276.36755    
 407480000  -52.463786      186.03153      313.6167     
 407490000  -58.354417      175.71662      296.22756    
 407500000  -107.94966      197.4468       332.86085    
 407510000  -89.09559       190.93854      321.88907    
 407520000  -78.208826      172.87301      291.43373    
 407530000  -86.239001      183.60074      309.51881    
 407540000  -74.003179      173.79492      292.9879     
 407550000  -61.222275      167.00697      281.54461    
 407560000  -82.397061      189.97075      320.25754    
 407570000  -80.907193      168.83321      284.62332    
 407580000  -82.822225      162.83651      274.51394    
 407590000  -97.116809      165.85288      279.59902    
 407600000  -104.50791      193.67978      326.51032    
 407610000  -72.947178      169.50216      285.75106    
 407620000  -67.254555      186.16425      313.84045    
 407630000  -58.288266      171.83859      289.68988    
 407640000  -91.765924      172.77791      291.27341    
 407650000  -91.259676      182.20759      307.17021    
 407660000  -85.451181      161.28861      271.90445    
 407670000  -68.95343       169.15447      285.16492    
 407680000  -92.436333      165.78485      279.48433    
 407690000  -97.406018      170.1021       286.76245    
 407700000  -92.043351      193.53244      326.26193    
 407710000  -59.519686      178.08728      300.22407    
 407720000  -67.378917      171.98439      289.93568    
 407730000  -86.460768      174.08067      293.46963    
 407740000  -86.536325      155.92663      262.86509    
 407750000  -77.229548      179.37313      302.3918     
 407760000  -86.237023      190.87358      321.77955    
 407770000  -88.342641      179.39762      302.43308    
 407780000  -76.611712      160.90653      271.26033    
 407790000  -85.076378      171.87436      289.75018    
 407800000  -83.102988      176.96749      298.33631    
 407810000  -60.528704      176.45143      297.46632    
 407820000  -93.359452      171.678        289.41916    
 407830000  -68.585622      164.72467      277.69706    
 407840000  -74.854846      180.98785      305.11393    
 407850000  -88.366338      185.01232      311.89848    
 407860000  -82.549714      189.58649      319.60974    
 407870000  -71.514247      164.81535      277.84993    
 407880000  -71.029326      160.48318      270.54664    
 407890000  -66.919762      185.9735       313.51887    
 407900000  -80.365782      176.68827      297.8656     
 407910000  -88.368936      155.31789      261.83886    
 407920000  -94.116067      171.09546      288.4371     
 407930000  -96.34755       172.60326      290.97897    
 407940000  -80.883351      174.14904      293.5849     
 407950000  -103.19973      169.96242      286.52699    
 407960000  -87.288039      172.37054      290.58666    
 407970000  -90.949159      181.65302      306.2353     
 407980000  -92.657382      186.41731      314.26706    
 407990000  -80.791317      183.23086      308.89526    
 408000000  -101.85011      192.09152      323.83279    
Loop time of 713.775 on 1 procs for 4000000 steps with 200 atoms

Performance: 4841.863 ns/day, 0.005 hours/ns, 5604.008 timesteps/s, 1.121 Matom-step/s
99.3% CPU use with 1 MPI tasks x 1 OpenMP threads

MPI task timing breakdown:
Section |  min time  |  avg time  |  max time  |%varavg| %total
---------------------------------------------------------------
Pair    | 621.08     | 621.08     | 621.08     |   0.0 | 87.01
Bond    | 41.188     | 41.188     | 41.188     |   0.0 |  5.77
Neigh   | 17.547     | 17.547     | 17.547     |   0.0 |  2.46
Comm    | 15.224     | 15.224     | 15.224     |   0.0 |  2.13
Output  | 0.11791    | 0.11791    | 0.11791    |   0.0 |  0.02
Modify  | 16.985     | 16.985     | 16.985     |   0.0 |  2.38
Other   |            | 1.633      |            |       |  0.23

Nlocal:            200 ave         200 max         200 min
Histogram: 1 0 0 0 0 0 0 0 0 0
Nghost:              0 ave           0 max           0 min
Histogram: 1 0 0 0 0 0 0 0 0 0
Neighs:           1895 ave        1895 max        1895 min
Histogram: 1 0 0 0 0 0 0 0 0 0

Total # of neighbors = 1895
Ave neighs/atom = 9.475
Ave special neighs/atom = 5.94
Neighbor list builds = 9291
Dangerous builds = 0
System init for write_data ...
Generated 0 of 6 mixed pair_coeff terms from geometric mixing rule
Total wall time: 12:36:13
