LAMMPS (29 Aug 2024)
  using 1 OpenMP thread(s) per MPI task
  using 1 OpenMP thread(s) per MPI task
Reading data file ...
  orthogonal box = (-500.6 -500.6 -500.6) to (500.6 500.6 500.6)
  1 by 1 by 1 MPI processor grid
  reading atoms ...
  100 atoms
  scanning bonds ...
  1 = max bonds/atom
  scanning angles ...
  1 = max angles/atom
  orthogonal box = (-500.6 -500.6 -500.6) to (500.6 500.6 500.6)
  1 by 1 by 1 MPI processor grid
  reading bonds ...
  99 bonds
  reading angles ...
  98 angles
Finding 1-2 1-3 1-4 neighbors ...
  special bond factors lj:    0        0        0       
  special bond factors coul:  0        0        0       
     2 = max # of 1-2 neighbors
     2 = max # of 1-3 neighbors
     4 = max # of 1-4 neighbors
     6 = max # of special neighbors
  special bonds CPU = 0.000 seconds
  read_data CPU = 0.008 seconds
Finding 1-2 1-3 1-4 neighbors ...
  special bond factors lj:    0        0        1       
  special bond factors coul:  0        0        0       
     2 = max # of 1-2 neighbors
     2 = max # of 1-3 neighbors
     4 = max # of 1-4 neighbors
     6 = max # of special neighbors
  special bonds CPU = 0.000 seconds

CITE-CITE-CITE-CITE-CITE-CITE-CITE-CITE-CITE-CITE-CITE-CITE-CITE

Your simulation uses code contributions which should be cited:
- Type Label Framework: https://doi.org/10.1021/acs.jpcb.3c08419
The log file lists these citations in BibTeX format.

CITE-CITE-CITE-CITE-CITE-CITE-CITE-CITE-CITE-CITE-CITE-CITE-CITE

Generated 0 of 6 mixed pair_coeff terms from geometric mixing rule
Neighbor list info ...
  update: every = 10 steps, delay = 0 steps, check = yes
  max neighbors/atom: 2000, page size: 100000
  master list distance cutoff = 33
  ghost atom cutoff = 33
  binsize = 16.5, bins = 61 61 61
  2 neighbor lists, perpetual/occasional/extra = 2 0 0
  (1) pair lj/cut, perpetual, trim from (2)
      attributes: half, newton on, cut 25
      pair build: trim
      stencil: none
      bin: none
  (2) pair base/rna, perpetual
      attributes: half, newton on
      pair build: half/bin/newton
      stencil: half/bin/3d
      bin: standard
Setting up Verlet run ...
  Unit style    : real
  Current step  : 0
  Time step     : 10
Per MPI rank memory allocation (min/avg/max) = 8.37 | 8.37 | 8.37 Mbytes
   Step         PotEng         KinEng          Temp     
         0   134.33628      0              0            
     10000   57.592402      86.222526      292.18051    
     20000   46.108308      101.19218      342.90788    
     30000   38.368379      91.01703       308.42755    
     40000   33.635043      87.084315      295.10084    
     50000   32.540159      90.751177      307.52666    
     60000   44.075362      89.687166      303.92107    
     70000   48.059679      91.138444      308.83898    
     80000   27.635015      86.858606      294.33598    
     90000   21.833363      82.399592      279.22581    
    100000   11.220082      82.825746      280.66991    
    110000   13.964478      84.510714      286.37973    
    120000   16.668811      80.477445      272.71227    
    130000   18.175321      82.975009      281.17572    
    140000   4.1808038      85.755219      290.59696    
    150000   9.486512       77.713398      263.3458     
    160000   11.097429      94.396863      319.88072    
    170000   19.039649      83.056375      281.45144    
    180000   21.677605      88.742         300.7182     
    190000   18.365808      84.687707      286.9795     
    200000   15.663479      81.463768      276.05461    
    210000  -0.5916358      87.462092      296.381      
    220000  -10.247586      93.862621      318.07035    
    230000  -13.896417      101.8914       345.27732    
    240000  -22.064943      79.862732      270.62921    
    250000  -20.867112      85.928292      291.18345    
    260000  -26.922427      96.548807      327.17297    
    270000  -28.096515      88.106789      298.56567    
    280000  -26.5445        82.634464      280.02172    
    290000  -22.587015      86.343518      292.59051    
    300000  -26.600149      88.839519      301.04866    
    310000  -40.811275      86.463472      292.997      
    320000  -61.228511      88.26737       299.10983    
    330000  -38.027852      80.603003      273.13775    
    340000  -35.760845      80.702964      273.47649    
    350000  -49.517474      75.663566      256.39958    
    360000  -59.28741       86.001014      291.42988    
    370000  -54.88545       88.803317      300.92599    
    380000  -68.207187      84.681749      286.95931    
    390000  -63.075017      91.826667      311.17115    
    400000  -60.462385      87.056436      295.00637    
    410000  -57.689968      78.508479      266.04008    
    420000  -50.773219      86.34641       292.60031    
    430000  -44.004724      91.370793      309.62634    
    440000  -41.464949      96.371767      326.57304    
    450000  -42.824534      79.261956      268.59337    
    460000  -55.645992      96.901951      328.36966    
    470000  -61.327968      96.097612      325.64401    
    480000  -44.509013      103.65747      351.26196    
    490000  -44.204513      95.205269      322.62015    
    500000  -33.533018      77.314279      261.99332    
    510000  -52.549132      110.43864      374.24116    
    520000  -42.466348      89.499348      303.28461    
    530000  -51.246994      95.764467      324.51509    
    540000  -65.48527       99.386072      336.78755    
    550000  -52.100415      85.259361      288.91665    
    560000  -53.837204      91.248602      309.21227    
    570000  -47.101154      73.19937       248.04921    
    580000  -61.884601      80.323567      272.19083    
    590000  -59.360001      92.167863      312.32735    
    600000  -50.360713      99.774663      338.10436    
    610000  -46.033813      103.1486       349.53755    
    620000  -43.662708      92.511181      313.49075    
    630000  -38.702664      94.49851       320.22517    
    640000  -36.822135      96.454686      326.85402    
    650000  -29.327753      93.085664      315.43749    
    660000  -40.596545      94.38844       319.85218    
    670000  -46.3815        94.568635      320.4628     
    680000  -59.508113      90.024736      305.06498    
    690000  -61.961643      84.617943      286.7431     
    700000  -57.829691      83.655465      283.48157    
    710000  -29.042899      84.691938      286.99384    
    720000  -33.848335      87.595856      296.83429    
    730000  -33.366817      99.839623      338.32449    
    740000  -14.196712      88.41308       299.6036     
    750000  -26.95226       86.838183      294.26678    
    760000  -19.977161      94.885149      321.53537    
    770000  -5.9181575      79.584366      269.68591    
    780000  -12.691686      95.242917      322.74773    
    790000  -9.9993871      91.737269      310.86821    
    800000  -22.095032      88.149038      298.70884    
    810000  -29.623975      84.033185      284.76154    
    820000  -39.572988      100.3855       340.17429    
    830000  -36.994748      81.998707      277.86734    
    840000  -38.765557      78.558547      266.20974    
    850000  -32.567766      82.924085      281.00315    
    860000  -48.931106      72.398099      245.33396    
    870000  -50.968583      88.787051      300.87087    
    880000  -43.919627      75.304451      255.18265    
    890000  -51.593439      91.122414      308.78466    
    900000  -49.554084      82.433972      279.34231    
    910000  -49.720905      83.564277      283.17256    
    920000  -27.429879      92.445959      313.26973    
    930000  -52.416444      99.315484      336.54835    
    940000  -58.236859      97.518154      330.45778    
    950000  -55.571197      96.707614      327.71111    
    960000  -34.881514      80.347485      272.27188    
    970000  -50.874805      106.78609      361.86383    
    980000  -21.264983      68.729436      232.90204    
    990000  -45.477249      93.023579      315.2271     
   1000000  -39.512658      85.995267      291.4104     
   1010000  -35.923431      78.316796      265.39053    
   1020000  -53.259178      89.685911      303.91681    
   1030000  -50.666643      81.075729      274.73966    
   1040000  -65.310444      90.575066      306.92988    
   1050000  -46.862928      78.577173      266.27286    
   1060000  -28.844066      81.790237      277.1609     
   1070000  -45.511968      93.168957      315.71974    
   1080000  -29.353395      82.166631      278.43638    
   1090000  -31.083558      94.879239      321.51534    
   1100000  -24.890222      75.046067      254.30707    
   1110000  -44.613916      68.257527      231.30289    
   1120000  -47.312189      84.680769      286.95599    
   1130000  -43.619875      81.025409      274.56915    
   1140000  -42.698356      81.735622      276.97583    
   1150000  -29.462692      93.454428      316.68711    
   1160000  -52.006759      103.02946      349.13383    
   1170000  -41.502474      92.853711      314.65147    
   1180000  -47.655004      90.874627      307.94499    
   1190000  -33.226929      85.614422      290.11984    
   1200000  -41.515923      91.848875      311.2464     
   1210000  -33.325863      94.038966      318.66792    
   1220000  -24.525723      85.914474      291.13662    
   1230000  -43.903738      93.403338      316.51398    
   1240000  -27.75967       80.939223      274.27709    
   1250000  -41.247105      93.313018      316.20792    
   1260000  -54.296944      85.43137       289.49954    
   1270000  -54.725706      85.735632      290.53059    
   1280000  -57.375586      82.672802      280.15163    
   1290000  -54.554797      81.000524      274.48482    
   1300000  -51.106059      98.180365      332.7018     
   1310000  -52.772061      75.734635      256.64041    
   1320000  -54.213633      92.614107      313.83953    
   1330000  -34.35676       89.383657      302.89257    
   1340000  -37.502437      88.261368      299.0895     
   1350000  -41.365832      89.403538      302.95994    
   1360000  -32.633791      82.04926       278.03865    
   1370000  -27.023558      83.189492      281.90253    
   1380000  -28.502302      89.080286      301.86454    
   1390000  -22.366873      83.050166      281.4304     
   1400000  -24.468379      91.46593       309.94873    
   1410000  -18.637694      97.76434       331.29202    
   1420000  -29.738321      90.975654      308.28734    
   1430000  -29.97746       96.048765      325.47849    
   1440000  -30.079119      87.833315      297.63896    
   1450000  -15.033945      87.048482      294.97941    
   1460000  -10.049742      102.13703      346.10966    
   1470000  -18.969282      97.468199      330.28849    
   1480000  -25.428568      103.58043      351.00089    
   1490000  -23.885101      87.962295      298.07603    
   1500000  -20.058527      92.714643      314.18021    
   1510000  -19.442722      93.857021      318.05137    
   1520000  -28.176641      90.239981      305.79438    
   1530000  -38.787738      84.1412        285.12756    
   1540000  -55.76118       84.389392      285.96861    
   1550000  -54.614598      78.591777      266.32235    
   1560000  -71.369447      76.233021      258.32928    
   1570000  -62.635124      77.872758      263.88582    
   1580000  -48.221756      92.450463      313.28499    
   1590000  -46.857798      83.52874       283.05213    
   1600000  -54.922463      74.209512      251.47226    
   1610000  -57.108392      90.836806      307.81683    
   1620000  -52.151143      97.946131      331.90805    
   1630000  -37.052379      86.015288      291.47825    
   1640000  -56.109206      84.56781       286.57321    
   1650000  -49.776109      91.989369      311.72249    
   1660000  -45.294253      89.270786      302.51009    
   1670000  -63.45571       109.16221      369.91576    
   1680000  -45.828213      83.166796      281.82562    
   1690000  -47.284659      96.316469      326.38565    
   1700000  -59.453167      93.710739      317.55567    
   1710000  -71.231784      82.622384      279.98078    
   1720000  -58.197626      80.633533      273.24121    
   1730000  -60.385697      80.60374       273.14025    
   1740000  -46.506638      79.452532      269.23917    
   1750000  -55.303599      92.761222      314.33806    
   1760000  -49.849841      79.922825      270.83284    
   1770000  -63.361346      93.308789      316.19359    
   1780000  -52.46807       83.924271      284.39246    
   1790000  -46.55587       82.119024      278.27506    
   1800000  -53.715861      101.98311      345.5881     
   1810000  -56.984922      98.389698      333.41116    
   1820000  -61.089056      107.71903      365.02526    
   1830000  -46.519816      101.13028      342.69811    
   1840000  -57.710596      93.304301      316.17838    
   1850000  -43.35629       77.64015       263.09759    
   1860000  -43.586204      89.973615      304.89175    
   1870000  -30.644453      98.734728      334.58035    
   1880000  -43.070646      101.36304      343.48687    
   1890000  -40.013315      93.91169       318.23663    
   1900000  -54.252275      86.798962      294.13387    
   1910000  -48.882082      87.885342      297.81526    
   1920000  -44.375435      78.247929      265.15716    
   1930000  -54.136598      85.969509      291.32312    
   1940000  -28.269686      94.765817      321.13099    
   1950000  -40.409514      96.949468      328.53068    
   1960000  -42.527835      98.324208      333.18923    
   1970000  -45.530814      95.641192      324.09735    
   1980000  -46.119484      88.618882      300.30099    
   1990000  -57.233113      104.66313      354.6698     
   2000000  -49.095726      84.196731      285.31574    
   2010000  -46.410768      80.234465      271.88889    
   2020000  -37.685668      81.80825       277.22195    
   2030000  -38.685615      80.369049      272.34495    
   2040000  -25.956584      92.649251      313.95862    
   2050000  -33.48375       83.466031      282.83963    
   2060000  -20.656866      90.059931      305.18425    
   2070000  -25.248749      93.479013      316.77042    
   2080000  -41.309574      103.69266      351.38118    
   2090000  -33.328034      82.389349      279.1911     
   2100000  -49.361461      90.101391      305.32474    
   2110000  -43.752198      98.998496      335.47418    
   2120000  -39.682064      94.471772      320.13456    
   2130000  -34.895794      80.450026      272.61936    
   2140000  -42.245081      92.469354      313.34901    
   2150000  -52.469386      89.539322      303.42007    
   2160000  -43.970498      90.296891      305.98723    
   2170000  -31.738629      90.572686      306.92181    
   2180000  -31.292087      91.433729      309.83961    
   2190000  -43.756697      97.030995      328.80695    
   2200000  -25.518831      77.50495       262.63944    
   2210000  -23.6302        85.143238      288.52315    
   2220000  -35.342344      81.429694      275.93914    
   2230000  -27.055467      84.489744      286.30867    
   2240000  -37.507152      89.763346      304.17922    
   2250000  -40.045884      92.29367       312.75367    
   2260000  -47.896676      84.696091      287.00791    
   2270000  -53.861831      80.495692      272.77411    
   2280000  -48.649362      81.289734      275.46486    
   2290000  -48.057027      84.178656      285.25449    
   2300000  -55.234733      90.64662       307.17235    
   2310000  -50.524289      96.516425      327.06324    
   2320000  -42.321755      90.142606      305.46441    
   2330000  -30.505181      94.120195      318.94318    
   2340000  -41.802691      89.912895      304.68599    
   2350000  -29.0888        84.122864      285.06543    
   2360000  -38.856984      81.268589      275.39321    
   2370000  -37.073369      86.957944      294.67261    
   2380000  -38.488896      83.759654      283.83463    
   2390000  -50.739166      100.30107      339.88819    
   2400000  -30.650266      93.409759      316.53574    
   2410000  -36.208416      90.732996      307.46505    
   2420000  -40.861604      83.602596      283.30241    
   2430000  -48.316918      90.906481      308.05294    
   2440000  -53.749755      89.090888      301.90047    
   2450000  -48.683179      78.367087      265.56095    
   2460000  -33.382336      93.315309      316.21568    
   2470000  -36.953811      90.104983      305.33691    
   2480000  -39.314265      88.151067      298.71572    
   2490000  -34.613303      88.63277       300.34806    
   2500000  -33.008555      91.97499       311.67377    
   2510000  -29.981556      93.960103      318.40068    
   2520000  -39.139807      98.09212       332.40276    
   2530000  -28.191929      90.159104      305.52031    
   2540000  -58.486377      94.258112      319.41054    
   2550000  -37.513666      86.635112      293.57863    
   2560000  -40.034077      82.781947      280.52149    
   2570000  -45.53985       97.736791      331.19867    
   2580000  -42.405162      91.044707      308.52134    
   2590000  -46.115772      96.760562      327.89054    
   2600000  -38.856062      84.206206      285.34785    
   2610000  -47.918303      87.832283      297.63546    
   2620000  -42.800226      83.668244      283.52487    
   2630000  -58.125102      83.18282       281.87992    
   2640000  -49.717539      81.767022      277.08224    
   2650000  -70.514704      103.59634      351.05481    
   2660000  -50.850719      98.046856      332.24938    
   2670000  -56.973486      87.110828      295.19068    
   2680000  -46.046307      79.105753      268.06405    
   2690000  -55.998224      82.14373       278.35878    
   2700000  -44.698447      81.735271      276.97464    
   2710000  -30.684409      94.775448      321.16363    
   2720000  -30.475964      102.92902      348.79346    
   2730000  -29.205907      89.626595      303.71581    
   2740000  -26.734291      86.441627      292.92297    
   2750000  -28.635526      88.413681      299.60563    
   2760000  -32.629403      91.931162      311.52525    
   2770000  -25.555619      97.793716      331.39157    
   2780000  -25.079382      86.212073      292.14509    
   2790000  -20.582353      82.899991      280.9215     
   2800000  -28.932785      91.901167      311.42361    
   2810000  -2.8180291      91.60545       310.42151    
   2820000  -10.165216      81.09395       274.80141    
   2830000  -17.213092      99.144546      335.9691     
   2840000  -20.799393      94.352458      319.73025    
   2850000  -19.327432      87.408913      296.2008     
   2860000  -38.657441      82.407121      279.25133    
   2870000  -37.004319      80.959598      274.34614    
   2880000  -31.179598      75.768979      256.75679    
   2890000  -25.535354      93.638101      317.30952    
   2900000  -14.522591      89.772402      304.2099     
   2910000  -14.430402      103.41408      350.43717    
   2920000  -25.058252      94.866963      321.47374    
   2930000  -23.547706      95.732684      324.40739    
   2940000  -18.305793      93.070825      315.3872     
   2950000  -17.824621      81.8536        277.37562    
   2960000  -26.835289      83.369889      282.51384    
   2970000  -29.309565      82.713683      280.29017    
   2980000  -30.457617      96.041439      325.45366    
   2990000  -27.100847      87.784731      297.47432    
   3000000  -9.7918088      96.032213      325.4224     
   3010000  -5.4369426      99.189627      336.12186    
   3020000  -4.0684484      89.794103      304.28344    
   3030000  -20.648307      98.251495      332.94283    
   3040000  -14.299465      75.993596      257.51794    
   3050000  -40.156682      93.435311      316.62233    
   3060000  -31.290516      71.051822      240.77186    
   3070000  -45.627266      85.125473      288.46295    
   3080000  -45.160003      83.959488      284.5118     
   3090000  -47.133531      87.859851      297.72888    
   3100000  -47.379601      83.581943      283.23242    
   3110000  -53.163383      86.305653      292.4622     
   3120000  -52.922062      87.86469       297.74528    
   3130000  -41.365253      95.632517      324.06796    
   3140000  -40.298733      85.266711      288.94156    
   3150000  -66.159473      84.116572      285.04411    
   3160000  -60.147189      104.2971       353.42946    
   3170000  -43.383404      90.636524      307.13814    
   3180000  -54.908247      84.892915      287.67489    
   3190000  -52.690932      75.422055      255.58118    
   3200000  -54.644361      79.409129      269.09209    
   3210000  -47.254365      84.909977      287.7327     
   3220000  -55.682028      104.46364      353.9938     
   3230000  -37.914827      76.629061      259.67133    
   3240000  -49.927317      87.698922      297.18354    
   3250000  -41.987106      100.17727      339.46866    
   3260000  -55.571579      96.239971      326.12642    
   3270000  -42.240411      91.16909       308.94283    
   3280000  -21.048846      90.156785      305.51245    
   3290000  -23.310583      97.133593      329.15462    
   3300000  -29.949071      88.562676      300.11053    
   3310000  -41.766745      87.970476      298.10375    
   3320000  -43.507627      81.493662      276.15591    
   3330000  -45.177572      87.439376      296.30403    
   3340000  -35.911622      84.848258      287.52356    
   3350000  -22.491662      83.516267      283.00987    
   3360000  -46.823029      97.004815      328.71823    
   3370000  -43.432953      95.500944      323.6221     
   3380000  -23.228183      77.881918      263.91686    
   3390000  -39.416243      100.62684      340.99212    
   3400000  -47.656609      88.336687      299.34473    
   3410000  -50.492209      88.10187       298.54901    
   3420000  -38.106338      90.028063      305.07626    
   3430000  -43.882222      82.160215      278.41464    
   3440000  -52.141911      70.690443      239.54726    
   3450000  -60.997356      89.758822      304.16389    
   3460000  -65.642641      76.701259      259.91599    
   3470000  -71.765896      88.652662      300.41546    
   3480000  -64.809073      88.697714      300.56813    
   3490000  -69.050792      93.136441      315.60956    
   3500000  -52.203674      93.546306      316.99846    
   3510000  -35.84714       79.340957      268.86108    
   3520000  -42.747819      74.021234      250.83424    
   3530000  -49.014059      85.440532      289.53059    
   3540000  -48.139923      91.91518       311.47109    
   3550000  -40.933706      100.8814       341.85473    
   3560000  -41.701391      83.591391      283.26444    
   3570000  -64.08644       93.011951      315.1877     
   3580000  -52.234625      85.847831      290.91079    
   3590000  -66.363986      84.955335      287.88641    
   3600000  -55.893448      94.491598      320.20175    
   3610000  -41.496324      81.792639      277.16905    
   3620000  -42.009845      83.101532      281.60446    
   3630000  -48.322833      99.268847      336.39031    
   3640000  -57.392334      102.92055      348.76477    
   3650000  -66.315971      88.325782      299.30777    
   3660000  -61.263099      88.857847      301.11077    
   3670000  -64.941579      85.914939      291.1382     
   3680000  -65.397188      94.514636      320.27982    
   3690000  -52.961609      80.128584      271.53009    
   3700000  -55.00201       73.50842       249.09648    
   3710000  -39.542581      84.059294      284.85001    
   3720000  -28.610826      96.221337      326.06328    
   3730000  -29.968146      91.368919      309.61999    
   3740000  -22.418827      80.617438      273.18666    
   3750000  -55.216986      84.665606      286.90461    
   3760000  -52.220945      86.645077      293.6124     
   3770000  -30.768809      82.662828      280.11784    
   3780000  -45.58744       91.696152      310.72888    
   3790000  -40.562908      95.051074      322.09763    
   3800000  -33.529569      85.177762      288.64014    
   3810000  -18.25774       97.088275      329.00105    
   3820000  -10.649079      87.830552      297.6296     
   3830000  -30.57326       99.072706      335.72565    
   3840000  -14.694106      74.771391      253.37628    
   3850000  -29.57298       101.44653      343.76977    
   3860000  -7.6377208      82.811108      280.62031    
   3870000  -26.400776      87.355547      296.01996    
   3880000  -41.576167      96.268496      326.22309    
   3890000  -37.865535      92.555427      313.64068    
   3900000  -58.523456      80.287634      272.06907    
   3910000  -36.243507      88.289843      299.18599    
   3920000  -18.513694      94.914536      321.63495    
   3930000  -22.700675      82.999896      281.26005    
   3940000  -26.76657       97.635854      330.85662    
   3950000  -39.992775      100.26956      339.7814     
   3960000  -35.339524      81.109233      274.8532     
   3970000  -44.80316       88.066219      298.4282     
   3980000  -54.779535      90.365768      306.22063    
   3990000  -65.229079      76.522021      259.30861    
   4000000  -50.407814      85.262956      288.92884    
Loop time of 283.39 on 1 procs for 4000000 steps with 100 atoms

Performance: 12195.200 ns/day, 0.002 hours/ns, 14114.815 timesteps/s, 1.411 Matom-step/s
99.3% CPU use with 1 MPI tasks x 1 OpenMP threads

MPI task timing breakdown:
Section |  min time  |  avg time  |  max time  |%varavg| %total
---------------------------------------------------------------
Pair    | 252.63     | 252.63     | 252.63     |   0.0 | 89.14
Bond    | 18.885     | 18.885     | 18.885     |   0.0 |  6.66
Neigh   | 1.4967     | 1.4967     | 1.4967     |   0.0 |  0.53
Comm    | 1.5518     | 1.5518     | 1.5518     |   0.0 |  0.55
Output  | 0.13251    | 0.13251    | 0.13251    |   0.0 |  0.05
Modify  | 8.1095     | 8.1095     | 8.1095     |   0.0 |  2.86
Other   |            | 0.5896     |            |       |  0.21

Nlocal:            100 ave         100 max         100 min
Histogram: 1 0 0 0 0 0 0 0 0 0
Nghost:              0 ave           0 max           0 min
Histogram: 1 0 0 0 0 0 0 0 0 0
Neighs:            836 ave         836 max         836 min
Histogram: 1 0 0 0 0 0 0 0 0 0

Total # of neighbors = 836
Ave neighs/atom = 8.36
Ave special neighs/atom = 5.88
Neighbor list builds = 8573
Dangerous builds = 0
Generated 0 of 6 mixed pair_coeff terms from geometric mixing rule
Setting up Verlet run ...
  Unit style    : real
  Current step  : 4000000
  Time step     : 10
Per MPI rank memory allocation (min/avg/max) = 9.632 | 9.632 | 9.632 Mbytes
   Step         PotEng         KinEng          Temp     
   4000000  -50.407814      85.262956      288.92884    
   4010000  -55.15029       88.117303      298.6013     
   4020000  -61.084066      83.26176       282.14742    
   4030000  -55.743828      81.834797      277.3119     
   4040000  -55.981515      87.559939      296.71258    
   4050000  -59.978211      93.242537      315.96908    
   4060000  -31.909054      97.96352       331.96698    
   4070000  -27.530086      81.488476      276.13833    
   4080000  -17.997638      75.318584      255.23055    
   4090000  -35.198662      94.135124      318.99377    
   4100000  -35.862905      81.336384      275.62294    
   4110000  -48.202947      93.145489      315.64021    
   4120000  -53.727905      91.629606      310.50337    
   4130000  -55.023401      98.939949      335.27578    
   4140000  -29.800951      80.536142      272.91118    
   4150000  -54.238739      108.058        366.17394    
   4160000  -34.320098      95.717451      324.35577    
   4170000  -42.848027      88.655952      300.42661    
   4180000  -60.713102      88.573186      300.14614    
   4190000  -60.128182      93.729371      317.6188     
   4200000  -49.324442      94.550748      320.40219    
   4210000  -50.020208      95.419881      323.3474     
   4220000  -73.029337      92.216118      312.49088    
   4230000  -62.838331      83.534015      283.07001    
   4240000  -61.116949      91.987729      311.71694    
   4250000  -63.407069      96.355429      326.51767    
   4260000  -55.170238      95.400412      323.28143    
   4270000  -37.351442      88.966049      301.47743    
   4280000  -27.292834      99.078988      335.74694    
   4290000  -42.022604      93.155269      315.67336    
   4300000  -41.104907      85.624785      290.15496    
   4310000  -39.580904      94.30476       319.56861    
   4320000  -39.579159      99.440241      336.97111    
   4330000  -39.183083      92.533272      313.56561    
   4340000  -35.122258      90.634468      307.13117    
   4350000  -37.686908      97.55751       330.59114    
   4360000  -42.266951      87.66395       297.06503    
   4370000  -58.168626      108.46953      367.56847    
   4380000  -51.998884      94.75534       321.09548    
   4390000  -53.341635      87.302861      295.84142    
   4400000  -54.98383       81.724076      276.93671    
   4410000  -43.712605      103.48402      350.6742     
   4420000  -23.159486      88.474151      299.81055    
   4430000  -24.076807      82.49057       279.53411    
   4440000  -20.896155      77.32457       262.02819    
   4450000  -16.497063      86.508608      293.14995    
   4460000  -42.679377      102.98427      348.9807     
   4470000  -42.796565      97.124753      329.12467    
   4480000  -23.242804      87.881051      297.80072    
   4490000  -25.286351      97.323119      329.79686    
   4500000  -37.217034      98.5211        333.85644    
   4510000  -28.464696      85.337191      289.1804     
   4520000  -42.995224      88.80603       300.93518    
   4530000  -36.428043      89.866555      304.52896    
   4540000  -37.929687      87.875098      297.78055    
   4550000  -33.411134      88.731071      300.68117    
   4560000  -16.09601       95.041135      322.06395    
   4570000  -29.321243      93.580318      317.11371    
   4580000  -38.961215      100.87816      341.84376    
   4590000  -32.283825      88.46611       299.7833     
   4600000  -21.908709      84.707419      287.0463     
   4610000  -32.596656      96.562894      327.2207     
   4620000  -30.969032      84.868717      287.59289    
   4630000  -42.796415      95.267944      322.83253    
   4640000  -47.274999      84.809391      287.39185    
   4650000  -36.655808      92.732069      314.23927    
   4660000  -33.314784      77.969873      264.21492    
   4670000  -36.114655      82.979731      281.19172    
   4680000  -32.661831      85.521476      289.80488    
   4690000  -33.307388      84.908553      287.72788    
   4700000  -44.101034      86.192831      292.07988    
   4710000  -30.450575      105.60718      357.86889    
   4720000  -29.106139      100.73222      341.3492     
   4730000  -18.406326      95.817401      324.69447    
   4740000  -20.001618      105.21707      356.54693    
   4750000  -36.054133      112.41276      380.93083    
   4760000  -4.9545264      78.21598       265.04889    
   4770000  -23.78076       102.20969      346.35588    
   4780000  -9.6924955      92.48026       313.38597    
   4790000  -18.411427      102.99807      349.02747    
   4800000  -13.463623      100.27904      339.81354    
   4810000  -18.833069      98.938271      335.2701     
   4820000  -18.469351      118.3678       401.11056    
   4830000  -8.4994861      88.883596      301.19803    
   4840000  -8.4772706      101.46422      343.82972    
   4850000  -2.7362037      102.06081      345.85137    
   4860000  -9.195306       95.134157      322.37917    
   4870000  -18.002878      102.68224      347.95722    
   4880000  -22.27494       105.46042      357.37157    
   4890000  -29.998279      92.731684      314.23796    
   4900000  -24.958117      88.20401       298.89512    
   4910000  -25.910597      83.523343      283.03385    
   4920000  -32.904206      99.514005      337.22107    
   4930000  -34.306644      101.14128      342.7354     
   4940000  -30.379482      96.670387      327.58496    
   4950000  -36.368658      103.97081      352.32377    
   4960000  -15.69807       83.913756      284.35683    
   4970000  -17.829655      88.490403      299.86562    
   4980000  -27.939449      101.17565      342.85184    
   4990000  -47.543866      105.60521      357.8622     
   5000000  -44.028547      91.468206      309.95644    
   5010000  -46.095456      97.626172      330.82381    
   5020000  -34.930162      96.908338      328.3913     
   5030000  -24.566909      103.77796      351.67025    
   5040000  -35.470166      111.83183      378.96223    
   5050000  -34.696709      107.61171      364.66159    
   5060000  -40.868512      105.90871      358.89067    
   5070000  -35.75908       105.04791      355.97369    
   5080000  -37.546463      101.02186      342.33073    
   5090000  -32.613162      105.18115      356.42522    
   5100000  -39.525035      104.50398      354.13051    
   5110000  -23.935079      93.968337      318.42858    
   5120000  -26.522982      97.787835      331.37164    
   5130000  -23.818357      87.644745      296.99996    
   5140000  -26.616632      95.000735      321.92705    
   5150000  -11.415679      98.295239      333.09107    
   5160000  -19.112287      87.729746      297.288      
   5170000  -24.703233      86.932196      294.58536    
   5180000  -33.080775      92.678894      314.05907    
   5190000  -22.28302       86.141729      291.90672    
   5200000  -30.357433      105.14306      356.29615    
   5210000  -18.701999      96.246208      326.14756    
   5220000  -17.67031       92.443356      313.26091    
   5230000  -23.651934      108.17491      366.57011    
   5240000   10.741576      85.657811      290.26687    
   5250000  -25.105684      119.16191      403.80153    
   5260000  -35.16292       99.71936       337.91696    
   5270000   1.0868723      95.147609      322.42476    
   5280000  -29.254344      102.3588       346.86119    
   5290000  -19.528674      105.72446      358.26632    
   5300000  -21.320362      95.187718      322.56067    
   5310000  -8.3026064      83.814341      284.01995    
   5320000  -29.952726      111.68646      378.46963    
   5330000  -0.4109647      105.65652      358.03611    
   5340000  -1.7176232      103.7318       351.51383    
   5350000  -20.97594       107.54153      364.42379    
   5360000  -15.324433      91.194175      309.02784    
   5370000  -11.148849      98.253126      332.94836    
   5380000  -19.142076      99.49434       337.15444    
   5390000   8.0723465      91.994243      311.73901    
   5400000  -13.497507      105.17502      356.40443    
   5410000  -11.516471      95.796184      324.62257    
   5420000   8.2906536      107.35273      363.78399    
   5430000   8.1200677      93.650161      317.35039    
   5440000  -1.3876185      104.90785      355.4991     
   5450000   1.649408       107.52357      364.36293    
   5460000  -9.2614907      98.317174      333.1654     
   5470000  -11.184652      91.747931      310.90434    
   5480000  -16.592517      106.02008      359.26808    
   5490000  -8.1189705      91.688763      310.70384    
   5500000  -10.947435      103.39151      350.36069    
   5510000  -25.577401      111.53416      377.95355    
   5520000  -40.214811      103.88518      352.03358    
   5530000  -48.61342       112.08385      379.81627    
   5540000  -27.307058      88.828084      301.00991    
   5550000  -27.455287      88.839953      301.05013    
   5560000  -22.455556      91.609423      310.43498    
   5570000  -17.733793      82.477143      279.48861    
   5580000  -26.755067      108.55384      367.85417    
   5590000  -23.338821      102.53831      347.46948    
   5600000  -15.344811      100.09925      339.2043     
   5610000  -18.492489      116.90708      396.16064    
   5620000  -17.905888      109.53345      371.17378    
   5630000  -22.305787      99.23917       336.28975    
   5640000  -26.369411      108.5817       367.9486     
   5650000  -30.761009      88.270985      299.12208    
   5660000   5.489091       86.93427       294.59238    
   5670000  -5.7046177      98.178445      332.69529    
   5680000  -12.97342       89.875368      304.55882    
   5690000  -15.595942      92.988043      315.10668    
   5700000   0.010570734    99.364285      336.71372    
   5710000  -5.7043382      113.47128      384.5178     
   5720000   1.9534732      104.65214      354.63259    
   5730000  -11.085894      94.525732      320.31742    
   5740000  -1.8015885      98.190079      332.73471    
   5750000  -7.7024523      108.6462       368.16715    
   5760000  -5.9558245      104.30652      353.46139    
   5770000   5.955285       96.505608      327.02658    
   5780000  -11.287046      98.318823      333.17099    
   5790000   1.3560066      91.775972      310.99936    
   5800000  -18.765923      111.66757      378.4056     
   5810000  -7.1613776      89.094385      301.91232    
   5820000  -13.044205      91.208977      309.078      
   5830000  -8.9782788      101.77727      344.89054    
   5840000  -14.353989      100.81618      341.63373    
   5850000  -5.5271397      110.92026      375.87321    
   5860000   6.870844       125.21071      424.29899    
   5870000   12.865277      108.77445      368.60177    
   5880000  -5.1906464      97.92371       331.83207    
   5890000   4.6396211      97.531022      330.50138    
   5900000  -9.6487682      109.99175      372.72678    
   5910000  -13.362491      116.05691      393.27967    
   5920000  -17.573406      96.949311      328.53015    
   5930000  -22.288084      96.848259      328.18772    
   5940000  -17.766927      106.71921      361.63721    
   5950000   5.7749029      96.436141      326.79118    
   5960000   1.8853956      107.55767      364.47846    
   5970000   4.8280602      96.995024      328.68505    
   5980000   5.2947176      97.403313      330.06861    
   5990000   3.913447       105.66956      358.08028    
   6000000  -9.6838         114.58537      388.29312    
   6010000   12.364111      104.57992      354.38785    
   6020000   8.9951546      101.52005      344.01892    
   6030000   20.826118      89.057929      301.78878    
   6040000  -17.23542       128.69503      436.10622    
   6050000   0.28017354     101.68519      344.57852    
   6060000   11.217091      98.184218      332.71485    
   6070000   14.24246       96.747848      327.84746    
   6080000  -7.3518929      112.34235      380.69224    
   6090000   3.7361156      104.63856      354.58656    
   6100000   15.132727      105.69657      358.1718     
   6110000  -1.0499293      105.13045      356.25341    
   6120000  -10.237474      111.67686      378.43708    
   6130000  -0.45582708     98.951173      335.31382    
   6140000   9.4063694      101.82933      345.06696    
   6150000   25.851105      101.58173      344.22792    
   6160000   37.433985      100.89841      341.91238    
   6170000   9.7195314      105.9114       358.8998     
   6180000  -7.1072802      113.16652      383.48509    
   6190000   14.053412      111.18306      376.76377    
   6200000   18.869508      101.11533      342.64744    
   6210000  -1.053518       98.688325      334.42311    
   6220000  -6.1460218      102.39226      346.97457    
   6230000  -18.278114      101.69505      344.61193    
   6240000  -20.821591      84.632625      286.79285    
   6250000  -10.763538      93.127237      315.57836    
   6260000  -18.385482      92.982452      315.08774    
   6270000  -1.2606076      97.929317      331.85107    
   6280000   0.32385258     118.56813      401.7894     
   6290000   22.735643      107.37883      363.87245    
   6300000   22.757441      107.9235       365.71817    
   6310000   13.96878       100.869        341.81273    
   6320000   4.2395533      95.497287      323.6097     
   6330000   0.21110695     104.7835       355.0777     
   6340000   1.0729857      120.80054      409.35431    
   6350000  -0.52551099     109.64178      371.54087    
   6360000  -0.95425511     100.69919      341.23729    
   6370000  -11.04059       107.2353       363.38606    
   6380000   0.91679951     99.289053      336.45879    
   6390000   10.729107      95.534607      323.73617    
   6400000   18.967082      118.29391      400.86014    
   6410000   35.882875      99.95543       338.71692    
   6420000   19.882362      98.211773      332.80823    
   6430000   16.96856       109.56857      371.29279    
   6440000   22.088745      113.0959       383.24578    
   6450000   5.3629999      89.211744      302.31002    
   6460000  -0.085725222    97.615008      330.78598    
   6470000  -3.0288115      113.8819       385.90928    
   6480000   27.36353       92.665812      314.01474    
   6490000   12.117787      103.89617      352.07082    
   6500000   20.654445      97.806063      331.43341    
   6510000   24.009906      120.46391      408.2136     
   6520000   32.205197      98.297113      333.09742    
   6530000   7.5772456      124.82308      422.98544    
   6540000   27.671876      107.86435      365.51771    
   6550000   25.520258      107.21763      363.32618    
   6560000   17.699805      103.76051      351.61113    
   6570000   21.929182      108.72062      368.41936    
   6580000   27.563278      100.28309      339.82725    
   6590000  -1.4522988      102.45154      347.17545    
   6600000   20.445538      99.674155      337.76377    
   6610000   26.389001      115.27479      390.62934    
   6620000   18.123455      122.84855      416.29438    
   6630000   19.575085      117.62052      398.57824    
   6640000   19.6677        111.10785      376.50891    
   6650000   13.790701      104.50463      354.13272    
   6660000  -5.2791202      99.285379      336.44633    
   6670000   17.918874      108.84253      368.83247    
   6680000   14.628773      119.27721      404.19226    
   6690000   44.397509      117.211        397.19054    
   6700000   31.60896       101.13672      342.71993    
   6710000   21.995829      114.10452      386.66366    
   6720000   20.420326      104.58628      354.4094     
   6730000   28.706379      123.5378       418.63003    
   6740000   45.547102      116.66402      395.33697    
   6750000   32.442117      117.79675      399.17545    
   6760000   33.17823       108.71113      368.38718    
   6770000   42.8443        97.968371      331.98342    
   6780000   33.491821      111.54975      378.00636    
   6790000   25.763002      113.19931      383.59617    
   6800000   13.616496      121.56631      411.94927    
   6810000   14.021446      112.1869       380.16545    
   6820000   7.4663886      98.143075      332.57543    
   6830000  -5.7274565      116.03065      393.19069    
   6840000   6.4870456      109.92537      372.50184    
   6850000  -6.3683723      99.500695      337.17597    
   6860000   4.4944739      99.425737      336.92196    
   6870000  -2.9190298      118.42138      401.29212    
   6880000   23.083482      109.53599      371.18238    
   6890000   34.592389      96.316327      326.38517    
   6900000   10.400536      115.81057      392.44492    
   6910000   22.595441      115.71752      392.12958    
   6920000   21.837043      124.28937      421.17686    
   6930000   26.783255      117.03059      396.57918    
   6940000   20.263926      102.57504      347.59393    
   6950000   13.795939      134.03558      454.20365    
   6960000   33.766164      107.78434      365.24658    
   6970000   23.243647      115.48843      391.35329    
   6980000   32.378449      112.36567      380.77125    
   6990000   15.549088      125.10395      423.93721    
   7000000   27.904591      117.26406      397.37032    
   7010000   33.066813      117.97377      399.77532    
   7020000   29.994276      102.08127      345.92071    
   7030000   39.764846      120.8353       409.4721     
   7040000   11.407036      113.36499      384.15763    
   7050000  -6.842802       122.61928      415.51743    
   7060000   20.990421      111.45131      377.67276    
   7070000   30.552344      107.23218      363.3755     
   7080000   35.392448      114.41236      387.70683    
   7090000   1.6531613      128.88093      436.73616    
   7100000   15.511904      117.12649      396.90414    
   7110000   18.392113      110.54747      374.60995    
   7120000   22.560351      113.28111      383.87337    
   7130000   18.921363      108.55762      367.867      
   7140000   27.112364      109.70307      371.74855    
   7150000   12.337007      113.57499      384.86924    
   7160000   26.862336      101.17112      342.83649    
   7170000   21.932635      118.02846      399.96063    
   7180000   34.40301       117.68542      398.79818    
   7190000   28.39577       108.11943      366.38212    
   7200000   29.064046      124.82733      422.99984    
   7210000   37.708623      121.07779      410.29383    
   7220000   14.62939       108.19484      366.63763    
   7230000   31.535248      105.14284      356.29541    
   7240000   15.697953      105.51348      357.55137    
   7250000   4.7102191      119.59517      405.26971    
   7260000   32.768832      99.319911      336.56335    
   7270000   13.515066      94.712938      320.9518     
   7280000   15.762055      113.04916      383.08736    
   7290000   7.1154022      111.94387      379.34189    
   7300000   22.034682      103.20567      349.73096    
   7310000   38.323535      102.40452      347.01611    
   7320000   19.132759      110.18292      373.37461    
   7330000   47.964805      87.847484      297.68697    
   7340000   45.733453      113.53044      384.71828    
   7350000   48.509135      108.35094      367.16661    
   7360000   30.421115      121.8309       412.8459     
   7370000   21.046374      119.70638      405.64656    
   7380000   25.853992      117.51881      398.23358    
   7390000   29.435564      124.79942      422.90523    
   7400000   40.301863      127.62131      432.46772    
   7410000   43.89991       130.02013      440.59656    
   7420000   46.535487      113.09619      383.24673    
   7430000   39.796363      115.58658      391.68587    
   7440000   29.79341       131.35579      445.12268    
   7450000   32.869475      127.54917      432.22328    
   7460000   20.442341      111.69935      378.51331    
   7470000   30.278248      109.29548      370.36737    
   7480000   31.920466      127.40739      431.74283    
   7490000   26.401292      127.68796      432.69359    
   7500000   11.896661      117.73599      398.96956    
   7510000   8.1966464      128.67715      436.04564    
   7520000   29.992887      113.42238      384.35211    
   7530000   22.511417      122.99127      416.778      
   7540000   42.657894      108.85702      368.88155    
   7550000   44.238563      110.97437      376.05657    
   7560000   49.205513      128.34059      434.90513    
   7570000   50.994497      130.37636      441.80369    
   7580000   57.40946       112.21564      380.26286    
   7590000   60.98937       111.71656      378.57164    
   7600000   55.78228       124.30338      421.22433    
   7610000   64.960454      119.57929      405.21589    
   7620000   53.126023      112.09546      379.85561    
   7630000   45.34365       120.48928      408.29955    
   7640000   30.511146      118.80156      402.58041    
   7650000   32.125064      120.58391      408.62022    
   7660000   36.899449      123.95901      420.05735    
   7670000   72.892889      105.8946       358.84287    
   7680000   72.0557        125.48085      425.21438    
   7690000   61.645134      106.15925      359.73967    
   7700000   51.379498      130.7038       442.91331    
   7710000   63.583114      119.59796      405.27915    
   7720000   44.855643      110.1565       373.2851     
   7730000   44.209841      120.82196      409.42689    
   7740000   40.682048      105.9417       359.00246    
   7750000   57.086934      109.05821      369.56332    
   7760000   25.264271      131.96693      447.19362    
   7770000   56.137201      126.43686      428.45401    
   7780000   42.007706      111.64126      378.31647    
   7790000   37.450037      141.3848       479.10779    
   7800000   65.055487      115.82263      392.48578    
   7810000   69.346265      131.69621      446.27626    
   7820000   54.362871      124.40951      421.58398    
   7830000   60.11158       111.5109       377.87472    
   7840000   55.251902      113.51283      384.6586     
   7850000   61.602086      124.99868      423.58047    
   7860000   77.423839      97.382951      329.99962    
   7870000   75.869689      103.23232      349.82126    
   7880000   74.988661      123.3953       418.14712    
   7890000   93.32583       110.81063      375.50172    
   7900000   79.022763      116.78615      395.75085    
   7910000   76.82556       111.17839      376.74795    
   7920000   78.719503      122.04663      413.57692    
   7930000   78.6943        118.84279      402.72012    
   7940000   67.368363      125.85503      426.48237    
   7950000   75.300172      112.80425      382.25745    
   7960000   73.117084      114.95469      389.54461    
   7970000   64.238064      109.79938      372.07492    
   7980000   70.964131      122.82884      416.22757    
   7990000   59.170859      123.59605      418.82742    
   8000000   53.597401      111.43941      377.63245    
   8010000   80.330924      109.42779      370.8157     
   8020000   54.895388      138.24442      468.46604    
   8030000   69.189298      139.40203      472.38882    
   8040000   62.450879      124.92967      423.34663    
   8050000   61.656914      124.71869      422.63168    
   8060000   57.552344      132.14566      447.79928    
   8070000   74.314803      114.82588      389.1081     
   8080000   66.086099      115.56013      391.59624    
   8090000   72.641179      117.2544       397.3376     
   8100000   57.360414      128.71138      436.16164    
   8110000   54.321592      113.86394      385.8484     
   8120000   76.149597      123.52413      418.5837     
   8130000   69.669659      118.57308      401.80616    
   8140000   51.874303      125.97592      426.89202    
   8150000   59.433957      121.83206      412.84982    
   8160000   63.385258      128.90657      436.82307    
   8170000   68.291387      114.48764      387.96193    
   8180000   49.449022      109.84108      372.21622    
   8190000   44.930186      130.1282       440.96277    
   8200000   60.193438      110.69132      375.0974     
   8210000   72.983095      107.87077      365.53947    
   8220000   46.798611      138.5481       469.49511    
   8230000   47.015383      122.71637      415.84644    
   8240000   64.177929      116.76598      395.6825     
   8250000   78.573257      122.2716       414.33926    
   8260000   77.840384      112.49685      381.21576    
   8270000   85.212268      111.23533      376.9409     
   8280000   77.430457      114.76065      388.88706    
   8290000   65.507098      128.44102      435.24544    
   8300000   80.511716      126.02307      427.05179    
   8310000   66.41373       117.07353      396.72469    
   8320000   61.312688      107.45719      364.13797    
   8330000   60.905417      106.66561      361.45557    
   8340000   83.957541      110.12639      373.18304    
   8350000   70.123151      105.05292      355.99069    
   8360000   57.289762      128.30529      434.78552    
   8370000   71.348196      126.59534      428.99104    
   8380000   64.389213      104.35605      353.62921    
   8390000   50.164651      138.99092      470.99568    
   8400000   66.595528      113.21303      383.64267    
   8410000   58.280232      127.49573      432.04218    
   8420000   63.277107      113.09369      383.23827    
   8430000   81.933372      124.10779      420.56153    
   8440000   67.230992      143.12574      485.00725    
   8450000   82.118192      139.83607      473.85965    
   8460000   72.911223      122.47531      415.02957    
   8470000   65.677872      119.52832      405.04319    
   8480000   78.325657      118.05651      400.05567    
   8490000   77.873851      132.23362      448.09738    
   8500000   67.27934       128.68968      436.08808    
   8510000   92.749478      125.45279      425.11931    
   8520000   91.930498      133.93501      453.86284    
   8530000   61.503122      133.11461      451.08277    
   8540000   49.737902      143.61553      486.667      
   8550000   56.570752      130.23409      441.32159    
   8560000   80.469758      143.44013      486.07265    
   8570000   71.703508      146.86667      497.6841     
   8580000   59.539269      130.77699      443.16131    
   8590000   70.001829      127.46526      431.93892    
   8600000   63.439186      127.87133      433.31498    
   8610000   62.795974      139.60804      473.0869     
   8620000   57.976777      136.88767      463.86843    
   8630000   66.00217       115.50618      391.41342    
   8640000   80.64511       113.42486      384.36052    
   8650000   62.45546       119.21021      403.96522    
   8660000   62.359636      126.99455      430.34383    
   8670000   46.036343      135.39262      458.8022     
   8680000   52.7964        124.97621      423.50435    
   8690000   44.390246      126.99236      430.33642    
   8700000   65.747769      130.45068      442.05554    
   8710000   62.221466      137.28436      465.21272    
   8720000   69.167824      127.65271      432.57414    
   8730000   70.705454      126.03005      427.07545    
   8740000   79.079592      110.69717      375.11722    
   8750000   83.994725      119.8083       405.99194    
   8760000   74.924783      111.74794      378.67795    
   8770000   66.53004       113.72493      385.37735    
   8780000   67.935499      134.01316      454.12765    
   8790000   65.699202      133.52326      452.46753    
   8800000   69.283356      124.88822      423.20615    
   8810000   78.128513      136.18217      461.47775    
   8820000   96.944193      160.04072      542.32671    
   8830000   82.895918      140.89128      477.43541    
   8840000   86.340175      119.58266      405.22731    
   8850000   56.346141      124.8317       423.01462    
   8860000   82.414837      103.11553      349.42548    
   8870000   79.483596      117.11817      396.87594    
   8880000   77.706238      144.96823      491.25089    
   8890000   81.187388      126.57575      428.92464    
   8900000   78.177616      117.77971      399.11771    
   8910000   75.244298      122.59033      415.41933    
   8920000   78.363295      128.30426      434.78204    
   8930000   94.572066      113.51646      384.67092    
   8940000   57.328991      126.81375      429.73117    
   8950000   78.177937      100.63205      341.00977    
   8960000   47.621081      124.96269      423.45853    
   8970000   71.469471      125.09079      423.89262    
   8980000   64.549473      113.17262      383.50573    
   8990000   62.117166      113.70954      385.32521    
   9000000   71.632342      121.14565      410.52377    
   9010000   60.992873      106.2168       359.9347     
   9020000   64.379661      120.36998      407.89529    
   9030000   76.08412       129.26754      438.04627    
   9040000   70.086239      114.93235      389.46892    
   9050000   72.894638      109.32331      370.46167    
   9060000   77.725541      135.82113      460.25428    
   9070000   46.325093      135.13478      457.92845    
   9080000   60.383662      119.17627      403.85019    
   9090000   50.667364      113.2365       383.7222     
   9100000   50.829296      115.55334      391.57325    
   9110000   53.283161      121.92172      413.15365    
   9120000   71.302026      128.44395      435.25539    
   9130000   46.493119      122.56373      415.32921    
   9140000   78.81502       123.61313      418.8853     
   9150000   84.013068      113.47752      384.53896    
   9160000   85.691777      101.25579      343.12342    
   9170000   73.19178       135.95713      460.71513    
   9180000   57.593046      127.95261      433.59039    
   9190000   59.380302      127.44739      431.87836    
   9200000   77.005937      121.86743      412.96966    
   9210000   68.599043      155.45143      526.77508    
   9220000   70.990212      135.00319      457.48255    
   9230000   66.867895      130.30369      441.55744    
   9240000   68.615896      116.18412      393.71076    
   9250000   65.68927       126.11205      427.35334    
   9260000   61.179854      133.96813      453.97505    
   9270000   97.625119      123.45603      418.35293    
   9280000   76.382584      144.98664      491.31325    
   9290000   83.562402      120.94125      409.83113    
   9300000   84.287405      133.7415       453.20709    
   9310000   82.189822      137.80362      466.97232    
   9320000   99.191407      136.66351      463.10883    
   9330000   50.670992      135.81327      460.22764    
   9340000   50.831621      127.70126      432.73866    
   9350000   57.893232      137.12469      464.67164    
   9360000   60.80105       130.23602      441.32814    
   9370000   58.739117      144.6637       490.21893    
   9380000   63.989917      125.59771      425.61039    
   9390000   65.757893      145.64653      493.54941    
   9400000   73.150086      131.49048      445.57909    
   9410000   62.249712      133.08538      450.9837     
   9420000   85.863737      134.16078      454.62791    
   9430000   71.249522      128.82943      436.56166    
   9440000   79.333421      126.49455      428.64949    
   9450000   74.421926      117.9372       399.65138    
   9460000   78.806513      119.18982      403.8961     
   9470000   80.068159      124.52263      421.96731    
   9480000   71.350927      109.47543      370.97715    
   9490000   85.90343       112.22793      380.30449    
   9500000   75.926767      126.3545       428.1749     
   9510000   81.837873      125.5881       425.57782    
   9520000   76.827674      141.53221      479.60732    
   9530000   76.616978      129.55307      439.01385    
   9540000   81.353877      113.04678      383.07932    
   9550000   76.904491      147.22348      498.89318    
   9560000   101.95159      125.54817      425.44251    
   9570000   77.408567      141.77462      480.42877    
   9580000   90.76163       137.96255      467.51087    
   9590000   89.779869      112.41422      380.93577    
   9600000   78.226268      102.61955      347.74476    
   9610000   85.134391      111.77322      378.76363    
   9620000   75.205542      117.52762      398.26344    
   9630000   87.260776      131.01025      443.95174    
   9640000   74.209974      133.57853      452.65484    
   9650000   80.104941      132.96711      450.58294    
   9660000   81.577102      119.28398      404.21518    
   9670000   84.678549      139.63073      473.16381    
   9680000   76.929967      136.01313      460.90492    
   9690000   72.20275       119.00127      403.25718    
   9700000   73.583719      126.2372       427.77742    
   9710000   69.901834      133.5303       452.49141    
   9720000   77.378103      134.95584      457.32211    
   9730000   82.254         126.52024      428.73654    
   9740000   71.750517      127.81563      433.12623    
   9750000   94.849364      120.0619       406.8513     
   9760000   100.09791      129.54395      438.98295    
   9770000   104.84273      151.65632      513.91468    
   9780000   68.630649      148.34398      502.69022    
   9790000   86.455895      133.16117      451.24053    
   9800000   93.108181      141.96137      481.0616     
   9810000   89.144619      132.64612      449.49519    
   9820000   76.587386      147.49529      499.81426    
   9830000   77.920989      125.84615      426.45226    
   9840000   76.709385      135.23923      458.28241    
   9850000   87.157064      150.94723      511.51178    
   9860000   89.427176      136.58156      462.83115    
   9870000   78.465841      142.93171      484.34976    
   9880000   80.417756      148.46146      503.08831    
   9890000   96.163172      137.96432      467.51688    
   9900000   97.608296      126.16118      427.51981    
   9910000   83.793948      145.04872      491.52363    
   9920000   82.140678      144.73982      490.47687    
   9930000   110.20799      148.08176      501.80165    
   9940000   91.811793      142.84157      484.04431    
   9950000   84.334051      131.13829      444.38563    
   9960000   72.651497      141.50241      479.50632    
   9970000   81.086154      126.97248      430.26903    
   9980000   86.32816       129.84096      439.98942    
   9990000   83.054466      150.71569      510.72719    
  10000000   97.700778      148.02727      501.61698    
  10010000   99.888879      116.38742      394.39967    
  10020000   80.119793      137.56301      466.15697    
  10030000   81.884065      127.28194      431.3177     
  10040000   90.776459      148.07865      501.7911     
  10050000   79.199264      143.66997      486.85148    
  10060000   61.351731      139.17364      471.61486    
  10070000   104.86794      129.75513      439.69855    
  10080000   77.709505      126.91282      430.06687    
  10090000   76.456803      133.79653      453.39356    
  10100000   61.712059      143.34711      485.75743    
  10110000   74.440963      142.58996      483.19169    
  10120000   72.940344      119.1439       403.74049    
  10130000   61.331741      126.60468      429.02269    
  10140000   58.787917      138.15892      468.17632    
  10150000   90.27932       128.78785      436.42075    
  10160000   69.035282      127.73239      432.84414    
  10170000   69.507532      138.35022      468.82457    
  10180000   79.264017      135.51413      459.21395    
  10190000   79.858343      135.13635      457.93379    
  10200000   87.424774      165.07269      559.37844    
  10210000   89.293628      149.05363      505.095      
  10220000   85.951976      128.05717      433.94472    
  10230000   88.835993      134.11148      454.46085    
  10240000   72.190789      166.91192      565.61102    
  10250000   86.646449      147.2977       499.14471    
  10260000   94.163528      138.28587      468.6065     
  10270000   77.865436      149.37831      506.19523    
  10280000   86.001453      137.82038      467.0291     
  10290000   94.89518       142.73755      483.69183    
  10300000   77.223155      118.51714      401.61662    
  10310000   86.860746      129.54835      438.99785    
  10320000   87.652019      140.96045      477.66981    
  10330000   95.522153      123.94647      420.01487    
  10340000   100.04456      144.88855      490.98087    
  10350000   86.030416      146.98033      498.06925    
  10360000   97.462053      124.02476      420.28018    
  10370000   96.081136      138.5452       469.4853     
  10380000   95.06335       121.04909      410.19658    
  10390000   96.332842      121.42025      411.45433    
  10400000   83.041898      145.66113      493.5989     
  10410000   78.078108      171.75282      582.01528    
  10420000   91.257981      117.30126      397.49637    
  10430000   81.509075      124.70042      422.56978    
  10440000   71.885877      130.64979      442.73027    
  10450000   97.897906      142.55296      483.06632    
  10460000   89.41173       165.16347      559.68609    
  10470000   106.38024      136.65659      463.08538    
  10480000   96.473623      127.20499      431.05694    
  10490000   87.748951      132.8435       450.16407    
  10500000   86.010184      145.56282      493.26576    
  10510000   81.207751      133.57129      452.63031    
  10520000   89.83715       132.39572      448.64667    
  10530000   79.760004      131.76737      446.5174     
  10540000   91.166403      121.7049       412.41889    
  10550000   78.108742      137.27478      465.18023    
  10560000   82.449523      122.96261      416.68088    
  10570000   86.904844      128.43553      435.22687    
  10580000   87.698479      119.22889      404.0285     
  10590000   99.243932      150.79168      510.98468    
  10600000   84.767771      157.10763      532.38742    
  10610000   88.096313      121.79102      412.71074    
  10620000   85.298376      113.75644      385.48411    
  10630000   80.158057      134.77935      456.72402    
  10640000   79.665482      145.63893      493.52366    
  10650000   77.149917      151.74069      514.20059    
  10660000   82.267059      126.27957      427.92099    
  10670000   75.527174      135.3312       458.59409    
  10680000   88.257597      147.63631      500.29213    
  10690000   83.20098       145.33351      492.48871    
  10700000   87.175835      144.01735      488.02866    
  10710000   86.337694      150.84574      511.16788    
  10720000   87.364717      123.59698      418.83057    
  10730000   99.256247      118.82809      402.67033    
  10740000   100.68649      140.53757      476.23681    
  10750000   96.549902      122.83189      416.23791    
  10760000   84.29262       149.23813      505.72022    
  10770000   90.478         117.67281      398.75546    
  10780000   75.223327      123.96534      420.0788     
  10790000   82.646826      129.37624      438.41462    
  10800000   82.892691      156.82547      531.43127    
  10810000   68.85364       138.46287      469.20631    
  10820000   97.7879        129.24174      437.95883    
  10830000   91.565245      142.72776      483.65866    
  10840000   88.183018      148.72667      503.98702    
  10850000   96.238238      130.04104      440.66741    
  10860000   68.813744      137.57106      466.18423    
  10870000   81.553979      130.75428      443.08436    
  10880000   82.466601      147.25505      499.00017    
  10890000   87.069664      141.5595       479.69979    
  10900000   80.332063      151.98834      515.03978    
  10910000   79.940779      132.81942      450.08246    
  10920000   80.386236      136.4349       462.33416    
  10930000   87.117839      130.28867      441.50655    
  10940000   98.826897      140.51798      476.1704     
  10950000   81.381324      144.83481      490.79876    
  10960000   81.447758      136.32797      461.97182    
  10970000   86.194493      148.5072       503.24333    
  10980000   82.43665       131.78297      446.57026    
  10990000   82.161664      135.81998      460.25038    
  11000000   79.923536      140.87201      477.3701     
  11010000   84.079139      139.98414      474.36141    
  11020000   77.660285      133.91483      453.79443    
  11030000   78.143671      157.81663      534.79       
  11040000   88.797895      146.38476      496.05104    
  11050000   81.190767      136.283        461.81942    
  11060000   70.063211      145.66643      493.61685    
  11070000   79.393442      143.96588      487.85423    
  11080000   79.294159      142.30094      482.21228    
  11090000   92.024248      126.25987      427.85423    
  11100000   73.843682      127.19738      431.03115    
  11110000   91.375332      150.7783       510.93933    
  11120000   86.040559      124.43007      421.65362    
  11130000   84.948969      119.03674      403.37737    
  11140000   102.14012      142.46623      482.7724     
  11150000   107.17691      130.2264       441.29554    
  11160000   91.755879      172.61257      584.9287     
  11170000   97.982014      143.93525      487.75045    
  11180000   119.47229      145.8348       494.18739    
  11190000   72.632522      138.36436      468.87248    
  11200000   83.305373      141.90169      480.85935    
  11210000   85.091505      121.35597      411.23651    
  11220000   97.898202      166.24316      563.34481    
  11230000   93.447687      144.04263      488.11433    
  11240000   105.97519      144.09293      488.28477    
  11250000   99.233146      125.56088      425.48559    
  11260000   68.039184      129.10595      437.4987     
  11270000   73.13667       151.19001      512.3345     
  11280000   90.541618      136.16108      461.40626    
  11290000   79.929906      140.18734      475.04999    
  11300000   99.228743      137.17305      464.8355     
  11310000   78.613126      143.53349      486.38899    
  11320000   75.262237      143.61396      486.66169    
  11330000   94.445584      116.24495      393.91687    
  11340000   100.10011      140.91611      477.51954    
  11350000   81.618362      157.12382      532.44229    
  11360000   66.349036      175.82514      595.81507    
  11370000   110.78094      136.38521      462.16577    
  11380000   91.034976      120.82277      409.42966    
  11390000   92.626296      125.98448      426.92102    
  11400000   82.088183      154.07837      522.12221    
  11410000   99.340726      134.75274      456.63387    
  11420000   89.911308      137.2722       465.17151    
  11430000   90.288572      140.00464      474.43086    
  11440000   74.687891      134.10056      454.42384    
  11450000   78.707354      132.77417      449.92912    
  11460000   99.120326      134.20613      454.78156    
  11470000   93.884397      138.91223      470.72902    
  11480000   77.401371      153.57387      520.41264    
  11490000   86.244903      117.87081      399.4264     
  11500000   76.766431      145.12521      491.78283    
  11510000   93.723072      146.6834       497.06305    
  11520000   72.292631      125.87495      426.54988    
  11530000   84.313003      135.57619      459.42426    
  11540000   87.186763      143.28262      485.53889    
  11550000   90.357129      147.01911      498.20067    
  11560000   74.646896      145.54795      493.21538    
  11570000   89.18299       156.65918      530.86776    
  11580000   81.789451      146.84352      497.60564    
  11590000   80.993586      159.57194      540.73816    
  11600000   84.525021      147.98617      501.47772    
  11610000   86.892828      166.14604      563.01568    
  11620000   83.781494      139.9839       474.36058    
  11630000   93.193058      136.08145      461.13643    
  11640000   99.300706      151.53227      513.4943     
  11650000   105.15029      164.37771      557.02338    
  11660000   97.532473      165.54356      560.97409    
  11670000   98.329724      146.85342      497.63918    
  11680000   104.96689      147.35985      499.35532    
  11690000   104.39776      136.82622      463.66021    
  11700000   90.710347      119.9893       406.60528    
  11710000   86.064527      133.61327      452.77255    
  11720000   100.88397      164.76312      558.3294     
  11730000   99.617273      164.21554      556.47383    
  11740000   88.737409      161.91233      548.669      
  11750000   99.397519      140.40928      475.80207    
  11760000   88.550485      133.09608      451.01995    
  11770000   106.29941      144.32446      489.06934    
  11780000   104.64935      173.9339       589.40626    
  11790000   111.2382       168.86784      572.23899    
  11800000   84.016169      144.06603      488.19363    
  11810000   91.526207      145.38895      492.67655    
  11820000   74.679193      162.0754       549.2216     
  11830000   111.54267      141.52079      479.56862    
  11840000   107.27041      122.22893      414.19467    
  11850000   97.461156      160.29384      543.18445    
  11860000   86.219054      194.84857      660.27936    
  11870000   101.13299      161.02037      545.64644    
  11880000   104.35984      148.7468       504.05523    
  11890000   123.92059      156.9268       531.77465    
  11900000   79.279987      163.38803      553.66969    
  11910000   97.02561       148.28245      502.4817     
  11920000   95.373748      149.10391      505.26536    
  11930000   101.99094      148.44291      503.02546    
  11940000   102.92343      159.77843      541.4379     
  11950000   97.18192       150.50113      510.00011    
  11960000   105.08057      146.75304      497.29902    
  11970000   95.805349      150.12015      508.70908    
  11980000   76.838227      139.02397      471.1077     
  11990000   80.574826      149.34914      506.09638    
  12000000   92.906742      149.60241      506.95461    
Loop time of 349.34 on 1 procs for 8000000 steps with 100 atoms

Performance: 19785.875 ns/day, 0.001 hours/ns, 22900.318 timesteps/s, 2.290 Matom-step/s
99.3% CPU use with 1 MPI tasks x 1 OpenMP threads

MPI task timing breakdown:
Section |  min time  |  avg time  |  max time  |%varavg| %total
---------------------------------------------------------------
Pair    | 287.11     | 287.11     | 287.11     |   0.0 | 82.19
Bond    | 37.544     | 37.544     | 37.544     |   0.0 | 10.75
Neigh   | 3.6631     | 3.6631     | 3.6631     |   0.0 |  1.05
Comm    | 3.4627     | 3.4627     | 3.4627     |   0.0 |  0.99
Output  | 0.21008    | 0.21008    | 0.21008    |   0.0 |  0.06
Modify  | 16.159     | 16.159     | 16.159     |   0.0 |  4.63
Other   |            | 1.189      |            |       |  0.34

Nlocal:            100 ave         100 max         100 min
Histogram: 1 0 0 0 0 0 0 0 0 0
Nghost:              0 ave           0 max           0 min
Histogram: 1 0 0 0 0 0 0 0 0 0
Neighs:            445 ave         445 max         445 min
Histogram: 1 0 0 0 0 0 0 0 0 0

Total # of neighbors = 445
Ave neighs/atom = 4.45
Ave special neighs/atom = 5.88
Neighbor list builds = 23129
Dangerous builds = 0
Generated 0 of 6 mixed pair_coeff terms from geometric mixing rule
Setting up Verlet run ...
  Unit style    : real
  Current step  : 12000000
  Time step     : 10
Per MPI rank memory allocation (min/avg/max) = 9.633 | 9.633 | 9.633 Mbytes
   Step         PotEng         KinEng          Temp     
  12000000   92.906742      149.60241      506.95461    
  12010000   89.12173       133.89003      453.71041    
  12020000   108.65637      153.72834      520.93608    
  12030000   102.89816      146.94157      497.9379     
  12040000   102.6381       144.4965       489.65235    
  12050000   97.599756      138.26269      468.52794    
  12060000   87.153427      124.41622      421.6067     
  12070000   96.584186      135.37079      458.72823    
  12080000   80.040136      145.58981      493.35723    
  12090000   87.227567      148.55274      503.39763    
  12100000   96.18973       147.18158      498.7512     
  12110000   88.113189      147.00668      498.15854    
  12120000   92.603895      128.10732      434.11465    
  12130000   95.709141      121.73769      412.53001    
  12140000   90.286823      139.07747      471.28898    
  12150000   87.513508      151.85904      514.60161    
  12160000   96.760026      152.81498      517.84101    
  12170000   98.71442       140.35611      475.6219     
  12180000   119.07833      157.92176      535.14625    
  12190000   99.294088      161.51652      547.32773    
  12200000   101.25471      143.44372      486.08481    
  12210000   100.45277      138.43129      469.09927    
  12220000   96.566367      142.13239      481.64113    
  12230000   107.11627      146.79483      497.44065    
  12240000   105.26254      142.24599      482.02607    
  12250000   83.309114      177.21071      600.51031    
  12260000   90.553451      143.42963      486.03705    
  12270000   89.099052      135.13678      457.93523    
  12280000   109.70981      143.12114      484.99167    
  12290000   88.619547      136.98242      464.18953    
  12300000   82.962485      142.38952      482.51244    
  12310000   78.021275      136.21072      461.57448    
  12320000   80.713609      136.07836      461.12597    
  12330000   105.12254      166.24022      563.33485    
  12340000   97.02781       152.99314      518.44472    
  12350000   85.73031       155.33624      526.38474    
  12360000   97.337455      130.08822      440.82728    
  12370000   82.597408      151.79331      514.37889    
  12380000   82.52738       168.68795      571.62939    
  12390000   90.173384      142.09231      481.5053     
  12400000   90.815677      135.68918      459.80714    
  12410000   100.36508      166.43057      563.97988    
  12420000   95.648938      160.43896      543.67622    
  12430000   73.497468      161.86873      548.52127    
  12440000   100.64043      161.71876      548.01305    
  12450000   84.874495      166.03909      562.65327    
  12460000   101.80838      162.3379       550.11111    
  12470000   106.07005      146.2676       495.65403    
  12480000   108.37324      139.08645      471.31942    
  12490000   116.26014      157.73088      534.49941    
  12500000   83.330136      147.89805      501.17909    
  12510000   93.921749      115.09939      390.03495    
  12520000   95.25918       130.88822      443.53822    
  12530000   87.673156      163.22043      553.10172    
  12540000   118.20301      142.3877       482.5063     
  12550000   105.37444      153.68856      520.80127    
  12560000   123.07766      139.97217      474.32082    
  12570000   77.884536      164.78718      558.41095    
  12580000   82.169976      148.08317      501.80643    
  12590000   81.300221      139.31034      472.07812    
  12600000   73.618722      151.25722      512.56226    
  12610000   93.877016      139.62074      473.12994    
  12620000   96.381545      151.26386      512.58475    
  12630000   105.66444      167.71629      568.33678    
  12640000   86.391303      143.87745      487.55459    
  12650000   106.92828      139.70641      473.42026    
  12660000   73.623702      150.69979      510.6733     
  12670000   104.41551      143.13225      485.02934    
  12680000   103.90736      138.92842      470.78389    
  12690000   91.829776      151.25926      512.56915    
  12700000   95.307393      161.62789      547.70514    
  12710000   102.01488      149.45063      506.4403     
  12720000   90.985838      129.3845       438.4426     
  12730000   101.04693      165.84257      561.98733    
  12740000   97.25299       176.15695      596.93946    
  12750000   94.385858      161.99384      548.94522    
  12760000   95.052038      170.54784      577.93197    
  12770000   94.93769       162.92407      552.09748    
  12780000   87.19237       152.87731      518.05223    
  12790000   104.58267      171.401        580.82306    
  12800000   103.56222      172.75566      585.41357    
  12810000   114.96457      145.77933      493.99943    
  12820000   87.037066      162.6502       551.16941    
  12830000   99.418267      132.92509      450.44054    
  12840000   83.034714      159.00883      538.82998    
  12850000   85.533258      150.0203       508.37072    
  12860000   88.142467      149.44902      506.43484    
  12870000   86.835026      133.82146      453.47805    
  12880000   66.657883      149.72042      507.35452    
  12890000   83.973972      140.07407      474.66615    
  12900000   86.184403      153.47525      520.07845    
  12910000   102.55533      136.60241      462.90179    
  12920000   83.683095      135.75128      460.01759    
  12930000   97.349475      154.52797      523.64576    
  12940000   98.049642      134.82529      456.87971    
  12950000   106.6419       155.74605      527.77347    
  12960000   106.22609      159.8311       541.61637    
  12970000   101.17714      131.00121      443.92114    
  12980000   81.955453      147.29971      499.15152    
  12990000   77.503652      144.63065      490.10694    
  13000000   113.39302      152.468        516.6652     
  13010000   88.759624      156.44996      530.15879    
  13020000   92.994042      147.02476      498.2198     
  13030000   86.519125      165.58039      561.09887    
  13040000   86.338546      167.96717      569.18691    
  13050000   96.259338      162.8391       551.80955    
  13060000   82.241881      146.43511      496.22167    
[...]
 211260000   73.450964      135.75974      460.04626    
 211270000   74.266347      135.39334      458.80463    
 211280000   78.055942      141.38181      479.09765    
 211290000   86.363094      133.22639      451.46153    
 211300000   97.007393      134.59231      456.0902     
 211310000   104.30753      158.24222      536.23217    
 211320000   111.77372      148.97336      504.82299    
 211330000   97.431534      157.91585      535.12623    
 211340000   90.844157      165.33453      560.26576    
 211350000   84.97714       175.16495      593.57789    
 211360000   80.52605       158.15394      535.93301    
 211370000   88.722301      141.48541      479.44873    
 211380000   102.19313      140.32914      475.5305     
 211390000   88.252942      161.03755      545.70465    
 211400000   94.346143      152.37069      516.33544    
 211410000   87.202143      130.62753      442.65486    
 211420000   73.228675      131.34885      445.09918    
 211430000   77.786782      118.55687      401.75126    
 211440000   84.504964      128.19283      434.40444    
 211450000   85.13001       141.53567      479.61905    
 211460000   96.056502      149.1746       505.50492    
 211470000   81.292847      143.00949      484.61334    
 211480000   75.93294       158.26339      536.30391    
 211490000   96.604336      140.1563       474.94478    
 211500000   102.20449      130.18825      441.16626    
 211510000   89.142077      170.90507      579.1425     
 211520000   115.54107      151.0486       511.85529    
 211530000   102.90862      153.30318      519.49537    
 211540000   95.829593      139.93334      474.18926    
 211550000   87.639469      138.32325      468.73318    
 211560000   91.330176      153.95358      521.69936    
 211570000   89.406283      152.71159      517.49066    
 211580000   90.452185      153.42342      519.90279    
 211590000   90.560211      153.22802      519.24066    
 211600000   81.690454      141.22419      478.56354    
 211610000   82.951656      161.7627       548.16196    
 211620000   92.970154      130.44864      442.04865    
 211630000   101.20216      133.8125       453.4477     
 211640000   80.192304      149.51239      506.6496     
 211650000   99.156761      137.77216      466.86572    
 211660000   98.286584      157.73863      534.52568    
 211670000   95.210171      159.50283      540.50399    
 211680000   79.753018      143.27018      485.49672    
 211690000   87.462255      144.1734       488.55744    
 211700000   104.74886      140.99376      477.78266    
 211710000   86.798158      172.05158      583.02766    
 211720000   112.9322       149.52301      506.68557    
 211730000   81.21583       169.30063      573.70559    
 211740000   109.44541      170.2706       576.9925     
 211750000   99.353102      146.13284      495.19737    
 211760000   109.4209       142.59376      483.20456    
 211770000   91.233307      125.85532      426.48336    
 211780000   71.916652      137.54955      466.11135    
 211790000   93.296232      144.54459      489.81529    
 211800000   98.417547      158.28952      536.39246    
 211810000   96.904162      146.16993      495.32305    
 211820000   113.45495      121.85845      412.93922    
 211830000   87.428505      147.6235       500.24875    
 211840000   102.36697      154.66845      524.12182    
 211850000   117.54092      153.76648      521.06532    
 211860000   90.513576      147.47788      499.75529    
 211870000   104.83696      150.36424      509.53623    
 211880000   86.76051       133.54259      452.53304    
 211890000   97.883034      126.20716      427.67563    
 211900000   87.310268      160.22829      542.96235    
 211910000   91.364964      165.50293      560.83639    
 211920000   102.99583      141.12029      478.21143    
 211930000   76.511809      147.41612      499.54598    
 211940000   90.216285      133.96429      453.96205    
 211950000   80.188177      143.86703      487.51927    
 211960000   93.123786      138.0375       467.76485    
 211970000   91.159861      147.17658      498.73426    
 211980000   86.628054      162.08545      549.25564    
 211990000   100.44122      159.07418      539.05142    
 212000000   95.059784      144.58022      489.93603    
Loop time of 348.904 on 1 procs for 8000000 steps with 100 atoms

Performance: 19810.610 ns/day, 0.001 hours/ns, 22928.947 timesteps/s, 2.293 Matom-step/s
99.3% CPU use with 1 MPI tasks x 1 OpenMP threads

MPI task timing breakdown:
Section |  min time  |  avg time  |  max time  |%varavg| %total
---------------------------------------------------------------
Pair    | 287.05     | 287.05     | 287.05     |   0.0 | 82.27
Bond    | 36.799     | 36.799     | 36.799     |   0.0 | 10.55
Neigh   | 3.5742     | 3.5742     | 3.5742     |   0.0 |  1.02
Comm    | 3.3913     | 3.3913     | 3.3913     |   0.0 |  0.97
Output  | 0.18017    | 0.18017    | 0.18017    |   0.0 |  0.05
Modify  | 16.663     | 16.663     | 16.663     |   0.0 |  4.78
Other   |            | 1.246      |            |       |  0.36

Nlocal:            100 ave         100 max         100 min
Histogram: 1 0 0 0 0 0 0 0 0 0
Nghost:             24 ave          24 max          24 min
Histogram: 1 0 0 0 0 0 0 0 0 0
Neighs:            269 ave         269 max         269 min
Histogram: 1 0 0 0 0 0 0 0 0 0

Total # of neighbors = 269
Ave neighs/atom = 2.69
Ave special neighs/atom = 5.88
Neighbor list builds = 22977
Dangerous builds = 0
Generated 0 of 6 mixed pair_coeff terms from geometric mixing rule
Setting up Verlet run ...
  Unit style    : real
  Current step  : 212000000
  Time step     : 10
Per MPI rank memory allocation (min/avg/max) = 9.635 | 9.635 | 9.635 Mbytes
   Step         PotEng         KinEng          Temp     
 212000000   95.059784      144.58022      489.93603    
 212010000   99.778866      154.44931      523.37923    
 212020000   92.995742      152.96459      518.34799    
 212030000   80.584438      154.69566      524.21403    
 212040000   90.107442      144.1129       488.35244    
 212050000   86.6896        144.9655       491.24161    
 212060000   87.571208      145.77862      493.99705    
 212070000   106.69051      165.14011      559.60692    
 212080000   99.055641      150.64362      510.48297    
 212090000   103.74339      148.64548      503.71189    
 212100000   105.15477      145.25726      492.23032    
 212110000   91.520581      144.34176      489.12798    
 212120000   72.754615      151.30505      512.72432    
 212130000   97.345948      147.19992      498.81337    
 212140000   106.96676      148.91059      504.61029    
 212150000   87.564478      149.41131      506.30705    
 212160000   91.393454      140.82582      477.21359    
 212170000   104.78187      140.68294      476.7294     
 212180000   94.704753      132.15707      447.83797    
 212190000   84.152068      121.70167      412.40796    
 212200000   99.572108      149.77429      507.53706    
 212210000   95.762039      161.02048      545.64681    
 212220000   100.10348      147.85687      501.03956    
 212230000   70.355789      150.00267      508.31098    
 212240000   66.132898      135.38974      458.79246    
 212250000   97.556639      141.93272      480.96449    
 212260000   84.774316      136.54034      462.69145    
 212270000   92.161509      140.95065      477.6366     
 212280000   94.980154      133.73914      453.19908    
 212290000   91.110437      151.35836      512.90497    
 212300000   100.85399      134.70277      456.46453    
 212310000   87.135435      152.89459      518.11079    
 212320000   91.706256      129.51281      438.87742    
 212330000   86.654532      165.12646      559.56066    
 212340000   90.525778      136.32945      461.97682    
 212350000   82.641777      127.2205       431.10951    
 212360000   87.770707      145.93103      494.51351    
 212370000   97.150273      140.32983      475.53281    
 212380000   100.56792      165.38375      560.43254    
 212390000   93.598305      172.37135      584.11127    
 212400000   92.706704      170.01167      576.11506    
 212410000   95.965306      161.92917      548.72605    
 212420000   97.588576      151.49894      513.38136    
 212430000   100.30927      155.64938      527.44588    
 212440000   92.455122      159.30445      539.83174    
 212450000   106.56613      156.07465      528.88698    
 212460000   82.746814      152.43308      516.54686    
 212470000   103.89545      146.84882      497.62361    
 212480000   89.910683      159.45288      540.3347     
 212490000   96.519937      113.94024      386.10695    
 212500000   89.636682      124.7083       422.59646    
 212510000   93.894067      137.6322       466.39143    
 212520000   89.987605      155.94286      528.44037    
 212530000   87.261629      150.63617      510.4577     
 212540000   94.995767      171.49794      581.15157    
 212550000   116.03189      157.22977      532.80131    
 212560000   90.817483      164.65717      557.97038    
 212570000   87.39415       158.39162      536.73845    
 212580000   100.32242      138.43109      469.09862    
 212590000   94.102129      153.05543      518.6558     
 212600000   98.605671      176.77258      599.02562    
 212610000   118.16572      157.72926      534.49392    
 212620000   90.276471      151.50906      513.41566    
 212630000   75.906222      149.08658      505.20665    
 212640000   105.58793      131.07334      444.16556    
 212650000   99.058989      142.97686      484.50276    
 212660000   99.525608      139.33973      472.17769    
 212670000   95.339472      158.85509      538.30898    
 212680000   81.588949      135.68204      459.78296    
 212690000   94.484203      142.7339       483.67944    
 212700000   100.40782      155.29992      526.26167    
 212710000   100.40887      167.38915      567.22819    
 212720000   112.26271      125.27812      424.5274     
 212730000   73.037845      155.0717       525.48831    
 212740000   78.76589       136.97491      464.16408    
 212750000   89.925948      173.30768      587.28419    
 212760000   105.67062      161.70735      547.97439    
 212770000   96.460044      149.96397      508.17985    
 212780000   93.058593      122.27645      414.35572    
 212790000   58.518521      165.28975      560.11398    
 212800000   92.921416      134.13227      454.53128    
 212810000   98.109916      159.61238      540.8752     
 212820000   98.713383      150.25433      509.16377    
 212830000   91.341902      137.3543       465.44972    
 212840000   88.286778      147.47001      499.7286     
 212850000   82.329056      139.65459      473.24465    
 212860000   93.55329       168.06109      569.50518    
 212870000   88.46579       176.87083      599.35858    
 212880000   86.025826      166.60083      564.55683    
 212890000   115.38798      163.65308      554.56785    
 212900000   97.743773      144.27092      488.88791    
 212910000   94.077841      162.78849      551.63803    
 212920000   83.314626      148.91293      504.6182     
 212930000   80.919789      145.96797      494.63869    
 212940000   79.068681      129.0138       437.18644    
 212950000   86.317845      144.8318       490.78856    
 212960000   102.6167       134.5034       455.78893    
 212970000   97.587277      154.2755       522.79022    
 212980000   110.02906      146.21999      495.49268    
 212990000   97.867906      154.179        522.46323    
 213000000   96.621513      159.14613      539.29523    
 213010000   99.164672      140.28781      475.39042    
 213020000   94.055776      150.40844      509.68601    
 213030000   95.236325      143.21606      485.31333    
 213040000   77.210039      159.69432      541.1529     
 213050000   90.638327      174.85232      592.51848    
 213060000   90.227302      137.34826      465.42926    
 213070000   83.298555      150.69543      510.65854    
 213080000   77.86799       157.28313      532.98213    
 213090000   86.503001      166.36376      563.75346    
 213100000   105.10639      173.46158      587.80571    
 213110000   102.11754      165.43767      560.61525    
 213120000   99.001501      153.17705      519.06793    
 213130000   91.91066       156.04834      528.79784    
 213140000   105.57045      147.04613      498.29222    
 213150000   101.63648      149.95859      508.16161    
 213160000   97.396161      123.24694      417.64439    
 213170000   84.363742      163.31327      553.41635    
 213180000   106.26391      159.58438      540.78033    
 213190000   108.89372      154.6162       523.94474    
 213200000   127.37418      148.22627      502.29133    
 213210000   113.53025      167.78155      568.55792    
 213220000   90.149812      161.0417       545.71872    
 213230000   88.089803      140.82988      477.22735    
 213240000   83.986501      153.47149      520.06569    
 213250000   85.421921      134.98808      457.43135    
 213260000   88.981067      142.01201      481.23319    
 213270000   108.77533      149.26441      505.80927    
 213280000   104.45084      175.57627      594.97171    
 213290000   125.60009      162.32587      550.07036    
 213300000   100.85354      151.03935      511.82396    
 213310000   106.73824      143.62048      486.6838     
 213320000   85.665388      117.88428      399.47204    
 213330000   87.822223      130.74822      443.06383    
 213340000   78.590206      139.63956      473.19372    
 213350000   91.708697      134.82095      456.86498    
 213360000   85.243979      148.30332      502.55242    
 213370000   83.683298      147.77227      500.75289    
 213380000   88.600982      132.55721      449.19391    
 213390000   84.594587      136.06116      461.06767    
 213400000   99.296103      122.73393      415.90597    
 213410000   99.263507      143.66397      486.83115    
 213420000   86.595982      139.32403      472.12451    
 213430000   92.537947      153.10861      518.836      
 213440000   70.979921      136.07916      461.12867    
 213450000   67.656795      133.9649       453.96412    
 213460000   73.766426      142.38895      482.51052    
 213470000   96.206293      159.44116      540.295      
 213480000   100.11465      143.71026      486.98802    
 213490000   101.16822      149.5303       506.71027    
 213500000   111.21937      139.60867      473.08904    
 213510000   89.57787       153.97822      521.78284    
 213520000   87.613096      150.82885      511.11063    
 213530000   97.230262      137.57179      466.1867     
 213540000   81.686644      135.84627      460.33947    
 213550000   99.926557      145.7505       493.90173    
 213560000   75.438047      159.26819      539.70887    
 213570000   81.647968      164.51244      557.47994    
 213580000   99.725771      157.80446      534.74877    
 213590000   85.71918       149.7119       507.32565    
 213600000   92.624458      140.88372      477.40978    
 213610000   87.628037      163.20818      553.06022    
 213620000   94.341852      160.6166       544.2782     
 213630000   95.156569      146.20309      495.43543    
 213640000   91.624193      138.54567      469.48687    
 213650000   91.974051      146.99766      498.12795    
 213660000   103.57927      138.81868      470.41201    
 213670000   80.539829      161.27124      546.49656    
 213680000   84.062269      147.41529      499.54318    
 213690000   92.172141      151.2904       512.67468    
 213700000   90.557438      129.29361      438.13461    
 213710000   87.478347      151.13991      512.16472    
 213720000   125.09889      158.05459      535.59637    
 213730000   97.113988      163.38823      553.67037    
 213740000   91.947993      144.84428      490.83085    
 213750000   94.05018       142.52095      482.95783    
 213760000   94.494482      155.54577      527.09477    
 213770000   90.381296      149.40645      506.29059    
 213780000   90.55777       143.22521      485.34434    
 213790000   97.804292      141.99192      481.1651     
 213800000   78.854725      136.97466      464.16323    
 213810000   96.859239      138.55379      469.51438    
 213820000   84.44788       165.02774      559.22613    
 213830000   112.95608      136.53319      462.66722    
 213840000   103.71855      154.36647      523.09852    
 213850000   80.394604      164.39673      557.08785    
 213860000   91.221098      130.91079      443.61471    
 213870000   89.458354      151.27839      512.634      
 213880000   96.851145      148.71257      503.93924    
 213890000   82.962905      165.47701      560.74858    
 213900000   94.222693      153.49314      520.13907    
 213910000   97.289128      140.04333      474.56196    
 213920000   77.47398       164.79235      558.42847    
 213930000   106.79139      140.038        474.54391    
 213940000   92.05311       155.56532      527.16101    
 213950000   108.07947      154.40489      523.22871    
 213960000   91.478075      159.05144      538.97437    
 213970000   93.062118      155.08618      525.53736    
 213980000   104.54305      140.23436      475.2093     
 213990000   90.834557      153.97812      521.7825     
 214000000   87.489118      138.35481      468.8401     
 214010000   89.304918      150.47735      509.91951    
 214020000   91.584309      148.21619      502.25718    
 214030000   83.38708       164.85532      558.64184    
 214040000   90.640082      145.32805      492.4702     
 214050000   98.249499      147.36143      499.36068    
 214060000   89.744838      145.14311      491.84348    
 214070000   78.072209      139.2981       472.03662    
 214080000   97.9821        137.76437      466.83932    
 214090000   87.100472      138.31629      468.7096     
 214100000   108.84324      145.72123      493.80254    
 214110000   89.205315      152.01423      515.12753    
 214120000   102.63176      147.13168      498.58212    
 214130000   87.929984      145.80358      494.0816     
 214140000   114.03067      165.63374      561.27966    
 214150000   91.948191      152.4697       516.67097    
 214160000   96.32336       170.02834      576.17157    
 214170000   86.487585      129.73294      439.62335    
 214180000   101.65039      165.33704      560.27424    
 214190000   92.713088      163.65883      554.58734    
 214200000   112.83176      157.51135      533.75549    
 214210000   87.564535      125.60807      425.64552    
 214220000   98.436287      141.78455      480.46241    
 214230000   85.049497      148.15948      502.065      
 214240000   109.45295      144.08716      488.26522    
 214250000   88.062743      145.91489      494.45879    
 214260000   65.918238      144.63899      490.1352     
 214270000   97.385774      146.50779      496.46795    
 214280000   96.471148      119.6086       405.3152     
 214290000   72.709872      144.12487      488.39302    
 214300000   97.583363      130.00199      440.53507    
 214310000   101.72858      148.69191      503.86923    
 214320000   103.9741       135.17463      458.06351    
 214330000   101.85154      167.7972       568.61094    
 214340000   92.03774       170.60219      578.11615    
 214350000   90.498846      152.70551      517.47004    
 214360000   94.237143      154.72791      524.32332    
 214370000   98.609008      148.2058       502.22197    
 214380000   84.32127       134.50583      455.79717    
 214390000   108.30132      135.40356      458.83926    
 214400000   94.443129      147.7141       500.55576    
 214410000   87.728521      144.83934      490.81412    
 214420000   84.69          139.24791      471.86653    
srun: Job step aborted: Waiting up to 47 seconds for job step to finish.
[2025-11-21T03:05:23.611] error: *** STEP 2468797.0 ON della-h12n18 CANCELLED AT 2025-11-21T03:05:23 DUE to SIGNAL Terminated ***
[2025-11-21T03:05:23.612] error: *** JOB 2468797 ON della-h12n18 CANCELLED AT 2025-11-21T03:05:23 DUE to SIGNAL Terminated ***
