LAMMPS data file via write_data, version 29 Aug 2024, timestep = 408000000, units = real

61 atoms
4 atom types
60 bonds
1 bond types
59 angles
1 angle types

-500.6 500.6 xlo xhi
-500.6 500.6 ylo yhi
-500.6 500.6 zlo zhi

Masses

1 329.2
2 305.2
3 345.2
4 306.2

Bond Coeffs # harmonic

1 7.5 5.9

Angle Coeffs # harmonic

1 5 150

Atoms # full

3 1 1 0 60.12642576963989 -221.23003843244123 205.23710945694074 1 0 -5
4 1 1 0 59.28805537829731 -226.24459309333218 208.24756736741722 1 0 -5
5 1 1 0 57.3274364889661 -231.09588979307134 210.65236668918098 1 0 -5
2 1 4 0 64.2626774460743 -217.57541703449576 207.3905466750075 1 0 -5
1 1 1 0 67.96763001588148 -213.9270078782195 209.86893822908314 1 0 -5
8 1 3 0 54.09266954578012 -233.34689479604515 225.1364117408515 1 0 -5
7 1 2 0 56.54116835769723 -236.01509517523712 220.42018378217443 1 0 -5
9 1 3 0 54.72499804322922 -231.83756678314856 230.79843222279362 1 0 -5
6 1 2 0 57.77800525574088 -235.64829030105452 214.84534954705845 1 0 -5
44 1 4 0 -4.5329737224767666 -240.1997028850599 249.93019429647404 1 0 -5
45 1 4 0 -4.1498645424242255 -234.53473472059557 249.46583480093688 1 0 -5
58 1 3 0 38.38229091419635 -232.60686616745107 247.70272772264872 1 0 -5
46 1 2 0 -1.1426427063950892 -229.48419908941267 250.21861721328827 1 0 -5
60 1 3 0 36.55660541558896 -222.16137693528492 242.99424534021364 1 0 -5
59 1 3 0 36.33806488411982 -228.02566351078656 244.04126049164526 1 0 -5
61 1 3 0 39.109134671950095 -217.7189827280445 245.42160543484545 1 0 -5
11 1 2 0 49.93514437724613 -228.59787621224808 240.9260491424959 1 0 -5
10 1 3 0 51.78868970882552 -229.90157565716757 235.58660805745959 1 0 -5
12 1 4 0 49.838245833631674 -225.03520979760864 245.87053405020458 1 0 -5
41 1 3 0 -6.365120136810339 -251.3843497603954 262.2146088033808 1 0 -5
40 1 1 0 -3.8811916268038416 -251.76622934477163 267.5628407335593 1 0 -5
29 1 4 0 -28.41080079426645 -246.98150056229866 263.83534347650817 1 0 -5
28 1 4 0 -22.50527917694942 -246.19387866513642 262.6184678960933 1 0 -5
27 1 1 0 -17.156869970644674 -245.20404097864557 259.8700851930097 1 0 -5
30 1 3 0 -31.901325816052736 -250.089303481923 267.1056555249542 1 0 -5
26 1 1 0 -13.361194702454949 -241.11673199175257 257.8426788644856 1 0 -5
42 1 1 0 -5.144927929570161 -249.60142117351296 256.93263823733537 1 0 -5
43 1 3 0 -6.021629588618325 -245.2927177711605 252.55045475104734 1 0 -5
25 1 4 0 -9.430485634353486 -236.8420759271081 259.5820926564481 1 0 -5
24 1 3 0 -4.739352405150986 -234.88418604520794 262.8071238049402 1 0 -5
23 1 4 0 0.4297319382291287 -235.13825967352847 266.2406068515476 1 0 -5
20 1 3 0 15.629165778857699 -239.0277375067076 259.85336920284124 1 0 -5
21 1 3 0 10.039349601042339 -237.79127210901547 261.97104981686925 1 0 -5
19 1 2 0 20.627909513078045 -237.77780518499387 257.3992618913059 1 0 -5
18 1 4 0 25.17490092768336 -234.28383357093344 259.11628546277296 1 0 -5
57 1 2 0 39.7313235390256 -235.34212715129843 252.63448647722007 1 0 -5
55 1 1 0 37.191181043199315 -237.75307266209904 263.64943142656506 1 0 -5
56 1 3 0 37.501738749964815 -236.52819707236085 258.02977417199423 1 0 -5
47 1 2 0 1.5625253435099336 -226.51074690147613 255.0073106855193 1 0 -5
48 1 2 0 6.95066497163715 -225.17368436154933 256.9304903841559 1 0 -5
49 1 2 0 10.691495774882672 -225.98997409994192 261.2617484274779 1 0 -5
22 1 4 0 5.731708507738527 -237.69098059012416 265.65990445369584 1 0 -5
50 1 3 0 13.432530195671571 -229.01899019527357 265.3069068175715 1 0 -5
16 1 4 0 33.61628354120233 -226.43112883621748 255.84774291282574 1 0 -5
17 1 3 0 28.03140186944253 -229.23331349086217 257.2868472010829 1 0 -5
51 1 2 0 18.78916592629489 -229.01447827551294 267.80608877086974 1 0 -5
15 1 2 0 38.54378011463233 -222.70524061694704 256.6460505721509 1 0 -5
14 1 2 0 43.59799527077997 -221.6387263261762 253.7778974075224 1 0 -5
13 1 2 0 47.94661541024786 -223.3772494552095 250.68496815390154 1 0 -5
35 1 4 0 -21.515327074073554 -267.3181750882123 277.53850741987833 1 0 -5
32 1 4 0 -32.84599893593516 -261.18027386653836 269.18897788758073 1 0 -5
31 1 1 0 -33.94651066200133 -255.642239539449 266.5093532740961 1 0 -5
36 1 3 0 -17.072026506038487 -264.0837271178813 276.5751551437673 1 0 -5
33 1 1 0 -30.414069717114636 -262.5036944238957 274.59551869851487 1 0 -5
34 1 1 0 -27.35790938385 -267.0195486368397 276.4561890349538 1 0 -5
39 1 3 0 -4.11033083312798 -254.9435496683313 272.2966158335466 1 0 -5
37 1 4 0 -13.816188249589441 -259.22826144333527 275.31566001111446 1 0 -5
38 1 4 0 -8.535788166431043 -257.30472317633485 274.739975660479 1 0 -5
54 1 2 0 32.53220455558832 -238.8839369063798 266.65366106953564 1 0 -5
53 1 2 0 27.07224911066808 -236.6082063343287 269.0908012205445 1 0 -5
52 1 3 0 22.027149251613782 -233.30832170807415 269.8308081707521 1 0 -5

Velocities

3 -0.00037673285083717357 -0.00047723132994339693 0.001058239516419926
4 0.00043382506014832793 -0.00020780919264256985 -0.000987748524855915
5 0.000591346526368789 -0.00019345551229797995 -3.515555131917175e-05
2 -0.0007845149801805221 -0.0006935087799586459 0.0005785486562303209
1 -0.00014574736867442972 -0.0003735692480116501 -0.001165673048520085
8 0.00040070834327983706 0.0009087373115011245 9.23916686763105e-06
7 0.001214863877362363 -0.0007318400639551674 8.339517846583006e-05
9 0.0010368217990213355 -0.0003335951382208354 0.00045238338190778095
6 -0.0009245132910597635 0.001346337123530689 0.001340135019839891
44 0.00026475991182315994 -0.00012498972525410871 0.0006668427969031119
45 0.0011451895338000263 0.00026048612189158074 8.958503523936369e-05
58 -0.0005553909555711175 0.0008727788086213028 -0.0007960737034679637
46 0.00047864287731154556 -0.0007011965388059169 -0.0012666148978637984
60 0.0011557053584047038 0.00020679829808612895 -0.0003887052406489702
59 -0.0002697767901752964 -0.00013553072214565206 -0.0007665693610621484
61 -0.00015405736801433155 -0.0009431591925355226 -0.0010278405200999327
11 -0.0005677965817221533 -0.000770547498138412 0.00021446406500092664
10 -0.0005402772274798936 -0.0009413577006193997 -0.00016848907596623915
12 0.0003452423104720749 0.0004992622276427959 -0.0006242272075517483
41 0.0008120050446444999 0.0005770320650182143 -6.173121750432401e-05
40 -0.0009877289717895664 0.00011116394188290674 0.0015652133142940046
29 0.00028275346241467665 -0.000973151813021751 8.057814521212463e-05
28 -0.0003708518838328899 0.00041191407938901217 0.00020697784121057928
27 0.000962397987287574 0.00042516792578502926 -0.001831797613241381
30 -0.0007176653184321741 0.00027787924497898743 0.0006356318939800094
26 -8.87333624380589e-05 -0.0004250981067696022 0.0008788762811575409
42 -0.0002881884207878661 0.0015249429784402707 0.000940056302294511
43 -0.00104108283772261 -0.00055516797477194 -0.0008213726373802304
25 5.7439916966793536e-05 0.0016087847347231337 -0.00012358529250662133
24 0.0010222005869692642 0.0006863259262235553 -0.0004513720782799163
23 -0.0010143407303700536 -0.001407259430786695 -0.0006508027155471061
20 0.0018098455119809806 -0.00016535764315386988 -0.0012831923136607934
21 0.0006807315860040072 0.0011636566359803993 0.0011472852279986808
19 -0.0001345104294650243 -0.0010259300131578262 -0.0011494627900091447
18 0.001151423374089522 -0.0006567390052281594 -0.0009748857610232518
57 -0.0008019089389341396 7.642119689972869e-05 0.0013531495997649375
55 -0.0003112821982033667 -0.001091639621133888 3.699945918052564e-05
56 0.0010385689722092692 0.00015292698138226655 -0.0008759998359821558
47 -0.0012023595059296713 0.0005295154723978116 -0.0006783079194024423
48 -0.0013842275673763222 0.0001226395229651401 -0.0003943846668714548
49 -0.0003690752319939905 -0.0020631888602188043 0.0009822947955532065
22 -0.00030151986038596596 0.0006228159770198767 0.0017873565929733542
50 0.00017180455510614704 5.2901030810129154e-05 0.0008664288928136744
16 1.806214247597389e-05 -0.0003133721878743564 -0.0012239445453832841
17 0.00039180582899717874 0.0011993642607984229 0.0013066769684379048
51 0.001888349221896221 -0.0006021345130552399 0.0001970177698487875
15 0.0010389513205657681 -0.00039652086061890717 -0.0004252460723067239
14 -0.0007003878741873389 -0.0011480019951119554 -0.0012778615331093556
13 0.0005209265532816862 0.000708179043789906 -0.0013680358764086747
35 -3.567508395880881e-05 0.0008627585248226677 0.00186315321927898
32 0.00046600648964436497 4.415297389012082e-05 -0.00116119486686469
31 0.0005482152742963937 -0.0011550873512406487 0.0006297866183800743
36 -0.001553690329640207 -0.0005297819975353564 0.0006544187392240571
33 -0.0007740109577653485 -0.0007077503888542073 -0.0005823350881820618
34 -0.0007753676484293647 -0.00033929103821098524 -3.857480227325672e-05
39 0.0022040533445731167 0.00042292135218964283 -0.0020389176807717253
37 0.0017613158677093632 0.00041933384518554577 0.0007480205801744752
38 -0.0009634461784641643 -0.0006283876608934742 -0.00023868406556129895
54 0.0015529112024638351 0.0014935201164631574 -0.00015188351508268157
53 9.486836806101981e-05 -0.0005419945374980317 -0.0017171830530746167
52 -6.451087472940774e-05 -0.0005631131518153834 0.0010033548095915823

Bonds

1 1 3 4
2 1 4 5
3 1 5 6
4 1 2 3
5 1 1 2
6 1 8 9
7 1 7 8
8 1 9 10
9 1 6 7
10 1 44 45
11 1 45 46
12 1 58 59
13 1 46 47
14 1 60 61
15 1 59 60
16 1 11 12
17 1 10 11
18 1 12 13
19 1 41 42
20 1 40 41
21 1 29 30
22 1 28 29
23 1 27 28
24 1 30 31
25 1 26 27
26 1 42 43
27 1 43 44
28 1 25 26
29 1 24 25
30 1 23 24
31 1 20 21
32 1 21 22
33 1 19 20
34 1 18 19
35 1 57 58
36 1 55 56
37 1 56 57
38 1 47 48
39 1 48 49
40 1 49 50
41 1 22 23
42 1 50 51
43 1 16 17
44 1 17 18
45 1 51 52
46 1 15 16
47 1 14 15
48 1 13 14
49 1 35 36
50 1 32 33
51 1 31 32
52 1 36 37
53 1 33 34
54 1 34 35
55 1 39 40
56 1 37 38
57 1 38 39
58 1 54 55
59 1 53 54
60 1 52 53

Angles

1 1 2 3 4
2 1 3 4 5
3 1 4 5 6
4 1 1 2 3
5 1 7 8 9
6 1 6 7 8
7 1 8 9 10
8 1 5 6 7
9 1 43 44 45
10 1 44 45 46
11 1 57 58 59
12 1 45 46 47
13 1 59 60 61
14 1 58 59 60
15 1 10 11 12
16 1 9 10 11
17 1 11 12 13
18 1 40 41 42
19 1 39 40 41
20 1 28 29 30
21 1 27 28 29
22 1 26 27 28
23 1 29 30 31
24 1 25 26 27
25 1 41 42 43
26 1 42 43 44
27 1 24 25 26
28 1 23 24 25
29 1 22 23 24
30 1 19 20 21
31 1 20 21 22
32 1 18 19 20
33 1 17 18 19
34 1 56 57 58
35 1 54 55 56
36 1 55 56 57
37 1 46 47 48
38 1 47 48 49
39 1 48 49 50
40 1 21 22 23
41 1 49 50 51
42 1 15 16 17
43 1 16 17 18
44 1 50 51 52
45 1 14 15 16
46 1 13 14 15
47 1 12 13 14
48 1 34 35 36
49 1 31 32 33
50 1 30 31 32
51 1 35 36 37
52 1 32 33 34
53 1 33 34 35
54 1 38 39 40
55 1 36 37 38
56 1 37 38 39
57 1 53 54 55
58 1 52 53 54
59 1 51 52 53
