LAMMPS data file via write_data, version 29 Aug 2024, timestep = 408000000, units = real

161 atoms
4 atom types
160 bonds
1 bond types
159 angles
1 angle types

-500.6 500.6 xlo xhi
-500.6 500.6 ylo yhi
-500.6 500.6 zlo zhi

Masses

1 329.2
2 305.2
3 345.2
4 306.2

Bond Coeffs # harmonic

1 7.5 5.9

Angle Coeffs # harmonic

1 5 150

Atoms # full

101 1 4 0 110.08377890324203 -417.69554523799434 248.35299092130919 -2 -2 -1
102 1 3 0 105.76951698621882 -421.43615752983123 250.68726314829243 -2 -2 -1
100 1 2 0 113.81208959859629 -413.4817624754388 248.10896685069844 -2 -2 -1
134 1 1 0 102.48182825816261 -467.95707631979883 264.2631401270013 -2 -2 -1
55 1 1 0 132.28940987058388 -476.5146222386935 266.9075598370832 -2 -2 -1
54 1 2 0 135.27432700822362 -475.54566424552013 262.30374282908593 -2 -2 -1
143 1 2 0 146.94758303159168 -472.884453549614 269.0375796480191 -2 -2 -1
53 1 3 0 139.39750704902613 -472.40861627700895 259.3529287571132 -2 -2 -1
135 1 4 0 107.30107337562754 -465.86802195906927 261.5893051009317 -2 -2 -1
136 1 2 0 113.0265287259827 -464.82613590347245 261.7485966571767 -2 -2 -1
137 1 2 0 118.50360647349089 -463.6248331186228 263.526447148199 -2 -2 -1
51 1 2 0 136.82139051004935 -462.3265702458886 262.04525974590774 -2 -2 -1
52 1 3 0 140.12022961381666 -466.5473033538609 258.9264446287965 -2 -2 -1
147 1 1 0 144.19403673502862 -455.9798333797346 258.5382274643949 -2 -2 -1
146 1 3 0 148.0132810193905 -460.0822558690161 260.0369973464071 -2 -2 -1
145 1 3 0 150.5959447642917 -464.1775593361606 263.19058398513994 -2 -2 -1
50 1 2 0 135.54929725323024 -457.3342610335885 265.0758914062014 -2 -2 -1
144 1 1 0 150.22711020121986 -469.29233346620975 266.01256922043575 -2 -2 -1
148 1 1 0 139.25483625228998 -453.3494326928481 256.42742652954087 -2 -2 -1
42 1 3 0 117.09842998507456 -435.6593538895382 263.6937355900642 -2 -2 -1
150 1 2 0 129.79019663128284 -447.8440352866395 259.3128081196721 -2 -2 -1
43 1 4 0 121.8804623450941 -432.7921204134976 261.9057326363582 -2 -2 -1
149 1 1 0 135.11716537798236 -449.32326812547626 257.2577108227742 -2 -2 -1
44 1 3 0 127.47710034448458 -431.8492792491385 262.8070964122696 -2 -2 -1
45 1 2 0 132.0455070954905 -434.9434414996355 265.344293084165 -2 -2 -1
151 1 2 0 125.91216798310032 -449.41735270666214 263.4831268266309 -2 -2 -1
105 1 2 0 103.28331713562606 -432.6076886561831 261.1653634907539 -2 -2 -1
6 1 1 0 110.30127493434205 -425.22720933544343 259.9342849273426 -2 -2 -1
104 1 2 0 102.21945028758219 -429.6158078846344 255.94735144551902 -2 -2 -1
103 1 3 0 102.52363935499262 -425.92432044387675 251.28737412900117 -2 -2 -1
5 1 2 0 106.67393208837525 -422.9661035644595 264.1752651807656 -2 -2 -1
4 1 3 0 101.73777150755679 -420.1363245918775 266.39310417783474 -2 -2 -1
7 1 3 0 114.79100713572636 -424.26756045092424 256.4351251679282 -2 -2 -1
8 1 3 0 117.74876568607068 -422.65045473856236 252.12230369882084 -2 -2 -1
9 1 4 0 122.7562146405174 -419.57031720460907 251.6121607884611 -2 -2 -1
21 1 2 0 99.3455922528419 -404.3650445224623 260.6450809066014 -2 -2 -1
99 1 1 0 114.29918954969678 -408.87603585170865 251.5468740129184 -2 -2 -1
98 1 2 0 113.44078154287037 -406.630521221669 257.2793759460114 -2 -2 -1
20 1 4 0 97.60185064306741 -408.2572544632279 264.920243121173 -2 -2 -1
97 1 2 0 110.3122425558943 -408.6782185567588 261.69172098365516 -2 -2 -1
10 1 3 0 124.444529931788 -413.94555136077145 253.1344446317338 -2 -2 -1
11 1 2 0 124.50944378044467 -409.8106658524762 257.3605683419847 -2 -2 -1
27 1 4 0 128.42907445701573 -397.7924849181445 262.7124736212862 -2 -2 -1
13 1 2 0 120.27336263727045 -403.13619290244634 265.3321491147483 -2 -2 -1
12 1 4 0 121.86493467980173 -407.30215974923607 261.9312303705453 -2 -2 -1
29 1 1 0 131.16904200130978 -406.12776998961954 269.85431738841436 -2 -2 -1
28 1 4 0 130.49009018441157 -402.44063391238853 265.4116537895597 -2 -2 -1
22 1 3 0 102.68868764458944 -400.3843507013487 258.0031404377943 -2 -2 -1
23 1 3 0 107.95809682582646 -398.6416652889205 255.75688632662386 -2 -2 -1
24 1 3 0 113.15154133310165 -396.0001449331704 255.8113856362679 -2 -2 -1
25 1 1 0 118.52925272831597 -394.53468967548304 257.49718866963946 -2 -2 -1
26 1 3 0 124.18180198961025 -395.5999474943068 258.97056564634966 -2 -2 -1
133 1 3 0 99.72120064468041 -469.79440174862316 269.2025792622205 -2 -2 -1
132 1 3 0 99.06090773041163 -471.67884683742113 274.88322204896525 -2 -2 -1
59 1 4 0 113.00236531511989 -470.9642240914074 272.0983572666149 -2 -2 -1
131 1 1 0 102.21878794810213 -472.1097005191503 279.644922992118 -2 -2 -1
57 1 3 0 121.87455641527973 -477.0865150440137 267.54490573327894 -2 -2 -1
56 1 2 0 127.17188527165371 -477.8598675938148 269.0496404282945 -2 -2 -1
58 1 3 0 116.43439482466637 -475.54239516933706 269.6491077708953 -2 -2 -1
142 1 4 0 141.90035793071186 -472.915253498108 272.5788613398335 -2 -2 -1
140 1 1 0 132.18763529666137 -467.78317324924194 272.8833719254991 -2 -2 -1
141 1 3 0 136.71011618645997 -470.8434233043384 274.640277891454 -2 -2 -1
63 1 3 0 98.73005074061365 -458.6652214102178 278.9500984331989 -2 -2 -1
60 1 2 0 111.95068047966348 -465.5589192957272 273.92189772365583 -2 -2 -1
61 1 2 0 107.51355761695278 -461.9199939410804 273.20116064344217 -2 -2 -1
62 1 2 0 103.45335513368511 -458.2909072797974 274.9356394761153 -2 -2 -1
127 1 3 0 112.98524492545124 -456.2861478750476 285.90009853236756 -2 -2 -1
126 1 2 0 108.37450336237754 -452.12558021680616 284.8051713077383 -2 -2 -1
138 1 3 0 123.98049684208486 -465.3856282419661 265.2820079471553 -2 -2 -1
139 1 3 0 127.00262837581353 -467.0443690026362 269.8522087571115 -2 -2 -1
49 1 4 0 135.79301174198747 -452.55548105108363 268.3681975646408 -2 -2 -1
77 1 3 0 67.11587426658085 -446.951852089275 280.5785083929221 -2 -2 -1
76 1 3 0 68.31142433246059 -445.4338581878615 275.0733621759252 -2 -2 -1
120 1 3 0 81.29408551261297 -445.2545017532811 280.65518202734523 -2 -2 -1
74 1 3 0 77.83028202532451 -441.23592150539713 270.5231495079772 -2 -2 -1
75 1 3 0 72.43152350344293 -443.4090087046435 271.63831279009503 -2 -2 -1
119 1 3 0 77.37439767341824 -440.87239504967 281.6003067646323 -2 -2 -1
122 1 3 0 91.78430237054361 -445.5200212097271 275.8356849708783 -2 -2 -1
123 1 3 0 97.47739801043086 -445.5208743783419 276.0861724632907 -2 -2 -1
121 1 1 0 86.62999672354186 -446.1456912878972 278.3572851034255 -2 -2 -1
41 1 3 0 114.5940186036078 -438.93085724600877 267.6166980656549 -2 -2 -1
40 1 2 0 112.38940321678679 -440.8841227850618 273.02909912742405 -2 -2 -1
39 1 2 0 114.39115144623914 -439.0676068810642 278.32148237650233 -2 -2 -1
124 1 3 0 101.8324398044068 -445.4627868552799 279.4549948748695 -2 -2 -1
125 1 3 0 106.91859259637815 -446.97622982378186 281.82208120846644 -2 -2 -1
46 1 1 0 133.97472209148683 -437.7883531678751 269.72729437567796 -2 -2 -1
47 1 1 0 135.96224233883044 -442.41322149942334 272.98486534972716 -2 -2 -1
152 1 4 0 123.30616909573219 -446.42939520118637 268.1090297078777 -2 -2 -1
153 1 3 0 125.79004303571415 -444.358996833523 273.03574964498887 -2 -2 -1
154 1 2 0 125.93479305802721 -438.57053731841887 274.64432520821555 -2 -2 -1
48 1 3 0 136.75923731518026 -447.6392227590255 271.12028748677005 -2 -2 -1
73 1 2 0 82.7231482549218 -437.7598145038199 269.1484531391975 -2 -2 -1
72 1 1 0 87.86689339367473 -435.3508577282087 270.770166425458 -2 -2 -1
71 1 3 0 91.08079913927362 -433.99375133160385 275.4641020344326 -2 -2 -1
106 1 2 0 103.23331313216023 -431.38954564910983 266.7574335913774 -2 -2 -1
3 1 3 0 96.12932742096919 -419.8774736354462 267.70622507621033 -2 -2 -1
1 1 3 0 86.11818719092021 -423.3724339913067 265.2742581734149 -2 -2 -1
2 1 2 0 90.888717593525 -419.8115908449714 265.45541538354155 -2 -2 -1
70 1 4 0 92.47124891236368 -433.8806292735823 281.4502888547709 -2 -2 -1
107 1 3 0 100.39693423486216 -428.1390425397755 271.3231195424055 -2 -2 -1
108 1 3 0 100.92525998343856 -426.19246603752725 276.8901937447167 -2 -2 -1
157 1 3 0 116.67768676755941 -426.57195975521705 279.69698354922895 -2 -2 -1
109 1 2 0 99.0078037925461 -424.1343729077381 282.11984743734445 -2 -2 -1
156 1 4 0 121.22326781121883 -428.93099394783206 276.76194339075766 -2 -2 -1
155 1 2 0 124.59005098211742 -432.62942853135786 274.61457114381096 -2 -2 -1
34 1 3 0 132.0232900783035 -428.3606986238673 285.1290855638502 -2 -2 -1
33 1 3 0 132.57452736090826 -423.6776402839464 281.6661673120189 -2 -2 -1
32 1 1 0 135.07728929440106 -420.5987649290804 277.70180339380164 -2 -2 -1
19 1 3 0 96.14339426961259 -406.29794171057284 270.24501382068274 -2 -2 -1
18 1 2 0 98.35523603926096 -401.28311489720915 271.9721337044327 -2 -2 -1
96 1 3 0 107.52224439292722 -408.84648466528773 266.6416759478678 -2 -2 -1
95 1 4 0 107.64460455120904 -409.55149367178416 272.0821881914561 -2 -2 -1
94 1 3 0 110.62720936363512 -411.08839486563323 277.0327778987152 -2 -2 -1
30 1 1 0 132.20244281779284 -411.3934584230793 271.79129881372614 -2 -2 -1
31 1 1 0 134.6079901321807 -414.857891637858 276.02483195936634 -2 -2 -1
17 1 1 0 101.63001607859884 -397.471442659187 268.5954030583062 -2 -2 -1
16 1 3 0 105.94016174790242 -394.03337014711633 267.22796208959244 -2 -2 -1
15 1 2 0 111.69058490006019 -395.4042357398495 267.3319082064411 -2 -2 -1
14 1 2 0 117.02992381836022 -398.452493648266 266.16595492642375 -2 -2 -1
130 1 3 0 102.41197442010186 -468.2760964625511 284.0231874994089 -2 -2 -1
64 1 2 0 98.78680295181425 -457.8266094962161 284.7787412576549 -2 -2 -1
65 1 2 0 97.99934615717589 -454.1899133009101 289.19492097981407 -2 -2 -1
129 1 2 0 106.98465549580564 -465.58229080755933 287.19611458533177 -2 -2 -1
128 1 3 0 111.68761587022668 -462.2824700881607 286.5109809998842 -2 -2 -1
78 1 1 0 67.83228780280338 -447.05992834144155 286.3859866196672 -2 -2 -1
79 1 3 0 69.69833827235365 -450.20556196316545 290.4832786783285 -2 -2 -1
80 1 4 0 75.69359885759276 -449.85435305147575 292.1126235980508 -2 -2 -1
81 1 2 0 80.48029129767652 -446.64398601478473 293.75608249862455 -2 -2 -1
82 1 3 0 83.53670158354865 -441.5244339079618 292.3299762209275 -2 -2 -1
83 1 2 0 84.34805217803671 -436.8727747630474 289.23246507192437 -2 -2 -1
118 1 2 0 75.13302222670004 -436.0063572111928 282.99980682665705 -2 -2 -1
69 1 3 0 94.29930419878598 -436.6682702909403 286.0181470377889 -2 -2 -1
68 1 4 0 99.57809191920099 -438.5243833165104 287.9353158535757 -2 -2 -1
38 1 3 0 115.53479206129596 -437.1934129955763 283.76787261467024 -2 -2 -1
67 1 2 0 100.97962142598368 -443.96138286206394 289.47075023139774 -2 -2 -1
66 1 1 0 98.15344536038026 -448.5905856420751 291.29928055435283 -2 -2 -1
37 1 1 0 117.78173258416625 -435.4933265957452 288.3393439067942 -2 -2 -1
36 1 1 0 122.5876896300358 -432.092637891598 289.6279726711714 -2 -2 -1
117 1 3 0 72.10830350262765 -432.1816103690586 286.5175809274232 -2 -2 -1
116 1 3 0 71.48009203356446 -429.77171069418074 291.9742596387698 -2 -2 -1
115 1 1 0 74.62121729545119 -429.7208218606128 297.0240955777458 -2 -2 -1
86 1 2 0 81.08776462691918 -421.87025886762655 286.36814696421607 -2 -2 -1
85 1 2 0 82.58144588161369 -427.04580687359464 284.4226527902223 -2 -2 -1
114 1 1 0 80.28071254872772 -429.94584310566614 298.8450911458232 -2 -2 -1
84 1 2 0 83.75214868077427 -432.387322436992 285.7838191409356 -2 -2 -1
110 1 2 0 97.54390140198977 -426.5593424127261 287.4102065426013 -2 -2 -1
111 1 3 0 94.19582958669598 -425.1759450169543 291.9826348242255 -2 -2 -1
112 1 3 0 90.39510136576018 -425.2275864166695 296.1286439845018 -2 -2 -1
113 1 3 0 85.17355293517112 -426.21925158247893 298.42881445717137 -2 -2 -1
158 1 2 0 118.12047096875689 -422.82314976305486 284.4380507688942 -2 -2 -1
35 1 3 0 128.06457961487163 -431.66216548490627 288.233811948663 -2 -2 -1
159 1 2 0 121.24448128943708 -420.5289637280029 288.7468447067348 -2 -2 -1
160 1 3 0 124.67091758650919 -421.7384860961519 293.57060411361056 -2 -2 -1
161 1 4 0 130.0735629156465 -419.8536568188365 295.1410822350517 -2 -2 -1
87 1 4 0 82.11266041582759 -417.3784780196372 290.0418181154677 -2 -2 -1
88 1 2 0 86.29290872375414 -414.0201516126572 291.20794710728273 -2 -2 -1
89 1 3 0 92.26386130812799 -414.53044329091045 292.221966127762 -2 -2 -1
90 1 3 0 98.09273217612662 -414.5054128771327 291.6035911376634 -2 -2 -1
91 1 3 0 103.64701708576817 -415.4840179561732 289.6965358579117 -2 -2 -1
93 1 4 0 111.9540604214433 -414.6785008861443 281.2759488883493 -2 -2 -1
92 1 1 0 108.37349656990672 -415.82688271245553 286.1226889479487 -2 -2 -1

Velocities

101 0.0004162522687229016 0.00123550556933694 -0.00044301331664006526
102 0.00010096808968416348 -0.0006837438633722991 -0.00013489660625697598
100 0.001193625929687428 0.0018457769898651058 0.00030970754777023314
134 0.0013340743437318663 0.000532684692525531 -0.00036265575894004403
55 8.378727487812275e-05 -0.0008474356459265573 -0.0008257624785172564
54 -0.0005642753374214587 0.000521518048486036 -0.0006523287474619393
143 -0.0007990852171795592 8.652720108707998e-05 -8.573100802097478e-05
53 0.001019016406452868 0.0005125390611621867 -0.00040213735992796764
135 -0.0016259467029221806 0.000835674559841513 0.0006446597610282742
136 -0.0009615286302808383 -0.0014095061948324926 -0.00020616605136401442
137 -0.0003299106885290134 0.0012056351087195208 0.0008173864973866243
51 -0.0007192443280574215 -0.0006164591078102364 0.0015661585517453148
52 0.0009715552225858055 0.0014607355325429638 0.000958157168347005
147 0.0011818047571798566 -0.0008487842522295096 -0.00040985665777755703
146 -0.0007511205685117892 0.0003088339299048513 0.0004143712697944496
145 0.00038999743254204423 -0.0009667377115168376 -0.0009496593919587387
50 0.00036269288285967725 3.903712907616281e-05 -0.000232435332419218
144 -0.0008247816095621437 -0.001212363087391431 0.0010833497539018005
148 -0.00023774751595180817 -0.0007356487469378402 0.0003837101529333835
42 0.00048232375843734027 0.0013012698619535319 0.0007431669653435906
150 -0.0012181780136767896 3.645933831579747e-06 0.0002774021299118962
43 -0.00038945328542911654 0.0009700923065287139 -9.99828691248975e-05
149 0.0012106896469486611 -0.0003211245844506871 0.00035622645218402727
44 0.0006338228369430819 -0.0007734623465961214 -0.0006277479755307144
45 0.0004583599768476757 -0.00039196853490323203 -0.0004902922912604896
151 0.0008225725824466614 0.0007799251397174257 0.0006354244624075631
105 0.0009340988100082522 0.0005433748320939125 0.0004703994238803935
6 -0.0007089274676608704 -0.00010712321626070562 -0.0013058076004174497
104 -0.0009185786142944132 0.0003282201721298217 -0.001165656248906207
103 0.0006408344484846515 0.00031190105952927236 0.0004769673258364111
5 9.454263904330761e-05 -0.0003499336954054839 -0.0010727499774063434
4 -0.00020605496554151255 0.0007271846280595281 -0.0015786718672946788
7 -0.001392225184157333 -0.0005706720440413561 0.0008081388449326409
8 0.0006706345347171623 -0.0006103605274874897 0.00011118986353282018
9 0.00023454791497972387 -0.002730449747591593 -0.00047369843410513795
21 -0.0007496630904441613 -0.00014799715353043148 -0.0013763820783578092
99 -0.0010835573920006721 0.0012674481632542773 -0.00019101390387220998
98 -0.0008113687099926995 0.0007649636367965513 -0.0010710802831999547
20 -0.0007628844714981179 0.0001866634079750598 -0.0003563348863484012
97 -0.0007519705294705048 0.0005591898062063885 0.0007027562698973353
10 0.001068659670272805 0.0002894178593007565 -0.0007229361754871203
11 -0.0001658422168544064 0.00032393993188359387 0.0012707966359101165
27 -0.0005514055841976044 0.0014306613113436533 -0.0013623552177487585
13 0.00015160792447636498 -0.0008399481662383509 -0.0007657012989012929
12 0.0009644857981991741 0.0003485644977405569 0.0005042581781437756
29 1.0556144993776078e-05 0.00022565225346237008 1.8416401504259208e-06
28 0.00041070813572533584 -0.00040775767094227485 0.00014908588646334004
22 -0.0005171478051326298 0.0002480633354798369 0.0004460990313254734
23 -0.000622237304810517 0.0004867514329211206 3.655332744950209e-05
24 0.00027737408454068103 -2.2232876483268684e-05 0.0004232464333586075
25 0.00099684459277343 -0.0017385052221367261 0.0010736110004748475
26 -9.483630311397326e-05 -0.0010517593250581481 0.00027462913636898905
133 0.0009661286585985511 0.0009540493279857793 -0.0018525540144886821
132 -0.0009298926964187161 -2.6855271356512584e-05 8.524164288315137e-05
59 0.0004994702075025064 0.0006544312212178678 -0.0001479204137438742
131 0.0004523210142131544 0.001267613144397866 0.0003926677570487318
57 0.00013414280736765555 -4.91533752366838e-06 -0.0010277896556583233
56 0.0008926379653033769 0.0009179176786518485 0.0012598007970014106
58 -0.0011219444396293962 0.0008329883281967395 0.0010765236172962543
142 0.00033399972132453046 -0.00019764383016940902 -3.362921214016656e-05
140 -0.00016585819234791525 -0.00047812276509497136 -0.0008738135646335644
141 -0.000461061883198253 7.40428323825613e-06 0.0013217927579119737
63 -0.001066720120564014 -0.0020074562980053013 -0.00046003149980195315
60 -9.318900828367471e-05 -0.0004883076492669401 -0.0021683914330673363
61 -0.00042278269724750725 -0.00038033317910663534 -0.00023180415174826042
62 -0.0007977336808745084 -0.0005888540649153049 0.0006423235918762329
127 0.00016744491610389716 0.0008730245231827813 0.00016843125788792502
126 -0.0007886763498715363 0.00022715082727526394 0.002076033205286112
138 -0.0007901087470657063 -0.000983943108950731 -0.0006828548167035658
139 -0.0008313891606753444 -0.00022315992833582803 0.0011692771891806094
49 0.00041274266835070005 -0.00037285707104594445 0.0004682416781816322
77 -0.0014727044059534564 -0.0008982265895598633 -0.0006566949724181131
76 0.0008951325758205927 -0.0005545437813095638 0.0003440366970019712
120 0.0005559237945025781 7.505070230058712e-05 -0.0006411322163088479
74 -0.00019980210707810336 -0.0005946131006497612 0.0004233809315846484
75 4.9280049232367765e-05 -0.0008046996944449961 -0.0003926997619771404
119 -0.000649286118035193 0.0009250771714615741 0.001584387178301343
122 -0.0006643036641686904 -0.0013002484920114174 0.001912231115924614
123 0.0011065291079327645 -0.00020801160211067173 -0.00015904839720047923
121 0.001019082927984616 -0.00019519670392583417 -4.56655109621838e-06
41 0.0009637902575145051 0.0009985065537934834 -0.0002879568412795774
40 0.0020035404628271844 0.0008337350301030857 -0.0004981060762137036
39 -0.0012719415204734451 -4.7925577902268214e-05 -0.0003473204683847724
124 -0.0007280735485273805 0.0013400579792120324 -6.696039491108423e-05
125 0.0010089756939045548 -0.0010067502174363556 0.0004053958888476923
46 5.25870418551366e-05 -0.000242506210534584 -0.00021133085935016896
47 0.0006020739748301775 -0.00038218445566091616 -0.0009377040501816019
152 0.002371604984111738 0.0011849547638826759 0.0006980311688984618
153 0.0009652798202140802 0.0007571350197963112 -0.0014560836258645422
154 8.064013695929762e-05 0.0009293335670352342 -0.00080635461725757
48 0.00010439139585123154 -0.0015211222545406266 -0.0008396614213612452
73 0.0010432880495828789 0.0009637036688348264 0.0005337022655043359
72 -8.302566899116143e-05 -0.0006747775289422969 -0.0007980302658842881
71 0.0005958594430555828 -0.0015520114286054318 -0.0005334865974831016
106 -0.0007915560230724065 0.0006636650788286537 0.0004289468793642341
3 0.0005441116650572 -0.0007390363856574313 -0.0008307418672875747
1 0.0007932844581299969 -0.00011450559030872516 -0.00114968208322465
2 0.000890617616396343 -0.0003977851269861378 0.0005585681802798687
70 0.0008752571305365682 0.0008392103161072122 -0.0006155494359603723
107 8.91826501839664e-05 7.731196792414104e-05 0.00015155270315418345
108 0.0005001636021642947 0.000169730420609622 0.00018817675154297122
157 -0.0005464498069237575 0.0003855062880982253 0.0011465425961614262
109 -0.0005237639092531928 -0.00036390532403570016 0.00019087747230485128
156 0.0009033141385868755 0.00021254713761102644 -0.0009168216035068318
155 0.0016062696693107006 -0.0011000628358961444 -0.0005231673678601695
34 -0.0009479259329762619 0.00118960214997614 0.0010412127869866227
33 -0.0009944147832766203 0.0006355959701657075 0.00018130229974384055
32 0.000308046304760338 0.0004694377661622027 -0.00011588184054314809
19 -7.179257797316567e-06 -0.0006600890640216002 0.0001588790462173882
18 -0.003014621778462131 0.0007635665798901287 -0.0008089109769383635
96 -0.0011146439506904283 0.0006688840944190274 5.867023845129835e-05
95 -0.0005360753678338995 0.0006592232401447426 0.0005475130487422911
94 0.0008805244018434057 -0.00033657602129918296 -0.0008099338662502348
30 0.0007586611310211929 -0.0011043768727629017 0.0007679956602353894
31 0.0008142900889180379 -0.0007060354202221701 -0.0002423230812270751
17 -0.00028036480942494196 -0.0014467706668347604 -0.0008406001768455155
16 -0.0006938677485382997 9.883159756146485e-06 0.0014791382277883809
15 -0.0013029460879033009 0.0005010318923246865 -0.0012579606445412821
14 -3.8346565411846746e-05 4.626385913564213e-05 0.0005052981591378105
130 -0.0005568856497776575 -0.001034510786493855 0.00014855044158836682
64 -0.00056300910179827 0.0009220026529999449 -0.001006012844761285
65 0.00023390387641394395 -0.00010990178627232229 -0.0010934193798667008
129 -0.0004188395482120284 0.0017677416152364854 1.544182040811917e-06
128 0.0005987819383228758 -0.00022911522950147946 0.00040211450486262883
78 0.0009366379771280777 0.0012940910567194488 0.0005976196493207485
79 -2.0746900632766595e-05 -0.00016480316702405224 0.0009708705035784817
80 -0.0004459219601102237 -0.0002759336251597639 -0.00011669477948826247
81 0.0005834614406196167 -0.000406391345661945 -0.001422313860257127
82 0.0007871294879048361 0.0005666534015796349 0.00022851115900664353
83 -0.00048248196594848265 0.0011901836959727259 -1.2033219568731015e-05
118 -0.0004913519198762136 -0.00127740745126011 -0.0008147598789763811
69 0.00060890962027573 -0.0005423303750246504 0.0006212639232672887
68 0.00038121592102653 -0.000804291341697262 -0.0015207247913123652
38 0.0008650172875601861 -0.0007524545888439762 0.0008604089682665219
67 -0.00024335591580634764 -0.0017911588873056488 -0.001205184571896254
66 -0.0007832468676151862 -0.00027909969068573803 -0.0006480519464267705
37 0.000255958404080853 7.666109032918818e-06 -0.0007996804672559295
36 -0.0003472916194755233 -0.0005856821409773098 -0.0014163688316998163
117 0.00027244113021552744 -0.0009758383002204177 -0.0005958709497668428
116 0.0009046198224162058 0.0011591943564064424 9.139243117790276e-05
115 -0.0022030131884713997 7.26223945175835e-05 -0.0006473387553805731
86 0.0013336280532858518 4.2072502922086835e-05 -2.93489330913673e-05
85 -0.0001636742168222709 -0.0008205651175193765 0.0008534709992987084
114 -0.000805410781819725 -0.0008412916814695474 -0.0007039069183422716
84 -0.0002198715653312892 -0.00032998577803150254 -0.0002976177728208873
110 -0.00198792384318545 0.0006871305438599583 -0.001721994853688236
111 0.0017257972070216013 -0.00043193783486927345 0.00022001699303619534
112 0.0004659338883633426 -0.0005012229255955595 0.0005718464836182646
113 -0.0003751938709000302 3.602330851165809e-05 -0.00016440199382533222
158 -0.0007600096678058459 0.0001277173671948545 0.0024764392955525607
35 -0.0003422544957123686 -0.0014736840549465615 0.001295220038296971
159 -0.0002575732801804176 0.0005597690587817465 -0.00020196841145526975
160 -0.00048167883888295933 0.0011381784616943755 -0.0013451933955138569
161 0.00021259824708332823 0.0005680836901687516 0.0021761740583250856
87 -0.0010660627124264089 -0.001286415458221216 0.00012189698059678681
88 5.689061497372586e-05 0.0015365411277889662 -5.006486349374774e-05
89 -0.0009399865761155654 -9.118681876157429e-05 0.00028094539580331455
90 -0.0005292911450858177 -0.0006232823279425082 0.0011973040508380726
91 0.0005050980058217048 0.0005491985592293041 0.0010279033748222086
93 -0.0007810805548554362 -0.0012450774970873056 -0.00027057182295406757
92 0.00023861687010670975 -0.0008442032651919935 0.00031320816259735023

Bonds

1 1 101 102
2 1 102 103
3 1 100 101
4 1 134 135
5 1 55 56
6 1 54 55
7 1 143 144
8 1 53 54
9 1 135 136
10 1 136 137
11 1 137 138
12 1 51 52
13 1 52 53
14 1 147 148
15 1 146 147
16 1 145 146
17 1 50 51
18 1 144 145
19 1 148 149
20 1 42 43
21 1 150 151
22 1 43 44
23 1 149 150
24 1 44 45
25 1 45 46
26 1 151 152
27 1 105 106
28 1 6 7
29 1 104 105
30 1 103 104
31 1 5 6
32 1 4 5
33 1 7 8
34 1 8 9
35 1 9 10
36 1 21 22
37 1 99 100
38 1 98 99
39 1 20 21
40 1 97 98
41 1 10 11
42 1 11 12
43 1 27 28
44 1 13 14
45 1 12 13
46 1 29 30
47 1 28 29
48 1 22 23
49 1 23 24
50 1 24 25
51 1 25 26
52 1 26 27
53 1 133 134
54 1 132 133
55 1 59 60
56 1 131 132
57 1 57 58
58 1 56 57
59 1 58 59
60 1 142 143
61 1 140 141
62 1 141 142
63 1 63 64
64 1 60 61
65 1 61 62
66 1 62 63
67 1 127 128
68 1 126 127
69 1 138 139
70 1 139 140
71 1 49 50
72 1 77 78
73 1 76 77
74 1 120 121
75 1 74 75
76 1 75 76
77 1 119 120
78 1 122 123
79 1 123 124
80 1 121 122
81 1 41 42
82 1 40 41
83 1 39 40
84 1 124 125
85 1 125 126
86 1 46 47
87 1 47 48
88 1 152 153
89 1 153 154
90 1 154 155
91 1 48 49
92 1 73 74
93 1 72 73
94 1 71 72
95 1 106 107
96 1 3 4
97 1 1 2
98 1 2 3
99 1 70 71
100 1 107 108
101 1 108 109
102 1 157 158
103 1 109 110
104 1 156 157
105 1 155 156
106 1 34 35
107 1 33 34
108 1 32 33
109 1 19 20
110 1 18 19
111 1 96 97
112 1 95 96
113 1 94 95
114 1 30 31
115 1 31 32
116 1 17 18
117 1 16 17
118 1 15 16
119 1 14 15
120 1 130 131
121 1 64 65
122 1 65 66
123 1 129 130
124 1 128 129
125 1 78 79
126 1 79 80
127 1 80 81
128 1 81 82
129 1 82 83
130 1 83 84
131 1 118 119
132 1 69 70
133 1 68 69
134 1 38 39
135 1 67 68
136 1 66 67
137 1 37 38
138 1 36 37
139 1 117 118
140 1 116 117
141 1 115 116
142 1 86 87
143 1 85 86
144 1 114 115
145 1 84 85
146 1 110 111
147 1 111 112
148 1 112 113
149 1 113 114
150 1 158 159
151 1 35 36
152 1 159 160
153 1 160 161
154 1 87 88
155 1 88 89
156 1 89 90
157 1 90 91
158 1 91 92
159 1 93 94
160 1 92 93

Angles

1 1 100 101 102
2 1 101 102 103
3 1 99 100 101
4 1 133 134 135
5 1 54 55 56
6 1 53 54 55
7 1 142 143 144
8 1 52 53 54
9 1 134 135 136
10 1 135 136 137
11 1 136 137 138
12 1 50 51 52
13 1 51 52 53
14 1 146 147 148
15 1 145 146 147
16 1 144 145 146
17 1 49 50 51
18 1 143 144 145
19 1 147 148 149
20 1 41 42 43
21 1 149 150 151
22 1 42 43 44
23 1 148 149 150
24 1 43 44 45
25 1 44 45 46
26 1 150 151 152
27 1 104 105 106
28 1 5 6 7
29 1 103 104 105
30 1 102 103 104
31 1 4 5 6
32 1 3 4 5
33 1 6 7 8
34 1 7 8 9
35 1 8 9 10
36 1 20 21 22
37 1 98 99 100
38 1 97 98 99
39 1 19 20 21
40 1 96 97 98
41 1 9 10 11
42 1 10 11 12
43 1 26 27 28
44 1 12 13 14
45 1 11 12 13
46 1 28 29 30
47 1 27 28 29
48 1 21 22 23
49 1 22 23 24
50 1 23 24 25
51 1 24 25 26
52 1 25 26 27
53 1 132 133 134
54 1 131 132 133
55 1 58 59 60
56 1 130 131 132
57 1 56 57 58
58 1 55 56 57
59 1 57 58 59
60 1 141 142 143
61 1 139 140 141
62 1 140 141 142
63 1 62 63 64
64 1 59 60 61
65 1 60 61 62
66 1 61 62 63
67 1 126 127 128
68 1 125 126 127
69 1 137 138 139
70 1 138 139 140
71 1 48 49 50
72 1 76 77 78
73 1 75 76 77
74 1 119 120 121
75 1 73 74 75
76 1 74 75 76
77 1 118 119 120
78 1 121 122 123
79 1 122 123 124
80 1 120 121 122
81 1 40 41 42
82 1 39 40 41
83 1 38 39 40
84 1 123 124 125
85 1 124 125 126
86 1 45 46 47
87 1 46 47 48
88 1 151 152 153
89 1 152 153 154
90 1 153 154 155
91 1 47 48 49
92 1 72 73 74
93 1 71 72 73
94 1 70 71 72
95 1 105 106 107
96 1 2 3 4
97 1 1 2 3
98 1 69 70 71
99 1 106 107 108
100 1 107 108 109
101 1 156 157 158
102 1 108 109 110
103 1 155 156 157
104 1 154 155 156
105 1 33 34 35
106 1 32 33 34
107 1 31 32 33
108 1 18 19 20
109 1 17 18 19
110 1 95 96 97
111 1 94 95 96
112 1 93 94 95
113 1 29 30 31
114 1 30 31 32
115 1 16 17 18
116 1 15 16 17
117 1 14 15 16
118 1 13 14 15
119 1 129 130 131
120 1 63 64 65
121 1 64 65 66
122 1 128 129 130
123 1 127 128 129
124 1 77 78 79
125 1 78 79 80
126 1 79 80 81
127 1 80 81 82
128 1 81 82 83
129 1 82 83 84
130 1 117 118 119
131 1 68 69 70
132 1 67 68 69
133 1 37 38 39
134 1 66 67 68
135 1 65 66 67
136 1 36 37 38
137 1 35 36 37
138 1 116 117 118
139 1 115 116 117
140 1 114 115 116
141 1 85 86 87
142 1 84 85 86
143 1 113 114 115
144 1 83 84 85
145 1 109 110 111
146 1 110 111 112
147 1 111 112 113
148 1 112 113 114
149 1 157 158 159
150 1 34 35 36
151 1 158 159 160
152 1 159 160 161
153 1 86 87 88
154 1 87 88 89
155 1 88 89 90
156 1 89 90 91
157 1 90 91 92
158 1 92 93 94
159 1 91 92 93
