LAMMPS data file via write_data, version 29 Aug 2024, timestep = 408000000, units = real

74 atoms
4 atom types
73 bonds
1 bond types
72 angles
1 angle types

-500.6 500.6 xlo xhi
-500.6 500.6 ylo yhi
-500.6 500.6 zlo zhi

Masses

1 329.2
2 305.2
3 345.2
4 306.2

Bond Coeffs # harmonic

1 7.5 5.9

Angle Coeffs # harmonic

1 5 150

Atoms # full

72 1 2 0 -75.0307651853827 -315.07554989736565 -236.7457608341345 0 0 -4
74 1 2 0 -78.64114072921407 -317.6409295193352 -247.16369125949814 0 0 -4
73 1 3 0 -74.87677349516851 -317.1783198091461 -242.53200433978026 0 0 -4
6 1 2 0 -82.28655763754804 -305.53344661196536 -238.96002937359347 0 0 -4
71 1 1 0 -71.57898576277898 -311.35187143490657 -233.70302368839822 0 0 -4
5 1 2 0 -78.2140267143059 -305.50417948603683 -242.92604960309677 0 0 -4
4 1 2 0 -72.49115076776344 -305.5718327988361 -244.92331964791893 0 0 -4
3 1 2 0 -68.44785860730519 -301.3119335888512 -246.09346950880476 0 0 -4
65 1 4 0 -90.51279878622832 -290.50404571097727 -233.74921201049926 0 0 -4
66 1 1 0 -84.82059406056662 -291.1255220441421 -235.49848661157245 0 0 -4
68 1 3 0 -73.98868248691653 -295.50492236565776 -234.68494766249435 0 0 -4
67 1 3 0 -78.93185512547352 -292.5205614707369 -235.9102649217264 0 0 -4
2 1 4 0 -63.69833722160759 -299.0566894837049 -243.22099463991916 0 0 -4
1 1 3 0 -58.70824194188074 -295.9786346952235 -244.35630813238143 0 0 -4
16 1 1 0 -88.53325309206407 -277.81896200837963 -235.0449783192539 0 0 -4
15 1 3 0 -83.59371848936829 -280.9464423826694 -234.70925272009978 0 0 -4
14 1 1 0 -78.42407050245636 -283.6228715987778 -232.7960165955741 0 0 -4
7 1 4 0 -84.29149003728877 -305.48089150951654 -233.31498675506904 0 0 -4
70 1 3 0 -70.13172156547812 -305.71162329534945 -231.9900580020644 0 0 -4
69 1 3 0 -71.44379968428356 -300.28956681440235 -232.43392538545842 0 0 -4
8 1 4 0 -82.84997564111961 -307.0728832898125 -227.6695648527595 0 0 -4
9 1 2 0 -78.48885634157054 -304.7122777894554 -225.24530615958446 0 0 -4
64 1 2 0 -93.59644968759538 -288.5750978950771 -229.32738108558246 0 0 -4
10 1 3 0 -77.74050130607357 -298.80509695850344 -225.00693197427708 0 0 -4
11 1 4 0 -76.49992039739806 -293.66005757109957 -222.06009688573482 0 0 -4
12 1 2 0 -74.18069333952593 -288.4550770497794 -223.70313184727289 0 0 -4
13 1 4 0 -74.36446801579608 -285.209453288757 -228.82788035260432 0 0 -4
17 1 3 0 -92.06973297250494 -274.1923146015341 -232.1533454855111 0 0 -4
18 1 3 0 -93.35167561114785 -270.6638408970782 -227.6692197011698 0 0 -4
63 1 2 0 -93.08947771795829 -284.2922568997071 -224.87566280235808 0 0 -4
19 1 2 0 -93.06260992997154 -269.888288284479 -221.7837807533468 0 0 -4
62 1 2 0 -89.74354340172704 -282.0665306807867 -220.904586048587 0 0 -4
61 1 2 0 -85.48307540141029 -278.64514616435963 -219.01464197345118 0 0 -4
60 1 4 0 -81.18077997951634 -274.28901069081667 -218.76908290765257 0 0 -4
59 1 1 0 -76.43313312400917 -271.577293114751 -216.26907054450652 0 0 -4
20 1 2 0 -90.22045097843257 -266.3594668910037 -218.18678543903212 0 0 -4
55 1 4 0 -74.23288788027016 -252.00886377624911 -221.0939403078078 0 0 -4
56 1 2 0 -74.11994362151151 -257.79086564747104 -219.46355597153126 0 0 -4
54 1 4 0 -74.87393989442879 -245.84474313056222 -221.33672360918055 0 0 -4
53 1 3 0 -75.84571147620808 -240.29869053277912 -219.61215300044668 0 0 -4
52 1 3 0 -74.77947902078965 -235.6745504044245 -216.13088460753062 0 0 -4
28 1 2 0 -62.42539782289535 -241.5814685075567 -218.4213354770418 0 0 -4
29 1 2 0 -63.2769700762965 -237.66743631090662 -223.07899293286488 0 0 -4
30 1 3 0 -67.2565317372191 -235.70099806540125 -227.04643414446065 0 0 -4
33 1 2 0 -76.7678717796319 -223.62536212779062 -220.69068188219472 0 0 -4
32 1 2 0 -73.96557419045432 -226.42964514629043 -224.67072966418758 0 0 -4
31 1 2 0 -70.65619665712144 -230.80008981861957 -226.36060404315518 0 0 -4
42 1 2 0 -81.8829221946204 -202.5642676210586 -219.92889330608995 0 0 -4
43 1 3 0 -76.48882650568058 -203.68867677541374 -222.44858852212658 0 0 -4
44 1 3 0 -70.88026717682149 -205.82376740563788 -221.91737037231908 0 0 -4
45 1 4 0 -65.62579591638045 -206.85416633811843 -219.60304436107646 0 0 -4
46 1 1 0 -61.62882941994258 -211.62779542755942 -219.8540237443786 0 0 -4
41 1 3 0 -85.41740292993445 -199.9718215144481 -215.88674152010432 0 0 -4
21 1 2 0 -87.60885098886583 -265.01682282608436 -213.32308010064332 0 0 -4
22 1 1 0 -85.24981174221756 -260.98472687700763 -209.77661477669076 0 0 -4
23 1 3 0 -82.68749176177997 -255.38708415208154 -208.74341315933748 0 0 -4
24 1 3 0 -78.19296602965598 -252.04192763014174 -207.78694946345598 0 0 -4
58 1 1 0 -74.71741184422024 -267.0302698925559 -213.46630537798399 0 0 -4
57 1 3 0 -74.77081649933008 -261.56533571642643 -214.85712043468016 0 0 -4
25 1 1 0 -72.79484235937439 -250.08498161408667 -208.47407692938026 0 0 -4
26 1 2 0 -68.48267912747815 -246.27089787862883 -209.9629892947484 0 0 -4
27 1 1 0 -63.969726640331146 -244.79348158772578 -213.6287328913841 0 0 -4
35 1 4 0 -71.07580174550941 -218.6537658510148 -211.8593447112607 0 0 -4
34 1 4 0 -75.41917972579938 -221.74613588949924 -214.99582628447075 0 0 -4
51 1 3 0 -70.92778931122939 -232.72785145699535 -212.8603157086543 0 0 -4
50 1 3 0 -66.25129569037236 -229.12406275559988 -213.2213004239586 0 0 -4
49 1 1 0 -62.63109462123745 -225.42762113998782 -211.1636900920607 0 0 -4
48 1 2 0 -60.16949477814505 -220.5853961941162 -213.1091885249933 0 0 -4
38 1 1 0 -71.07537957558458 -202.0843729715889 -210.22347897443726 0 0 -4
37 1 2 0 -69.94029473836697 -207.8036852655888 -210.76656884280717 0 0 -4
36 1 4 0 -71.74438759464343 -213.32345412765432 -210.0858979144446 0 0 -4
47 1 1 0 -59.04820989946682 -215.34677550090032 -216.0018399774949 0 0 -4
40 1 3 0 -81.161109179633 -197.50370582043652 -212.49654910829662 0 0 -4
39 1 2 0 -75.28939116138639 -198.06269551592473 -210.6723345095276 0 0 -4

Velocities

72 0.00030467629267470303 0.00027122600010803105 0.0003356111926609279
74 -8.670719615945602e-05 -0.000633320342631281 -9.255124344252642e-05
73 -0.0004492631886771066 0.001102358382787153 -1.8522331886412104e-05
6 -0.00034057449990780635 5.581511356939976e-05 0.0005675361808730524
71 0.001487123331042046 0.0003396619421297092 0.00015031899532498227
5 -0.0013273734707039751 -0.000998861089972095 -0.0005906358176302874
4 0.0011508775946402437 0.00028064427741951903 9.370992722271445e-05
3 0.0008624598056317768 1.9309850620451413e-05 0.0002755264162521298
65 -0.00012231010820396617 0.00042337245437283573 0.001127690290828228
66 -0.0003526935573343315 -0.0005024282634119632 0.0008758932159377202
68 0.0008379998956238374 -0.00034941267546263326 -0.0008668797885752036
67 7.4953732725143e-05 -0.00045111570441390853 -0.0012075441544402551
2 -0.00035828420159747683 -0.0007792624705238968 -0.0005775095114179057
1 0.0012995124492297492 0.0008700861184591311 0.0002311977632079055
16 -0.0008374601146509981 -0.0001579834212814191 -1.4045260133029953e-05
15 -0.00015492437220070068 0.0008530865681510208 0.0010526920943110321
14 -0.00023028068872188876 0.0018125064494512331 0.0005629595671038634
7 2.524877207034257e-05 0.0005854813266884736 -0.0007166840408546458
70 0.000775174067262672 0.0013288101771123748 0.00020702357066058704
69 -0.0011715457255213363 -0.00034625421945757694 0.0004039008261011656
8 0.000252728456349869 0.0004407117331463504 0.0008627555764119944
9 -0.0004888928317935713 -0.00030879041691400747 -0.0007908019753457639
64 -0.0008173241371655307 0.00042327580424241407 -0.0010826404798055054
10 -0.0003709879168793741 -0.0005072090119349949 6.294287413743275e-05
11 -0.00169857012856591 0.0005050321609381326 -0.001447068329380503
12 0.0005082559486048456 -0.00048381240176614555 -0.000281911419416493
13 0.0003129046803288302 0.00013038776651816978 0.0014459925972552144
17 -0.0005127060259104254 0.000739175296981118 0.00041790259836727733
18 7.202110022522383e-05 0.001096553169977457 -0.0004218457545674122
63 -0.00020524531595717178 4.249447568879722e-05 0.00035189952519068475
19 -0.0003303453763748993 -0.0018126074890032606 0.0010783316363450347
62 -0.0008028058637134052 -0.00016115363206812365 0.0003887699798837238
61 0.0008052824104436189 -0.0005570670951440782 0.0014140900216843611
60 -0.0010906001468858051 -0.001524366423645776 0.0010082944816550983
59 0.0003045989188866805 0.0005629752041974798 0.0008767161423375
20 0.0008037656427261183 0.00023026085534222306 0.0006971669035163174
55 0.0007241074715204726 0.0007546127139201034 0.0009492688220317977
56 8.697929117329336e-05 0.00041523056740880526 0.001171839350024501
54 0.0007314590507701627 -0.000980006482202846 0.001155315475728652
53 -0.000260463513630163 0.0014308893260651556 0.0015690656823744713
52 -0.00040179388840581946 -0.0007097140489068869 1.1379766101011211e-05
28 0.00019255478951952064 -0.0005309130319998361 0.0011392797237784274
29 -0.0006549451324982157 0.0009522996103751265 -0.0010774249006227003
30 7.869289813405153e-05 0.0007077906522213898 -0.0005172485870265937
33 -0.002487076546409034 0.0019973934746653323 -0.00026999038541249793
32 0.0008705846585847306 -0.00022301467708842935 -0.00038077320385104335
31 -0.0006943145580004926 -0.00037584858207893114 -0.00011034371371923874
42 -4.862874291749841e-06 -0.00024494680225845385 0.0007633318051083514
43 -5.8266791563590364e-05 0.0013924507359058267 0.00038927237023970377
44 -0.00033068426420654616 0.0009249253804357709 0.0006963007247749156
45 0.0012948335765429514 0.0006582811776021474 -0.0005296790314986605
46 -0.00040532822480734705 -0.0012099191478783318 0.0002046580608738486
41 0.0006244287482220259 -0.0012036898243633584 0.0009622669200097297
21 0.0009332167044202328 -0.0010188708478687167 -0.0008056835493068447
22 -6.608398893401204e-05 -0.0005491766541700743 4.8700121450313156e-05
23 -0.00040935762625002087 0.00022465512010600471 -0.0010933740746391727
24 0.0015315123464396487 -0.0003733242259657284 0.0006217127092226403
58 -0.00020117054138692577 0.001158934873090769 -0.0003008563544700683
57 -1.533125188836485e-05 2.7473435518597825e-05 -0.000580876213863624
25 0.0008839708032718713 -0.0008024328897964765 0.00037833753632258955
26 2.7914326834964045e-05 -0.0017682525022968334 -0.001304768081666458
27 0.0011491702533225668 0.0011728455720570058 -0.00114981042375912
35 0.0005915806844587032 0.0015716920075087189 -0.00025562793508727326
34 -0.001226643284371504 -0.0003521645317245141 -0.0006302280536648565
51 0.001117841825315301 -6.76409402183192e-05 -5.261601895512434e-05
50 -0.0008368456902377253 -0.0003777229622912073 4.7599589145222885e-05
49 -0.001067783590233312 0.00039377649811772554 0.00017529559993696763
48 0.002495298236574063 -0.0005712594627069282 0.0007582358475958471
38 0.00020321929016769782 0.00014182013058473283 0.0005372313198470267
37 -0.0004983950705166053 0.001242947318883514 -0.0015125898896782065
36 0.0007687557725247185 4.8720730711494236e-05 0.0007650701928758741
47 0.00090039969085259 -0.0004151156065591645 0.0003794192455701445
40 -0.0002339736307170602 0.0003081642340869892 -0.0006455686841523909
39 0.0006623432417759874 -6.448364688192162e-05 0.0016432161735559921

Bonds

1 1 72 73
2 1 73 74
3 1 6 7
4 1 71 72
5 1 5 6
6 1 4 5
7 1 3 4
8 1 65 66
9 1 66 67
10 1 68 69
11 1 67 68
12 1 2 3
13 1 1 2
14 1 16 17
15 1 15 16
16 1 14 15
17 1 7 8
18 1 70 71
19 1 69 70
20 1 8 9
21 1 9 10
22 1 64 65
23 1 10 11
24 1 11 12
25 1 12 13
26 1 13 14
27 1 17 18
28 1 18 19
29 1 63 64
30 1 19 20
31 1 62 63
32 1 61 62
33 1 60 61
34 1 59 60
35 1 20 21
36 1 55 56
37 1 56 57
38 1 54 55
39 1 53 54
40 1 52 53
41 1 28 29
42 1 29 30
43 1 30 31
44 1 33 34
45 1 32 33
46 1 31 32
47 1 42 43
48 1 43 44
49 1 44 45
50 1 45 46
51 1 46 47
52 1 41 42
53 1 21 22
54 1 22 23
55 1 23 24
56 1 24 25
57 1 58 59
58 1 57 58
59 1 25 26
60 1 26 27
61 1 27 28
62 1 35 36
63 1 34 35
64 1 51 52
65 1 50 51
66 1 49 50
67 1 48 49
68 1 38 39
69 1 37 38
70 1 36 37
71 1 47 48
72 1 40 41
73 1 39 40

Angles

1 1 71 72 73
2 1 72 73 74
3 1 5 6 7
4 1 70 71 72
5 1 4 5 6
6 1 3 4 5
7 1 2 3 4
8 1 64 65 66
9 1 65 66 67
10 1 67 68 69
11 1 66 67 68
12 1 1 2 3
13 1 15 16 17
14 1 14 15 16
15 1 13 14 15
16 1 6 7 8
17 1 69 70 71
18 1 68 69 70
19 1 7 8 9
20 1 8 9 10
21 1 63 64 65
22 1 9 10 11
23 1 10 11 12
24 1 11 12 13
25 1 12 13 14
26 1 16 17 18
27 1 17 18 19
28 1 62 63 64
29 1 18 19 20
30 1 61 62 63
31 1 60 61 62
32 1 59 60 61
33 1 58 59 60
34 1 19 20 21
35 1 54 55 56
36 1 55 56 57
37 1 53 54 55
38 1 52 53 54
39 1 51 52 53
40 1 27 28 29
41 1 28 29 30
42 1 29 30 31
43 1 32 33 34
44 1 31 32 33
45 1 30 31 32
46 1 41 42 43
47 1 42 43 44
48 1 43 44 45
49 1 44 45 46
50 1 45 46 47
51 1 40 41 42
52 1 20 21 22
53 1 21 22 23
54 1 22 23 24
55 1 23 24 25
56 1 57 58 59
57 1 56 57 58
58 1 24 25 26
59 1 25 26 27
60 1 26 27 28
61 1 34 35 36
62 1 33 34 35
63 1 50 51 52
64 1 49 50 51
65 1 48 49 50
66 1 47 48 49
67 1 37 38 39
68 1 36 37 38
69 1 35 36 37
70 1 46 47 48
71 1 39 40 41
72 1 38 39 40
