LAMMPS data file via write_data, version 29 Aug 2024, timestep = 408000000, units = real

95 atoms
4 atom types
94 bonds
1 bond types
93 angles
1 angle types

-500.6 500.6 xlo xhi
-500.6 500.6 ylo yhi
-500.6 500.6 zlo zhi

Masses

1 329.2
2 305.2
3 345.2
4 306.2

Bond Coeffs # harmonic

1 7.5 5.9

Angle Coeffs # harmonic

1 5 150

Atoms # full

76 1 1 0 -202.90318262860018 327.79285928651126 -53.14324996219817 1 0 -3
78 1 4 0 -199.39541166885317 320.33946386716866 -59.769370842111606 1 0 -3
77 1 1 0 -202.94556742545927 324.7031153010105 -58.30263396045708 1 0 -3
80 1 2 0 -190.20240609580753 316.8007846640107 -54.71156785259677 1 0 -3
79 1 1 0 -193.7717786280945 318.10259980617036 -59.02291039007327 1 0 -3
81 1 4 0 -188.12068433292143 311.93627980709124 -51.844752071562816 1 0 -3
68 1 1 0 -191.37501031339013 300.89212585448297 -31.791352378217113 1 0 -3
69 1 1 0 -194.66478652142905 300.8322603093421 -36.65758438951922 1 0 -3
72 1 3 0 -197.11857703987604 315.9113644397363 -42.524728088348944 1 0 -3
73 1 4 0 -194.52836648646604 321.57489309322034 -42.262087907498625 1 0 -3
71 1 1 0 -198.77111359122836 310.3263181588947 -42.314062360861456 1 0 -3
70 1 2 0 -197.77310379416852 304.9318563581385 -39.805623312471894 1 0 -3
85 1 2 0 -188.65787561896008 316.2943316821869 -32.56472383733483 1 0 -3
75 1 1 0 -199.85230686600272 330.182040305047 -48.70907209359728 1 0 -3
74 1 3 0 -197.0010165969701 326.66995953691816 -44.5423709936281 1 0 -3
83 1 2 0 -183.33774677041373 313.3617446933892 -41.90374595625775 1 0 -3
82 1 1 0 -184.56560835595613 310.9013488804667 -47.25525672558091 1 0 -3
84 1 2 0 -184.57478453855393 315.2769527495639 -36.80425357716271 1 0 -3
67 1 2 0 -187.58803432767985 301.5125332240367 -27.606030915308935 1 0 -3
86 1 3 0 -191.83737489290567 314.845626384769 -27.782022805445695 1 0 -3
87 1 4 0 -192.0933155346632 314.2407188212026 -22.29424820357213 1 0 -3
88 1 2 0 -189.82235479505067 312.4506211757657 -17.265308442233945 1 0 -3
66 1 4 0 -182.4578556289374 303.98849868143867 -25.66855947620861 1 0 -3
65 1 3 0 -179.40200380976677 309.2574504905554 -26.483711151799916 1 0 -3
64 1 1 0 -178.3295960776 314.8595383715302 -26.409007247347883 1 0 -3
89 1 3 0 -185.16940902997024 314.6698506475622 -14.842395272813777 1 0 -3
90 1 3 0 -179.7208935616861 315.5040161511123 -13.673744309692765 1 0 -3
91 1 4 0 -175.7470649335601 319.4993546957404 -12.256803188340136 1 0 -3
63 1 3 0 -179.27691942887031 319.74463628767705 -23.142956741902612 1 0 -3
61 1 2 0 -183.2586004717161 328.14048035285833 -18.901378248931255 1 0 -3
60 1 1 0 -188.6735075403756 329.76402857524283 -16.852087392983744 1 0 -3
62 1 2 0 -180.36746999879216 325.12922251001834 -22.763713211661877 1 0 -3
92 1 3 0 -170.06618574161328 321.18623961733863 -12.803243310944959 1 0 -3
94 1 2 0 -160.68184109352293 327.1714402177401 -12.684725182370123 1 0 -3
6 1 3 0 -195.49102831150668 346.85275460621534 -16.166760274011008 1 0 -3
59 1 2 0 -191.21024311886694 333.04237832761453 -12.289648939757535 1 0 -3
5 1 2 0 -190.03344096549534 345.42628437140274 -17.676331778800293 1 0 -3
4 1 4 0 -187.28223157158777 340.45449443586733 -17.762606305002244 1 0 -3
3 1 3 0 -181.6406788950444 338.2036127182738 -17.114469498374614 1 0 -3
95 1 2 0 -158.11062312881361 332.44357401576565 -12.950439159515536 1 0 -3
7 1 2 0 -199.01102711238676 345.7062895347389 -11.664934582622864 1 0 -3
1 1 3 0 -175.3571528278273 330.708283685213 -11.029200072387415 1 0 -3
93 1 1 0 -164.50626818829568 323.0196400535115 -14.391775899263894 1 0 -3
58 1 2 0 -191.83132452560014 336.8765738820307 -7.765092316928517 1 0 -3
57 1 3 0 -188.97538227410357 341.19233134842506 -4.414810902888343 1 0 -3
56 1 3 0 -188.32840861584648 346.93221498300716 -3.187809441131646 1 0 -3
2 1 3 0 -177.720036358316 336.01624561664556 -13.10210848041329 1 0 -3
8 1 2 0 -199.78967645549915 348.36440551924255 -6.441396122186385 1 0 -3
9 1 3 0 -198.14990688773014 352.4675759690182 -2.9455889646104074 1 0 -3
10 1 1 0 -194.58602021210876 357.01584765783315 -1.1673270851486384 1 0 -3
11 1 4 0 -189.69814272249528 359.4443394190712 0.6974633587550103 1 0 -3
55 1 3 0 -186.72666951636376 352.13874044907794 -5.161856148708571 1 0 -3
52 1 1 0 -188.50357856627008 367.4172198708795 -10.41082908765655 1 0 -3
53 1 3 0 -185.289375632214 362.4502152541621 -9.6581736699126 1 0 -3
54 1 2 0 -185.72335973446562 356.7129785835748 -8.450208696880987 1 0 -3
51 1 4 0 -188.94543910057968 373.2503477442296 -9.73968776435502 1 0 -3
50 1 2 0 -190.62360771408962 378.512042484832 -8.564199442764341 1 0 -3
49 1 3 0 -193.40956670722616 382.0484547318995 -4.669941316475207 1 0 -3
15 1 2 0 -180.63596756414293 377.4857427519968 -3.1261627308380415 1 0 -3
16 1 1 0 -180.7948101376492 382.4312798488568 -5.290838462634176 1 0 -3
20 1 4 0 -194.41706921228334 400.4821535352626 -10.198530002494154 1 0 -3
17 1 3 0 -185.05108340932534 386.1036546736308 -6.6776694495822175 1 0 -3
18 1 2 0 -189.00761580399418 390.38837106454514 -7.399159704037997 1 0 -3
48 1 2 0 -197.0955764836258 383.4526353581502 0.06251049270544758 1 0 -3
47 1 3 0 -196.77141269298627 387.6314608421971 4.0900990153964925 1 0 -3
19 1 1 0 -191.1109278968986 395.1411069583542 -10.440582399560137 1 0 -3
21 1 1 0 -196.2339567702328 405.69195143225926 -8.105862384510704 1 0 -3
23 1 3 0 -193.41673126079414 405.60675095891605 1.9083451685329702 1 0 -3
22 1 3 0 -195.42530511285415 407.7271865548448 -3.03683510300273 1 0 -3
12 1 3 0 -188.45781178947172 364.84505961193884 2.7409165844614467 1 0 -3
13 1 4 0 -183.08442748614328 367.35521823397295 2.0092593660492133 1 0 -3
14 1 3 0 -181.20045926029786 372.6638902208503 -0.09612369057155241 1 0 -3
46 1 2 0 -193.25671286772098 392.4668251292998 4.837553232585785 1 0 -3
45 1 2 0 -187.63594453804998 393.2887685539143 4.3583653005199485 1 0 -3
26 1 3 0 -190.89163214868074 399.71214211286815 16.094471173360873 1 0 -3
27 1 3 0 -189.18941084344965 394.1692577757093 14.918934934048302 1 0 -3
44 1 2 0 -183.3993008014104 396.37274344813284 2.7011357357670533 1 0 -3
28 1 1 0 -183.77988295216662 391.9240623811049 14.71645023133937 1 0 -3
29 1 3 0 -178.33936227619625 392.55685970339493 15.68641675025523 1 0 -3
30 1 1 0 -172.88970378197502 394.7276880358905 14.008441297990188 1 0 -3
25 1 1 0 -192.39027953317938 404.40111209791166 12.897957993760679 1 0 -3
24 1 4 0 -191.17645596447156 406.14175870402545 7.214645600051728 1 0 -3
43 1 1 0 -178.60777892275084 400.05594020398996 2.388425456054592 1 0 -3
42 1 4 0 -177.01610264372033 405.7377427131098 2.8483852494560584 1 0 -3
41 1 3 0 -178.35493126059364 410.7153794208538 6.313510882524766 1 0 -3
40 1 3 0 -176.64272752449568 416.4075700173243 6.454442639287841 1 0 -3
39 1 1 0 -172.57970319193876 420.19675430073835 8.387483219318012 1 0 -3
38 1 2 0 -168.2690718000422 423.1044724757292 5.389097058760879 1 0 -3
37 1 1 0 -162.94848208203604 424.383630038997 7.411958262492801 1 0 -3
36 1 2 0 -161.3224207534855 421.8000463081493 12.13767436404058 1 0 -3
31 1 2 0 -170.71302895048422 399.8238514739207 11.68285313868132 1 0 -3
34 1 4 0 -159.6137123878569 411.8743025350415 12.988867910541387 1 0 -3
33 1 2 0 -163.28841592818867 407.19435700328836 12.9439360748851 1 0 -3
32 1 1 0 -168.19351634933915 404.68982029135856 14.224177906698024 1 0 -3
35 1 1 0 -159.13874545843328 417.33203474965603 15.334804076874914 1 0 -3

Velocities

76 -0.0011326047184072115 0.0008056390302209931 -0.0011739725128946338
78 -0.0007998336005009348 -0.0004060117622322451 0.0009381693303676441
77 -0.0016636833581229126 0.0010670254105480928 0.0006128557065733795
80 -6.975050293084855e-05 -0.0015753954547828599 0.0008597769536658659
79 0.0007307011059763748 -0.000516748230494702 0.0004800034424982465
81 -0.0006959202944609147 -0.0020967515167307233 0.00035525941190724195
68 0.000490994394623034 -0.0002302602002944257 -0.0005372707452337519
69 -0.0011822111735164298 0.0001291910377691806 0.0010913304764588931
72 0.0001548545217841827 0.0007332222735506684 -0.0006604689159056654
73 0.00035271911113425174 1.4571641345099796e-05 -0.0005387141344185018
71 -0.001191450832311718 0.0012073614924796895 0.0019299921273364738
70 0.0006785405415401678 0.0009256097235752187 0.0012118267590029228
85 0.0002500527199694669 -0.0001015422005037319 6.379321704358271e-05
75 -0.0007804264078406063 -0.00045593314476709127 -4.015487971164104e-05
74 -0.00010011165679182052 -8.371198838073571e-06 0.0012564513095597218
83 -0.0006779604970791715 -0.0007343661389041986 0.00042472862669500685
82 -4.057589167938688e-05 0.001055479444279976 -0.00016095135872950408
84 -0.0013699121910481036 0.000871137341485505 0.0012120623424359922
67 -0.00044592530695355205 -0.00014716389163499765 2.766578852480303e-05
86 -0.0001020725939977437 -0.001199724636494093 0.00011874987883756563
87 -0.0008144276677482843 -0.00038220550289117336 -0.0002382334138139396
88 -0.0008400317260859558 0.0019697206250058347 -0.0014285215042260445
66 -0.0013592115797569158 -0.000553908776286288 0.00035612684480205455
65 -0.001599215159861143 -0.0010595661773798216 0.0009340844256343338
64 0.0012969296235185663 -0.00022067838663690967 -0.00029907288891087107
89 -2.255246581254126e-05 0.0010391560103487692 -0.00030710271616192394
90 0.00011588480851234182 0.0003369666536398463 0.000853516268536058
91 -0.001188246131288881 0.0011297198177750549 -0.00023534400267454428
63 -0.0016136375656965955 0.0008245362781266111 0.0015043261737812113
61 -0.000909400986909077 0.0017772909381504652 0.0004514853220011918
60 0.0012375987598766815 -0.0003927661349643524 -0.0008640711444809067
62 -0.0003990892192551923 -0.0007149368527824143 0.0008175637040850098
92 0.0006634902768868407 0.000864507140908346 -0.0003429444725699583
94 0.0010435526026590367 0.00015178147083468616 0.000954911592352374
6 -0.0007828641901101326 0.0009422706938703546 -0.0010103488563649003
59 -0.0015523466510157964 -0.0019865432591838674 0.001085437454986996
5 -0.0007282453792195721 0.0011990655558333496 0.0004204837085392304
4 -0.0017708726108350962 0.0006882349575113301 0.0005076057339245074
3 -0.001566944482363142 -0.0006489848435222631 0.000971392314853742
95 2.0188541203966622e-05 -4.231435056205897e-05 0.0005227908965032478
7 -0.0014039872091988431 -0.001159212904937378 0.0001239028335245519
1 -0.0009482598991536438 0.00029656119351759863 -0.0003177789984155456
93 -0.0021356526486308505 -0.0006618663807435064 -0.00020537124253348248
58 0.0013761529984926673 0.0013217998457850902 0.0007605376983335253
57 0.0006999891871485418 0.0006261236303288359 0.000991567365791195
56 -0.00044850695296293235 0.0011513709969937968 -0.00032487210310438845
2 -0.0005355448006208509 -0.0005651815666132711 0.00027222144196728065
8 -0.0009379242513240499 -0.0011912266599189054 0.0017341053931932708
9 0.0008466643995549082 -0.000429819602555314 0.00016239298844334012
10 0.0002376267054231497 0.000254486941019352 0.0015108322900352531
11 0.000729920917415827 0.0001246315068982545 0.0004746060127842254
55 -0.0007930711323680922 0.0007670480507339789 0.00043172043345256574
52 -0.0010001900118864998 -0.0025110738100911157 0.0004236238594171233
53 -0.0007661450911493803 -0.0005736172933879011 -0.0012457695539233704
54 -0.0003432803003289617 -0.00023182636731866222 -0.00030621807421322327
51 0.0009592525023658835 -0.001803882767991721 0.0011164718443070097
50 -0.00047562422296304165 0.0008469631967080773 5.4082912830599075e-05
49 0.0011489223043420441 -0.0009055787121281796 -0.001536168054436598
15 4.242456931996318e-05 0.0011816311393611852 0.0007129369008325696
16 0.0007292496351952729 0.00029337004964747476 0.00032005667283391146
20 -0.00020901985068113877 -0.0015109362499247721 0.0008408080729069272
17 -0.0002849634095890953 0.0019347168511262525 -0.00032426454516775127
18 -0.00039243108062531827 -1.6945725258017126e-05 0.0004294359341533858
48 -0.0008872017654457469 0.001166498526687946 -0.0005223981446041549
47 -0.00040881976109705375 0.0004390972125709996 0.0011015588857794414
19 0.000266750184412449 4.678929275285215e-05 0.0009780175208196757
21 -3.912406651199905e-05 0.0005976319014047749 0.0007192942893934205
23 -0.0017296691275556781 0.0005359300791008894 -0.0011688922461164728
22 0.001015078770098956 0.0005003105127804857 -0.0002191197334554516
12 0.0003431119323144608 -0.0009120193773166104 -0.0006595182933748313
13 -0.0007095216008651998 -0.0014530899578521536 0.000965598261211495
14 -0.00017497868538969826 0.0015782775915514139 -0.0005790307109703163
46 0.00025084947163538763 -0.00024181210450952378 0.0004572767730538464
45 -0.0006979311245827952 -0.0009927418127495867 0.00025506832610938803
26 -0.00039859882212782297 0.0004569294093797576 0.0006567072546301012
27 -0.00045791145771562216 0.0004876612319264602 -0.00022352896709527522
44 -0.0007212974712204128 0.0002406979156453273 0.0007217259054597491
28 0.00026699644786045904 -0.0003357042909443502 -0.0010777750485781092
29 -0.0004924371862266659 -9.049951411921447e-05 -0.0005440262651342331
30 0.00148372386416428 -3.036981459597148e-05 0.0008813267678103292
25 -7.879918957164736e-05 0.00033357301721084894 -8.948824969302592e-05
24 -0.00015883242004301217 -4.374518539125578e-05 0.002825304651800006
43 -0.0003192503540297508 0.00011737964097945859 0.0010162321433478355
42 0.0002027478582231513 0.0005094467019543914 -0.0016005881630687536
41 0.0008951400223850386 0.001288182321879382 -0.001553530850691358
40 -0.000923196735770075 -0.0018158614846456936 0.0005395749474776596
39 0.0007822464938265563 0.0004231130578743255 -0.000532842006803068
38 0.0007976821562390066 -0.0005647859470337249 -0.0002691386069108654
37 0.0010338062098522581 -0.00143066623671387 -0.0002653988558505307
36 0.0012305924753484617 0.0007589291770791878 0.0010550872862497747
31 0.00022444752069314188 -0.001064658701733793 0.0008164198417088876
34 -0.0007408064309212937 0.0011323857038990214 0.0005466615252448986
33 -0.00043279221197255484 0.0006960806704186278 -0.0004718773029567241
32 -0.001529687901958116 -0.00031498113455406026 -0.002306123936585545
35 0.0006650290946497684 -0.00035992053465250647 -0.0017936531595167332

Bonds

1 1 76 77
2 1 78 79
3 1 77 78
4 1 80 81
5 1 79 80
6 1 81 82
7 1 68 69
8 1 69 70
9 1 72 73
10 1 73 74
11 1 71 72
12 1 70 71
13 1 85 86
14 1 75 76
15 1 74 75
16 1 83 84
17 1 82 83
18 1 84 85
19 1 67 68
20 1 86 87
21 1 87 88
22 1 88 89
23 1 66 67
24 1 65 66
25 1 64 65
26 1 89 90
27 1 90 91
28 1 91 92
29 1 63 64
30 1 61 62
31 1 60 61
32 1 62 63
33 1 92 93
34 1 94 95
35 1 6 7
36 1 59 60
37 1 5 6
38 1 4 5
39 1 3 4
40 1 7 8
41 1 1 2
42 1 93 94
43 1 58 59
44 1 57 58
45 1 56 57
46 1 2 3
47 1 8 9
48 1 9 10
49 1 10 11
50 1 11 12
51 1 55 56
52 1 52 53
53 1 53 54
54 1 54 55
55 1 51 52
56 1 50 51
57 1 49 50
58 1 15 16
59 1 16 17
60 1 20 21
61 1 17 18
62 1 18 19
63 1 48 49
64 1 47 48
65 1 19 20
66 1 21 22
67 1 23 24
68 1 22 23
69 1 12 13
70 1 13 14
71 1 14 15
72 1 46 47
73 1 45 46
74 1 26 27
75 1 27 28
76 1 44 45
77 1 28 29
78 1 29 30
79 1 30 31
80 1 25 26
81 1 24 25
82 1 43 44
83 1 42 43
84 1 41 42
85 1 40 41
86 1 39 40
87 1 38 39
88 1 37 38
89 1 36 37
90 1 31 32
91 1 34 35
92 1 33 34
93 1 32 33
94 1 35 36

Angles

1 1 75 76 77
2 1 77 78 79
3 1 76 77 78
4 1 79 80 81
5 1 78 79 80
6 1 80 81 82
7 1 67 68 69
8 1 68 69 70
9 1 71 72 73
10 1 72 73 74
11 1 70 71 72
12 1 69 70 71
13 1 84 85 86
14 1 74 75 76
15 1 73 74 75
16 1 82 83 84
17 1 81 82 83
18 1 83 84 85
19 1 66 67 68
20 1 85 86 87
21 1 86 87 88
22 1 87 88 89
23 1 65 66 67
24 1 64 65 66
25 1 63 64 65
26 1 88 89 90
27 1 89 90 91
28 1 90 91 92
29 1 62 63 64
30 1 60 61 62
31 1 59 60 61
32 1 61 62 63
33 1 91 92 93
34 1 93 94 95
35 1 5 6 7
36 1 58 59 60
37 1 4 5 6
38 1 3 4 5
39 1 2 3 4
40 1 6 7 8
41 1 92 93 94
42 1 57 58 59
43 1 56 57 58
44 1 55 56 57
45 1 1 2 3
46 1 7 8 9
47 1 8 9 10
48 1 9 10 11
49 1 10 11 12
50 1 54 55 56
51 1 51 52 53
52 1 52 53 54
53 1 53 54 55
54 1 50 51 52
55 1 49 50 51
56 1 48 49 50
57 1 14 15 16
58 1 15 16 17
59 1 19 20 21
60 1 16 17 18
61 1 17 18 19
62 1 47 48 49
63 1 46 47 48
64 1 18 19 20
65 1 20 21 22
66 1 22 23 24
67 1 21 22 23
68 1 11 12 13
69 1 12 13 14
70 1 13 14 15
71 1 45 46 47
72 1 44 45 46
73 1 25 26 27
74 1 26 27 28
75 1 43 44 45
76 1 27 28 29
77 1 28 29 30
78 1 29 30 31
79 1 24 25 26
80 1 23 24 25
81 1 42 43 44
82 1 41 42 43
83 1 40 41 42
84 1 39 40 41
85 1 38 39 40
86 1 37 38 39
87 1 36 37 38
88 1 35 36 37
89 1 30 31 32
90 1 33 34 35
91 1 32 33 34
92 1 31 32 33
93 1 34 35 36
