
# ===============================
# FORCE FIELD
# ===============================
bond_style harmonic
bond_coeff 1 7.5 5.9

angle_style harmonic
angle_coeff 1 5.0 150.0

pair_style hybrid/overlay lj/cut 10.0 base/rna 18.0
pair_modify shift yes
pair_coeff * * lj/cut 2.0 8.9089871814

# Base-pair interactions
pair_coeff 1 1 base/rna 0.00000 3.0 13.8 1.5 0.5 1.8326 0.9425 1.8326 1.1345
pair_coeff 1 2 base/rna 0.00000 3.0 13.8 1.5 0.5 1.8326 0.9425 1.8326 1.1345
pair_coeff 1 3 base/rna 0.00000 3.0 13.8 1.5 0.5 1.8326 0.9425 1.8326 1.1345
pair_coeff 1 4 base/rna 3.33333 3.0 13.8 1.5 0.5 1.8326 0.9425 1.8326 1.1345
pair_coeff 2 2 base/rna 0.00000 3.0 13.8 1.5 0.5 1.8326 0.9425 1.8326 1.1345
pair_coeff 2 3 base/rna 5.00000 3.0 13.8 1.5 0.5 1.8326 0.9425 1.8326 1.1345
pair_coeff 2 4 base/rna 0.00000 3.0 13.8 1.5 0.5 1.8326 0.9425 1.8326 1.1345
pair_coeff 3 3 base/rna 0.00000 3.0 13.8 1.5 0.5 1.8326 0.9425 1.8326 1.1345
pair_coeff 3 4 base/rna 3.33333 3.0 13.8 1.5 0.5 1.8326 0.9425 1.8326 1.1345
pair_coeff 4 4 base/rna 0.00000 3.0 13.8 1.5 0.5 1.8326 0.9425 1.8326 1.1345

special_bonds lj 0.0 0.0 1.0
Finding 1-2 1-3 1-4 neighbors ...
  special bond factors lj:    0        0        1       
  special bond factors coul:  0        0        0       
     2 = max # of 1-2 neighbors
     2 = max # of 1-3 neighbors
     4 = max # of 1-4 neighbors
     6 = max # of special neighbors
  special bonds CPU = 0.000 seconds
neighbor 15.0 bin
neigh_modify every 10 delay 0
comm_style tiled
timestep 10

# ===============================
# DUMPS
# ===============================
dump d1 all custom ${dump_stride} outputs/${tag}.lammpstrj id mol type q xu yu zu
dump d1 all custom 50000 outputs/${tag}.lammpstrj id mol type q xu yu zu
dump d1 all custom 50000 outputs/config_5_5ML7_A.dat.lammpstrj id mol type q xu yu zu
dump_modify d1 sort id

# ===============================
# THERMO
# ===============================
thermo_style custom step pe ke temp
thermo ${thermo_stride}
thermo 10000
thermo_modify flush yes

variable vpe equal pe
variable vke equal ke
variable vT  equal temp

fix fa all ave/time ${thermo_stride} 10 ${stride10} v_vpe v_vke v_vT file outputs/thermo_${tag}_averaged.dat
fix fa all ave/time 10000 10 ${stride10} v_vpe v_vke v_vT file outputs/thermo_${tag}_averaged.dat
fix fa all ave/time 10000 10 100000 v_vpe v_vke v_vT file outputs/thermo_${tag}_averaged.dat
fix fa all ave/time 10000 10 100000 v_vpe v_vke v_vT file outputs/thermo_config_5_5ML7_A.dat_averaged.dat

# ===============================
# EQUILIBRATION (40 ns)
# ===============================
fix fxnve all nve
variable seed0 equal 43001
fix fxl all langevin ${T_eq} ${T_eq} 100000.0 ${seed0}
fix fxl all langevin 298 ${T_eq} 100000.0 ${seed0}
fix fxl all langevin 298 298 100000.0 ${seed0}
fix fxl all langevin 298 298 100000.0 43001

run ${n_eq}
run 4000000

CITE-CITE-CITE-CITE-CITE-CITE-CITE-CITE-CITE-CITE-CITE-CITE-CITE

Your simulation uses code contributions which should be cited:

- Type Label Framework: https://doi.org/10.1021/acs.jpcb.3c08419

@Article{Gissinger24,
 author = {Jacob R. Gissinger, Ilia Nikiforov, Yaser Afshar, Brendon Waters, Moon-ki Choi, Daniel S. Karls, Alexander Stukowski, Wonpil Im, Hendrik Heinz, Axel Kohlmeyer, and Ellad B. Tadmor},
 title = {Type Label Framework for Bonded Force Fields in LAMMPS},
 journal = {J. Phys. Chem. B},
 year =    2024,
 volume =  128,
 number =  13,
 pages =   {3282–-3297}
}

CITE-CITE-CITE-CITE-CITE-CITE-CITE-CITE-CITE-CITE-CITE-CITE-CITE

Generated 0 of 6 mixed pair_coeff terms from geometric mixing rule
Neighbor list info ...
  update: every = 10 steps, delay = 0 steps, check = yes
  max neighbors/atom: 2000, page size: 100000
  master list distance cutoff = 33
  ghost atom cutoff = 33
  binsize = 16.5, bins = 61 61 61
  2 neighbor lists, perpetual/occasional/extra = 2 0 0
  (1) pair lj/cut, perpetual, trim from (2)
      attributes: half, newton on, cut 25
      pair build: trim
      stencil: none
      bin: none
  (2) pair base/rna, perpetual
      attributes: half, newton on
      pair build: half/bin/newton
      stencil: half/bin/3d
      bin: standard
Per MPI rank memory allocation (min/avg/max) = 8.37 | 8.37 | 8.37 Mbytes
   Step         PotEng         KinEng          Temp     
         0   127.48239      0              0            
     10000   54.83334       82.309621      293.75715    
     20000   47.800756      84.57558       301.8442     
     30000   49.058786      89.617784      319.83946    
     40000   50.625134      81.353744      290.34569    
     50000   45.950847      76.456659      272.86835    
     60000   27.265001      86.852882      309.97172    
     70000   30.675775      78.867287      281.47171    
     80000   22.358013      94.985007      338.9947     
     90000   31.211451      84.062255      300.01218    
    100000   16.281679      96.569341      344.64907    
    110000   7.377139       89.951555      321.03066    
    120000  -10.05028       89.492097      319.39089    
    130000   6.0068521      75.586704      269.76354    
    140000  -20.408858      88.69193       316.53516    
    150000  -11.834462      82.560972      294.6542     
    160000  -6.2512469      94.452227      337.09324    
    170000  -14.590404      92.899186      331.55055    
    180000  -7.2976249      66.350401      236.79984    
    190000  -24.522258      93.468855      333.58366    
    200000  -18.81451       93.90166       335.12831    
    210000  -12.866961      79.979772      285.44209    
    220000  -10.075093      77.68706       277.25956    
    230000  -24.334684      82.972252      296.12203    
    240000  -28.213473      91.208939      325.51818    
    250000  -24.376964      76.893684      274.42806    
    260000  -25.716539      76.294047      272.288      
    270000  -33.582008      81.040848      289.22899    
    280000  -34.074692      73.431053      262.07018    
    290000  -47.980144      81.958847      292.50526    
    300000  -33.667397      86.671949      309.32599    
    310000  -29.300679      83.599848      298.36188    
    320000  -27.929598      93.535456      333.82135    
    330000  -40.346501      87.501525      312.28668    
    340000  -30.786893      91.15983       325.34291    
    350000  -2.146934       81.802116      291.9459     
    360000  -34.202541      89.958593      321.05578    
    370000  -35.242866      99.729358      355.92695    
    380000  -17.659336      79.367374      283.25648    
    390000  -23.689898      80.630622      287.76492    
    400000  -31.655566      77.532903      276.70939    
    410000  -37.474832      77.132498      275.28037    
    420000  -38.656298      82.086595      292.96119    
    430000  -52.626699      80.203234      286.23961    
    440000  -49.263544      86.277417      307.91793    
    450000  -44.436218      84.119769      300.21744    
    460000  -50.561506      82.858032      295.71439    
    470000  -62.735772      92.356897      329.61516    
    480000  -48.904045      76.289871      272.27309    
    490000  -31.740039      84.748703      302.46206    
    500000  -38.764316      106.16295      378.88797    
    510000  -33.966013      93.967705      335.36402    
    520000  -35.420431      84.290418      300.82647    
    530000  -39.553124      68.529648      244.57741    
    540000  -76.841312      80.989297      289.04501    
    550000  -75.230414      85.16917       303.96268    
    560000  -53.332916      85.996497      306.91535    
    570000  -63.288377      86.075202      307.19624    
    580000  -58.771303      84.537994      301.71006    
    590000  -60.802023      85.548409      305.31615    
    600000  -37.990819      82.041048      292.79863    
    610000  -36.221397      81.786823      291.89132    
    620000  -41.477356      80.598208      287.64924    
    630000  -37.836354      89.851486      320.67353    
    640000  -54.052453      96.124337      343.06088    
    650000  -54.976021      77.285963      275.82807    
    660000  -44.05717       86.696078      309.4121     
    670000  -40.332677      77.747487      277.47522    
    680000  -41.625077      92.372762      329.67178    
    690000  -41.853273      83.798553      299.07104    
    700000  -52.881794      73.250206      261.42475    
    710000  -48.758911      69.106798      246.63722    
    720000  -51.343827      81.240408      289.94121    
    730000  -47.789171      95.480596      340.76342    
    740000  -48.476384      90.393987      322.60967    
    750000  -25.739807      77.679601      277.23294    
    760000  -40.763103      84.528698      301.67688    
    770000  -53.14545       95.724546      341.63406    
    780000  -45.26729       92.648012      330.65413    
    790000  -50.939423      73.686002      262.98007    
    800000  -60.467864      86.72695       309.52228    
    810000  -65.552837      88.636544      316.33749    
    820000  -55.03787       88.540978      315.99642    
    830000  -51.448451      87.806258      313.37425    
    840000  -37.972045      94.263731      336.42052    
    850000  -49.073028      82.632086      294.90801    
    860000  -56.801486      94.656205      337.82123    
    870000  -41.119368      79.253647      282.8506     
    880000  -37.408857      81.506033      290.8892     
    890000  -36.828076      85.2074        304.09912    
    900000  -46.550638      89.099212      317.98871    
    910000  -30.487947      83.28356       297.23307    
    920000  -43.658539      88.598808      316.20281    
    930000  -46.272389      74.587875      266.19879    
    940000  -36.657363      86.776413      309.69881    
    950000  -45.64737       79.826576      284.89534    
    960000  -43.295168      84.387532      301.17307    
    970000  -32.059917      78.201729      279.09638    
    980000  -34.15495       78.01125       278.41657    
    990000  -23.117805      80.84309       288.52321    
   1000000  -28.501741      69.848089      249.28283    
   1010000  -49.664498      78.411024      279.84334    
   1020000  -47.164551      98.852214      352.79648    
   1030000  -37.112038      87.820076      313.42357    
   1040000  -41.16812       80.912424      288.77065    
   1050000  -43.398208      85.850212      306.39327    
   1060000  -36.434469      90.78507       324.00542    
   1070000  -39.087159      81.334259      290.27615    
   1080000  -54.399975      82.963754      296.09171    
   1090000  -58.014335      86.799331      309.7806     
   1100000  -44.480117      85.409502      304.8204     
   1110000  -54.740864      83.822276      299.15571    
   1120000  -62.546782      88.81443       316.97235    
   1130000  -57.821469      79.549836      283.90767    
   1140000  -34.254948      82.143399      293.16392    
   1150000  -35.051093      83.203687      296.94801    
   1160000  -39.298052      79.772198      284.70127    
   1170000  -44.610902      95.20861       339.79272    
   1180000  -43.467534      85.552355      305.33024    
   1190000  -59.378216      81.841553      292.08665    
   1200000  -48.265599      84.601418      301.93641    
   1210000  -48.499228      86.334212      308.12063    
   1220000  -40.503402      90.489135      322.94925    
   1230000  -33.283422      83.982712      299.72829    
   1240000  -27.755458      92.621585      330.55981    
   1250000  -18.591678      77.499018      276.58845    
   1260000  -35.925609      92.910619      331.59136    
   1270000  -36.704923      86.359223      308.20989    
   1280000  -58.190556      84.222266      300.58324    
   1290000  -45.733612      89.083236      317.9317     
   1300000  -43.38576       82.559794      294.65       
   1310000  -45.433193      84.632417      302.04704    
   1320000  -62.72138       81.680072      291.51034    
   1330000  -31.846227      74.712328      266.64296    
   1340000  -25.374449      86.858764      309.99272    
   1350000  -21.056391      85.946835      306.73811    
   1360000  -9.3129167      84.303108      300.87176    
   1370000  -8.5236535      89.484298      319.36306    
   1380000  -18.059085      100.91126      360.14507    
   1390000  -28.940188      81.200637      289.79927    
   1400000  -18.369276      80.548441      287.47162    
   1410000  -32.446233      93.878501      335.04566    
   1420000  -17.898458      66.651763      237.87537    
   1430000  -21.617982      80.042313      285.66529    
   1440000  -35.521363      86.104947      307.3024     
   1450000  -40.60196       83.977213      299.70867    
   1460000  -31.110444      79.994783      285.49566    
   1470000  -43.159065      84.934238      303.12422    
   1480000  -50.908819      87.508222      312.31058    
   1490000  -46.910315      94.942611      338.84339    
   1500000  -36.349258      98.230261      350.57678    
   1510000  -23.706392      74.923688      267.39728    
   1520000  -20.662803      81.581487      291.15849    
   1530000  -25.091219      84.40293       301.22802    
   1540000  -27.251121      84.641154      302.07822    
   1550000  -12.72956       86.684939      309.37235    
   1560000  -8.8635754      97.407293      347.63966    
   1570000  -11.122965      85.634558      305.62361    
   1580000  -16.654364      90.677835      323.62271    
   1590000  -32.786636      81.159037      289.6508     
   1600000  -43.641901      90.513859      323.03749    
   1610000  -13.453808      90.575964      323.25914    
   1620000   3.8883554      89.142112      318.14182    
   1630000  -16.472856      87.641227      312.78527    
   1640000  -19.372669      86.042233      307.07857    
   1650000  -13.729722      98.875175      352.87843    
   1660000  -10.622698      84.46626       301.45404    
   1670000  -22.840324      93.296956      332.97016    
   1680000  -11.503868      84.69079       302.25537    
   1690000  -36.224424      90.017377      321.26558    
   1700000  -45.601475      83.88675       299.38581    
   1710000  -42.431926      83.41397       297.69849    
   1720000  -53.279215      74.016384      264.15918    
   1730000  -36.471817      80.494225      287.27813    
   1740000  -37.150832      78.65389       280.71011    
   1750000  -32.764746      87.6414        312.78589    
   1760000  -37.961933      90.692727      323.67585    
   1770000  -38.02159       91.30427       325.85841    
   1780000  -29.923534      90.593995      323.32349    
   1790000  -18.320599      75.143076      268.18026    
   1800000  -26.371225      90.065403      321.43698    
   1810000  -12.867312      80.351665      286.76934    
   1820000  -29.964928      84.716633      302.34761    
   1830000  -21.620531      93.560092      333.90928    
   1840000  -20.500599      91.301012      325.84678    
   1850000  -36.30521       88.983659      317.57631    
   1860000  -25.423459      74.953423      267.50341    
   1870000  -25.545078      82.505487      294.45618    
   1880000  -31.913147      85.486905      305.09665    
   1890000  -30.950084      80.350698      286.7659     
   1900000  -39.594011      86.741739      309.57506    
   1910000  -51.980119      88.333379      315.25551    
   1920000  -37.03322       73.842727      263.53941    
   1930000  -60.476308      92.305652      329.43227    
   1940000  -43.138433      81.412277      290.55459    
   1950000  -34.928772      76.39789       272.65861    
   1960000  -34.863742      76.116314      271.65368    
   1970000  -45.864825      97.715073      348.73811    
   1980000  -48.26954       78.195509      279.07418    
   1990000  -52.124817      92.621443      330.5593     
   2000000  -46.28754       88.322639      315.21718    
   2010000  -51.643991      88.388492      315.45221    
   2020000  -36.965667      75.111877      268.06892    
   2030000  -43.572361      87.286699      311.51999    
   2040000  -38.199343      81.73848       291.71879    
   2050000  -36.936404      89.657384      319.98079    
   2060000  -25.154474      100.26857      357.85136    
   2070000  -23.264453      88.209935      314.81495    
   2080000  -33.974164      90.732537      323.81793    
   2090000  -22.576459      65.584462      234.06626    
   2100000  -50.016668      84.492721      301.54848    
   2110000  -49.018039      73.881007      263.67603    
   2120000  -37.773714      77.420081      276.30673    
   2130000  -45.882732      81.915345      292.35001    
   2140000  -41.392235      71.361039      254.68244    
   2150000  -39.992794      84.722847      302.36978    
   2160000  -47.812136      80.322624      286.6657     
   2170000  -67.920907      91.807495      327.65438    
   2180000  -42.191523      68.850573      245.72277    
   2190000  -51.230069      72.552245      258.93377    
   2200000  -31.634482      68.321263      243.8337     
   2210000  -34.086599      79.722631      284.52437    
   2220000  -39.916787      78.357301      279.6516     
   2230000  -41.042256      89.194707      318.32953    
   2240000  -52.720165      87.204293      311.22589    
   2250000  -40.078449      81.742235      291.73219    
   2260000  -38.101449      89.03396       317.75584    
   2270000  -54.286907      88.545241      316.01163    
   2280000  -30.538284      87.42105       311.99947    
   2290000  -35.308771      96.63422       344.88062    
   2300000  -32.295671      83.544585      298.16465    
   2310000  -50.596867      91.317742      325.90649    
   2320000  -43.605679      81.707321      291.60759    
   2330000  -43.859902      87.048383      310.66945    
   2340000  -56.641215      87.091573      310.8236     
   2350000  -55.492201      80.696496      288.00002    
   2360000  -51.904792      90.587259      323.29945    
   2370000  -44.387816      86.496622      308.70026    
   2380000  -44.070528      84.685585      302.2368     
   2390000  -53.816756      81.727303      291.6789     
   2400000  -33.205785      73.369715      261.85126    
   2410000  -38.10791       85.460387      305.00201    
   2420000  -35.168513      83.540147      298.14881    
   2430000  -40.532385      74.499597      265.88373    
   2440000  -59.388103      74.945191      267.47403    
   2450000  -27.007205      61.823321      220.64301    
   2460000  -37.3296        75.951716      271.06624    
   2470000  -47.09194       92.436535      329.89938    
   2480000  -32.269607      86.909503      310.1738     
   2490000  -27.57807       97.277445      347.17625    
   2500000  -23.486328      91.37637       326.11573    
   2510000  -33.062989      90.044679      321.36302    
   2520000  -31.239135      87.260724      311.42728    
   2530000  -38.780181      81.374147      290.41851    
   2540000  -46.801158      76.091345      271.56457    
   2550000  -43.196639      84.395289      301.20075    
   2560000  -36.024042      77.310327      275.91503    
   2570000  -32.849304      75.398548      269.09203    
   2580000  -19.667159      75.002382      267.67814    
   2590000  -35.436651      90.663598      323.5719     
   2600000  -18.898239      81.805756      291.95889    
   2610000  -22.4235        94.618229      337.68569    
   2620000  -33.445773      83.165102      296.8103     
   2630000  -31.856727      89.070557      317.88645    
   2640000  -30.373202      89.907735      320.87428    
   2650000  -36.266766      93.524434      333.78201    
   2660000  -8.1453808      83.433426      297.76793    
   2670000  -16.552052      81.922741      292.3764     
   2680000  -27.568781      82.351949      293.90822    
   2690000  -7.5785704      77.395977      276.22071    
   2700000  -23.829437      83.83851       299.21365    
   2710000  -17.640058      80.005354      285.53339    
   2720000  -15.212768      98.041585      349.9034     
   2730000  -2.2687562      89.596338      319.76292    
   2740000  -11.167694      73.693754      263.00774    
   2750000  -31.797803      86.547992      308.88359    
   2760000  -29.831447      76.033403      271.35778    
   2770000  -21.725581      83.613218      298.4096     
   2780000  -10.933839      70.581964      251.90198    
   2790000  -21.241867      85.60413       305.51502    
   2800000   5.1665796      80.764105      288.24132    
   2810000  -2.6669543      86.805853      309.80388    
   2820000  -9.7625086      78.377801      279.72476    
   2830000  -14.987866      74.700697      266.60144    
   2840000  -11.720161      79.971502      285.41257    
   2850000  -6.5602546      83.435606      297.77571    
   2860000  -17.118594      73.798326      263.38095    
   2870000  -22.008873      75.723018      270.25004    
   2880000  -5.1969873      77.090397      275.13011    
   2890000  -32.004506      89.11942       318.06084    
   2900000  -4.6366971      74.502495      265.89407    
   2910000   0.67506004     92.353263      329.60219    
   2920000  -10.733172      90.756707      323.9042     
   2930000  -22.547043      85.335536      304.55642    
   2940000  -8.5918203      91.199942      325.48607    
   2950000  -11.625056      78.344314      279.60525    
   2960000   5.5033061      86.501054      308.71608    
   2970000   3.3235061      80.556529      287.50049    
   2980000   0.58328335     86.549029      308.88729    
   2990000  -7.3110185      86.348595      308.17196    
   3000000  -9.6536499      78.345769      279.61045    
   3010000  -0.55767838     74.666229      266.47843    
   3020000   1.3982973      88.017826      314.12933    
   3030000  -10.846859      96.382636      343.98273    
   3040000   4.7903705      102.34777      365.27187    
   3050000  -3.5661305      89.908042      320.87537    
   3060000  -10.799977      78.387534      279.7595     
   3070000  -5.9529703      79.056176      282.14584    
   3080000   1.1990066      66.33157       236.73263    
   3090000  -7.7500728      78.411686      279.8457     
   3100000  -21.850277      95.068853      339.29394    
   3110000  -15.965374      86.482885      308.65123    
   3120000  -9.6664256      79.877943      285.07866    
   3130000  -19.31814       80.961877      288.94715    
   3140000  -23.5312        90.476204      322.9031     
   3150000  -23.596358      89.072937      317.89494    
   3160000  -35.305517      93.073289      332.17191    
   3170000  -31.773895      92.079114      328.62377    
   3180000  -31.418002      89.252209      318.53475    
   3190000  -20.459762      88.660889      316.42437    
   3200000  -25.981963      79.362662      283.23967    
   3210000  -16.998327      85.836813      306.34545    
   3220000  -20.048096      80.224316      286.31484    
   3230000  -38.456245      93.008667      331.94128    
   3240000  -30.124485      85.277136      304.348      
   3250000  -32.513484      89.675858      320.04672    
   3260000  -8.8385504      92.444238      329.92687    
   3270000   7.1326939      86.371242      308.25279    
   3280000  -6.9432596      86.443573      308.51093    
   3290000  -19.044676      88.689396      316.52611    
   3300000  -34.8161        86.965583      310.37394    
   3310000  -29.868166      87.413348      311.97199    
   3320000  -23.685263      71.063814      253.62167    
   3330000  -35.156278      73.389023      261.92017    
   3340000  -26.372458      65.947367      235.36143    
   3350000  -15.492164      81.927604      292.39376    
   3360000  -27.074907      80.43198       287.05598    
   3370000  -43.669902      98.10211       350.11941    
   3380000  -21.278634      84.597286      301.92166    
   3390000  -28.737084      81.461589      290.73059    
   3400000  -33.634816      87.769089      313.2416     
   3410000  -23.006232      86.735761      309.55373    
   3420000  -18.813684      90.950315      324.59517    
   3430000  -41.618687      74.472429      265.78677    
   3440000  -38.75785       71.455904      255.02101    
   3450000  -24.059306      84.804281      302.66042    
   3460000  -30.493786      80.242462      286.37961    
   3470000  -33.620684      88.468233      315.73679    
   3480000  -29.671714      92.522448      330.206      
   3490000  -10.262317      81.088626      289.39951    
   3500000  -33.081645      83.58101       298.29465    
   3510000  -32.494219      90.430004      322.73822    
   3520000  -27.5797        87.590942      312.60581    
   3530000  -21.723915      93.046378      332.07587    
   3540000  -28.648574      112.49785      401.4968     
   3550000  -30.273995      89.68901       320.09366    
   3560000  -36.104617      86.696687      309.41428    
   3570000  -44.450444      87.982505      314.00327    
   3580000  -42.220954      74.950504      267.49299    
   3590000  -41.784684      91.050798      324.95379    
   3600000  -40.91032       92.007368      328.36771    
   3610000  -35.984153      90.552806      323.17649    
   3620000  -43.708794      84.992767      303.33311    
   3630000  -38.653676      78.178119      279.01212    
   3640000  -9.3251741      78.009831      278.41151    
   3650000  -28.165534      81.810276      291.97502    
   3660000  -41.183978      93.012461      331.95482    
   3670000  -47.074735      81.572824      291.12757    
   3680000  -29.770061      86.992465      310.46988    
   3690000  -21.663534      72.251976      257.86214    
   3700000  -49.143598      96.176606      343.24743    
   3710000  -36.375236      73.370987      261.8558     
   3720000  -36.385058      85.857691      306.41996    
   3730000  -29.847827      74.608719      266.27318    
   3740000  -21.668129      86.122728      307.36586    
   3750000  -25.828995      83.227903      297.03443    
   3760000  -13.323976      70.295192      250.87851    
   3770000  -30.257478      84.996216      303.34542    
   3780000  -34.907912      87.920152      313.78073    
   3790000  -21.497919      90.629052      323.44861    
   3800000  -27.828331      97.960622      349.61445    
   3810000  -35.868264      89.210406      318.38556    
   3820000  -28.749737      77.514324      276.64308    
   3830000  -45.763177      89.547734      319.58946    
   3840000  -34.989093      84.148641      300.32048    
   3850000  -37.368905      85.440957      304.93266    
   3860000  -40.887025      100.06969      357.14155    
   3870000  -18.955468      78.333541      279.56681    
   3880000  -10.528606      81.883122      292.235      
   3890000  -27.202787      65.08671       232.28981    
   3900000  -37.600328      88.945684      317.44078    
   3910000  -29.349907      80.239163      286.36783    
   3920000  -27.816723      83.955654      299.63172    
   3930000  -43.139677      88.920372      317.35045    
   3940000  -25.484894      93.392751      333.31205    
   3950000  -30.60156       82.677418      295.06979    
   3960000  -20.568444      77.859828      277.87616    
   3970000  -29.342599      92.992367      331.88311    
   3980000  -18.212193      85.931351      306.68285    
   3990000  -27.756823      81.867838      292.18046    
   4000000  -36.105614      90.288358      322.23269    
Loop time of 385.004 on 1 procs for 4000000 steps with 95 atoms

Performance: 8976.523 ns/day, 0.003 hours/ns, 10389.495 timesteps/s, 987.002 katom-step/s
99.0% CPU use with 1 MPI tasks x 1 OpenMP threads

MPI task timing breakdown:
Section |  min time  |  avg time  |  max time  |%varavg| %total
---------------------------------------------------------------
Pair    | 342.95     | 342.95     | 342.95     |   0.0 | 89.08
Bond    | 25.477     | 25.477     | 25.477     |   0.0 |  6.62
Neigh   | 1.9472     | 1.9472     | 1.9472     |   0.0 |  0.51
Comm    | 2.3413     | 2.3413     | 2.3413     |   0.0 |  0.61
Output  | 0.75988    | 0.75988    | 0.75988    |   0.0 |  0.20
Modify  | 10.732     | 10.732     | 10.732     |   0.0 |  2.79
Other   |            | 0.796      |            |       |  0.21

Nlocal:             95 ave          95 max          95 min
Histogram: 1 0 0 0 0 0 0 0 0 0
Nghost:              0 ave           0 max           0 min
Histogram: 1 0 0 0 0 0 0 0 0 0
Neighs:            810 ave         810 max         810 min
Histogram: 1 0 0 0 0 0 0 0 0 0

Total # of neighbors = 810
Ave neighs/atom = 8.5263158
Ave special neighs/atom = 5.8736842
Neighbor list builds = 8496
Dangerous builds = 0

# ===============================
# MAIN SA LOOP — 10 cycles
# ===============================
variable c loop ${ncycle}
variable c loop 10
label cyc

  # Heat 298 → 500
  variable seedH equal 44000+${c}
  variable seedH equal 44000+1
  unfix fxl
  fix fxl all langevin ${T_eq} ${T_high} 100000.0 ${seedH}
  fix fxl all langevin 298 ${T_high} 100000.0 ${seedH}
  fix fxl all langevin 298 500 100000.0 ${seedH}
  fix fxl all langevin 298 500 100000.0 44001
  run ${n_heat}
  run 8000000
Generated 0 of 6 mixed pair_coeff terms from geometric mixing rule
Per MPI rank memory allocation (min/avg/max) = 9.632 | 9.632 | 9.632 Mbytes
   Step         PotEng         KinEng          Temp     
   4000000  -36.105614      90.288358      322.23269    
   4010000  -25.685414      86.574079      308.97669    
   4020000  -25.793801      88.092245      314.39492    
   4030000  -45.42493       79.229792      282.76546    
   4040000  -29.325923      76.531728      273.13627    
   4050000  -27.490541      93.510247      333.73138    
   4060000  -11.543589      87.821396      313.42828    
   4070000  -37.905424      110.15597      393.13877    
   4080000  -12.943978      89.589181      319.73738    
   4090000  -28.185606      83.516003      298.06264    
   4100000  -39.161427      92.654765      330.67823    
   4110000  -40.315491      92.917288      331.61515    
   4120000  -28.44182       86.746574      309.59232    
   4130000  -37.886667      85.328597      304.53166    
   4140000  -34.325452      86.158743      307.49439    
   4150000  -33.424505      80.226814      286.32376    
   4160000  -25.137494      79.173555      282.56476    
   4170000  -32.066613      82.403574      294.09246    
   4180000  -32.046473      87.922739      313.78997    
   4190000  -26.244751      75.066957      267.9086     
   4200000  -40.717027      81.473159      290.77188    
   4210000  -45.519924      97.329159      347.36081    
   4220000  -11.368596      81.310691      290.19204    
   4230000  -16.406626      78.728663      280.97697    
   4240000  -31.505229      88.29583       315.1215     
   4250000  -14.069178      77.984151      278.31986    
   4260000  -23.713486      83.874388      299.34169    
   4270000  -40.22891       79.555045      283.92627    
   4280000  -50.440427      78.093525      278.71021    
   4290000  -58.399413      85.837521      306.34797    
   4300000  -44.13695       73.745127      263.19108    
   4310000  -44.517559      79.853393      284.99105    
   4320000  -38.897338      80.496664      287.28684    
   4330000  -10.976944      82.916528      295.92316    
   4340000  -21.707972      92.58612       330.43324    
   4350000  -7.3848622      90.86236       324.28126    
   4360000  -18.722603      96.988426      346.14476    
   4370000   5.0338297      83.901899      299.43988    
   4380000  -6.1825513      98.789089      352.57119    
   4390000  -0.18093834     87.397162      311.91422    
   4400000  -4.0515224      81.852095      292.12427    
   4410000  -17.716291      98.882655      352.90512    
   4420000  -23.79126       83.16876       296.82336    
   4430000  -34.158415      101.36287      361.75683    
   4440000  -24.698663      87.937672      313.84326    
   4450000  -20.353439      82.411731      294.12158    
   4460000  -13.394233      84.463711      301.44494    
   4470000  -19.661368      71.971224      256.86015    
   4480000  -15.266863      89.77625       320.40502    
   4490000  -28.198384      83.731863      298.83303    
   4500000  -21.237582      83.22501       297.02411    
   4510000  -15.875356      83.499908      298.0052     
   4520000  -25.306382      86.353818      308.1906     
   4530000  -31.959211      79.962099      285.37901    
   4540000  -33.396232      85.207804      304.10056    
   4550000  -42.09075       83.574464      298.27128    
   4560000  -38.936679      88.518207      315.91515    
   4570000  -37.122811      89.728555      320.23479    
   4580000  -28.878776      89.834055      320.61132    
   4590000  -24.180879      90.320731      322.34823    
   4600000  -23.753799      90.068541      321.44818    
   4610000  -23.528672      97.652449      348.51461    
   4620000  -23.284644      94.203101      336.20413    
   4630000  -15.130302      91.556433      326.75836    
   4640000  -13.826812      82.086956      292.96247    
   4650000  -27.527524      83.889562      299.39585    
   4660000  -29.212624      84.991691      303.32927    
   4670000  -19.533008      91.900668      327.98691    
   4680000  -26.908859      80.559867      287.5124     
   4690000  -13.410128      89.031914      317.74853    
   4700000  -1.7382229      90.585381      323.29275    
   4710000  -0.22667462     86.211519      307.68275    
   4720000  -11.095416      92.214262      329.10611    
   4730000  -5.594547       86.936761      310.27108    
   4740000  -25.561124      96.324386      343.77485    
   4750000  -22.585277      90.422538      322.71157    
   4760000  -24.387353      90.753         323.89097    
   4770000  -24.385028      91.18596       325.43617    
   4780000   2.4381978      85.051917      303.54421    
   4790000   9.086613       89.705475      320.15242    
   4800000  -0.31337949     104.75721      373.87098    
   4810000  -23.045184      90.838017      324.19439    
   4820000  -13.868761      79.134393      282.42499    
   4830000  -28.212515      105.08017      375.0236     
   4840000  -13.676621      87.42526       312.0145     
   4850000  -2.8719847      78.857841      281.438      
   4860000  -0.82147356     87.18958       311.17338    
   4870000  -13.722642      91.465891      326.43522    
   4880000  -14.4883        99.934192      356.65798    
   4890000  -17.222829      88.968252      317.52133    
   4900000  -39.914989      99.960992      356.75363    
   4910000  -39.100535      85.339541      304.57072    
   4920000  -31.433894      86.828982      309.88643    
   4930000  -25.782255      86.463426      308.58178    
   4940000  -30.74634       92.351696      329.5966     
   4950000  -25.22511       86.442527      308.5072     
   4960000  -19.023542      94.888253      338.64939    
   4970000  -1.290701       90.093602      321.53762    
   4980000  -15.332289      102.90359      367.25556    
   4990000  -23.301946      97.025186      346.27595    
   5000000  -3.8998198      86.513294      308.75976    
   5010000  -11.363569      83.187856      296.89151    
   5020000  -16.581079      78.679671      280.80212    
   5030000  -9.6877596      89.731479      320.24523    
   5040000  -8.4582444      94.320853      336.62438    
   5050000   14.829053      71.836138      256.37804    
   5060000   5.9861123      93.175376      332.53625    
   5070000  -17.265889      97.047565      346.35582    
   5080000  -29.799046      90.983884      324.71498    
   5090000  -13.571673      84.301392      300.86564    
   5100000  -24.560631      94.915404      338.74629    
   5110000  -17.823798      96.298385      343.68205    
   5120000  -15.63954       73.451246      262.14224    
   5130000  -12.029338      92.026894      328.4374     
   5140000   1.8995634      103.94889      370.98615    
   5150000   2.0029698      92.130174      328.806      
   5160000  -5.383281       98.701187      352.25748    
   5170000   10.128026      92.438372      329.90594    
   5180000  -12.275133      92.641142      330.62961    
   5190000  -3.058205       79.288         282.9732     
   5200000  -12.287312      90.954675      324.61073    
   5210000  -5.3282274      96.582692      344.69672    
   5220000  -1.3398602      87.835709      313.47936    
   5230000  -33.914641      88.011175      314.10559    
   5240000  -22.45288       86.07249       307.18656    
   5250000  -17.916873      95.64981       341.36733    
   5260000  -12.441087      86.222761      307.72287    
   5270000  -4.6731382      97.252753      347.08812    
   5280000  -22.323969      77.458262      276.443      
   5290000   4.5162109      73.509721      262.35094    
   5300000  -3.8428353      100.17557      357.51944    
   5310000  -11.324814      90.482805      322.92666    
   5320000  -15.257924      92.187568      329.01083    
   5330000  -14.213576      86.075861      307.19859    
   5340000  -16.37378       89.51671       319.47874    
   5350000  -8.7489526      83.267722      297.17655    
   5360000  -22.256366      95.905426      342.2796     
   5370000  -9.2558936      85.792545      306.18746    
   5380000  -3.577836       88.992147      317.60661    
   5390000   13.187234      100.29083      357.93081    
   5400000   23.466919      83.318313      297.3571     
   5410000   6.8883979      98.879049      352.89225    
   5420000   3.6828313      105.60247      376.88766    
   5430000   20.280858      89.000355      317.6359     
   5440000   8.0398422      102.21207      364.78758    
   5450000  -1.2553687      94.639488      337.76156    
   5460000   7.7913033      96.096702      342.96226    
   5470000  -4.4512196      83.865319      299.30933    
   5480000  -19.969363      100.81536      359.80281    
   5490000  -6.0824257      91.814533      327.6795     
   5500000  -6.5177113      87.082952      310.79283    
   5510000  -20.606018      98.154181      350.30525    
   5520000  -5.7152439      93.951788      335.30721    
   5530000   4.0472864      94.020163      335.55124    
   5540000   7.6314294      92.744361      330.99799    
   5550000   1.2592821      83.751047      298.9015     
   5560000  -18.194944      106.33827      379.51366    
   5570000   17.123651      91.088397      325.08797    
   5580000   0.083341761    85.84539       306.37606    
   5590000   9.8672114      97.783848      348.98356    
   5600000   6.4412505      105.39193      376.13625    
   5610000   6.4299632      101.30056      361.53445    
   5620000   21.892975      96.49424       344.38104    
   5630000   23.287427      103.45663      369.22931    
   5640000   10.171855      91.210374      325.5233     
   5650000   24.609625      96.990939      346.15373    
   5660000   27.122423      99.686538      355.77412    
   5670000   8.5345909      99.773656      356.08504    
   5680000   6.9007758      97.078401      346.46587    
   5690000   13.188589      90.868781      324.30418    
   5700000   5.1616707      99.021636      353.40113    
   5710000   9.4785394      85.716072      305.91453    
   5720000   13.08159       116.46183      415.64394    
   5730000   6.1601276      104.96812      374.62373    
   5740000   23.100331      91.607998      326.94239    
   5750000   7.7515379      97.912815      349.44383    
   5760000   4.6185932      80.807178      288.39504    
   5770000   20.58726       88.874812      317.18785    
   5780000   36.402788      91.872865      327.88769    
   5790000   19.454636      87.041061      310.64332    
   5800000   10.906208      117.74307      420.21658    
   5810000   20.773785      104.21725      371.94392    
   5820000   8.3301011      102.77685      366.80322    
   5830000   17.170132      88.085509      314.37088    
   5840000   20.679546      86.286159      307.94913    
   5850000   22.31603       97.52111       348.04587    
   5860000   18.746265      89.675552      320.04563    
   5870000   21.141874      80.515292      287.35332    
   5880000   20.248469      90.065997      321.4391     
   5890000   4.4370928      109.64519      391.31584    
   5900000   13.615747      93.203807      332.63772    
   5910000   17.337441      91.590441      326.87973    
   5920000   18.076671      88.31665       315.19581    
   5930000   9.3089455      95.344828      340.27887    
   5940000   15.966403      88.388558      315.45244    
   5950000   2.061367       101.08496      360.765      
   5960000  -2.0778445      106.89618      381.5048     
   5970000   16.696426      102.00331      364.0425     
   5980000   13.54177       94.991604      339.01824    
   5990000   8.9259026      99.93923       356.67596    
   6000000   9.0482173      115.52739      412.309      
   6010000   21.357464      93.192993      332.59913    
   6020000   14.164241      88.01736       314.12766    
   6030000   16.326553      108.52807      387.32892    
   6040000   20.354988      102.88978      367.20626    
   6050000   7.1189339      89.71168       320.17457    
   6060000   10.309546      97.02212       346.26501    
   6070000  -0.70355477     107.06576      382.11004    
   6080000   0.11894353     102.1427       364.54       
   6090000   10.476678      101.92678      363.76939    
   6100000   15.866302      97.147351      346.71195    
   6110000   16.27129       86.066941      307.16676    
   6120000   0.24266777     101.52021      362.31837    
   6130000   19.832456      91.212986      325.53262    
   6140000  -3.8619605      109.46875      390.68614    
   6150000   7.9939022      96.510362      344.43858    
   6160000   16.75864       119.21022      425.45274    
   6170000   15.197911      110.30032      393.65394    
   6180000  -23.499275      105.6518       377.06372    
   6190000  -0.34974407     99.756641      356.02432    
   6200000  -12.830102      114.78853      409.67205    
   6210000   8.1520157      91.044813      324.93243    
   6220000   22.544867      93.84775       334.93591    
   6230000  -2.1256168      95.976089      342.5318     
   6240000  -2.77793        95.388145      340.43347    
   6250000  -4.5681483      97.014048      346.2362     
   6260000   2.6929156      103.48906      369.34504    
   6270000   18.917873      102.89097      367.21051    
   6280000   8.0539735      100.34614      358.12821    
   6290000   25.420408      98.974721      353.2337     
   6300000   9.0259975      109.05321      389.20311    
   6310000   23.509281      114.26233      407.79407    
   6320000   16.967546      115.07083      410.67956    
   6330000   7.7247754      90.400104      322.63151    
   6340000   11.047752      84.85924       302.85656    
   6350000   7.2245426      107.3838       383.24509    
   6360000  -0.43202637     101.1731       361.07954    
   6370000   9.3510353      104.06036      371.38397    
   6380000   8.6073413      103.83795      370.5902     
   6390000   14.453067      108.85674      388.50193    
   6400000   9.7151763      96.730301      345.22352    
   6410000  -2.0375634      106.30646      379.40017    
   6420000   2.2734702      104.9698       374.62971    
   6430000   12.584807      93.688623      334.36799    
   6440000   21.110188      90.704816      323.719      
   6450000   6.8784092      103.48943      369.34638    
   6460000  -5.841835       108.4791       387.15416    
   6470000   7.3610362      94.249964      336.37138    
   6480000   39.150491      84.207307      300.52985    
   6490000   19.779118      86.924769      310.22828    
   6500000   18.623293      86.025212      307.01783    
   6510000   30.753233      92.996525      331.89795    
   6520000   30.625212      99.293354      354.37088    
   6530000   31.052112      93.143004      332.42072    
   6540000   16.238697      82.256311      293.56689    
   6550000   22.850733      94.259161      336.4042     
   6560000   26.820032      100.00402      356.90719    
   6570000   20.986932      112.05743      399.92496    
   6580000   18.949836      124.71883      445.11257    
   6590000   29.857029      107.36663      383.18381    
   6600000   10.289537      107.75633      384.57464    
   6610000   23.216345      99.540802      355.254      
   6620000   34.663786      88.286847      315.08944    
   6630000   26.34508       95.154836      339.6008     
   6640000   49.451565      94.054793      335.67483    
   6650000   33.531028      98.830993      352.72075    
   6660000   33.354817      97.179815      346.82781    
   6670000   45.383264      100.12428      357.3364     
   6680000   40.410433      108.26863      386.40299    
   6690000   52.865493      95.424336      340.56263    
   6700000   39.52768       109.7418       391.66064    
   6710000   49.982206      95.835914      342.03152    
   6720000   45.151349      104.61054      373.34755    
   6730000   53.686697      108.84245      388.45091    
   6740000   50.283486      98.245712      350.63192    
   6750000   45.799517      99.488034      355.06568    
   6760000   38.160764      117.39554      418.97627    
   6770000   40.04714       105.9855       378.25467    
   6780000   40.286953      108.81489      388.35257    
   6790000   17.742183      103.4498       369.20494    
   6800000   11.767724      108.44747      387.04128    
   6810000   11.032661      103.91039      370.84874    
   6820000   23.685058      106.71631      380.86288    
   6830000   37.914723      96.530745      344.51132    
   6840000   19.867984      97.747303      348.85313    
   6850000   24.821817      100.33064      358.07287    
   6860000   44.189535      105.48911      376.4831     
   6870000   49.238745      93.207416      332.6506     
   6880000   49.457193      97.827846      349.14058    
   6890000   67.08501       120.09623      428.61487    
   6900000   64.919029      105.99572      378.29113    
   6910000   61.137984      117.50228      419.35724    
   6920000   51.550983      102.86705      367.12514    
   6930000   68.255081      92.379896      329.69724    
   6940000   60.432479      102.24844      364.91738    
   6950000   55.937123      107.63133      384.12853    
   6960000   41.765518      101.44916      362.06481    
   6970000   51.088513      104.76667      373.90476    
   6980000   47.438191      111.39185      397.54954    
   6990000   55.022547      86.05133       307.11104    
   7000000   51.05207       102.29971      365.10033    
   7010000   56.728263      116.26399      414.93788    
   7020000   38.462139      126.87969      452.82452    
   7030000   31.208157      108.05785      385.65074    
   7040000   16.493382      93.425657      333.42949    
   7050000   10.927199      99.443934      354.90829    
   7060000   15.00507       107.7863       384.68158    
   7070000   26.525536      90.757952      323.90864    
   7080000   30.647371      111.23108      396.97577    
   7090000   6.6849365      121.08698      432.15076    
   7100000   21.903864      107.31209      382.98917    
   7110000   23.829449      108.59476      387.56692    
   7120000   29.375266      112.75811      402.42564    
   7130000   30.460711      98.913866      353.01651    
   7140000   45.513674      123.06758      439.21938    
   7150000   65.336805      117.39703      418.98161    
   7160000   55.901709      116.68111      416.42655    
   7170000   54.754538      98.016812      349.81499    
   7180000   52.276039      116.16537      414.58589    
   7190000   49.164881      103.78479      370.4005     
   7200000   58.834521      97.03085       346.29616    
   7210000   63.034852      105.79448      377.57293    
   7220000   59.118191      114.31213      407.97182    
   7230000   62.515974      102.33667      365.23225    
   7240000   48.062286      102.49113      365.7835     
   7250000   50.709623      102.38356      365.39962    
   7260000   51.36751       115.75816      413.13259    
   7270000   50.690341      112.02049      399.79312    
   7280000   49.23825       104.77975      373.95144    
   7290000   63.17601       111.62718      398.38942    
   7300000   66.232255      90.349842      322.45212    
   7310000   66.080328      102.59868      366.16734    
   7320000   69.88944       105.39583      376.15019    
   7330000   73.398426      113.31861      404.426      
   7340000   85.125942      110.1036       392.95187    
   7350000   71.812037      120.38765      429.65491    
   7360000   72.221895      113.14411      403.80325    
   7370000   79.036769      112.49713      401.4942     
   7380000   66.985393      106.68248      380.74212    
   7390000   59.633718      110.46783      394.25177    
   7400000   47.333537      104.72242      373.74684    
   7410000   55.557668      133.80606      477.54427    
   7420000   60.975458      113.89556      406.4851     
   7430000   52.344642      112.46735      401.38794    
   7440000   58.814246      104.85977      374.23702    
   7450000   45.25578       111.91433      399.41423    
   7460000   41.812606      107.31149      382.98704    
   7470000   65.964676      128.21023      457.57314    
   7480000   72.587258      106.89821      381.51208    
   7490000   62.953104      123.42654      440.50048    
   7500000   71.904201      120.03531      428.39745    
   7510000   71.366098      127.79626      456.09573    
   7520000   66.572899      120.76443      430.99962    
   7530000   57.01719       129.31427      461.51339    
   7540000   76.30639       96.580221      344.6879     
   7550000   66.209314      100.8844       360.04921    
   7560000   63.268331      93.982346      335.41627    
   7570000   60.322692      111.94673      399.52986    
   7580000   70.0207        91.001891      324.77924    
   7590000   81.234309      105.55919      376.73322    
   7600000   59.800019      114.2549       407.76758    
   7610000   70.743873      117.27064      418.53052    
   7620000   71.107212      117.80428      420.43505    
   7630000   74.675021      97.459895      347.82739    
   7640000   64.590603      99.85978       356.39241    
   7650000   72.117844      105.93387      378.07041    
   7660000   68.565875      102.59009      366.13671    
   7670000   68.279185      116.38597      415.37321    
   7680000   71.083791      113.61312      405.4771     
   7690000   63.223948      102.79807      366.87897    
   7700000   57.74832       101.03086      360.57192    
   7710000   54.028088      117.88164      420.71114    
   7720000   40.472229      116.81997      416.92213    
   7730000   64.80635       106.83656      381.29204    
   7740000   55.449146      100.20674      357.6307     
   7750000   60.595418      106.50581      380.11161    
   7760000   64.781903      121.42647      433.36239    
   7770000   77.762608      97.41335       347.66128    
   7780000   62.750398      101.4308       361.99926    
   7790000   59.470816      114.1851       407.51847    
   7800000   69.273128      105.58338      376.81953    
   7810000   74.447159      116.48268      415.71836    
   7820000   77.520454      124.08459      442.84902    
   7830000   72.298381      128.09492      457.16159    
   7840000   73.660721      106.7604       381.02024    
   7850000   69.195794      116.56599      416.01568    
   7860000   75.221301      117.14555      418.08409    
   7870000   82.546824      117.53669      419.48003    
   7880000   77.0641        108.19834      386.15213    
   7890000   74.325594      105.67363      377.14161    
   7900000   74.46974       101.80069      363.31937    
   7910000   72.111705      112.91119      402.97197    
   7920000   68.511532      112.16175      400.29725    
   7930000   80.1939        120.94431      431.64159    
   7940000   78.31664       126.84341      452.69505    
   7950000   74.40057       122.53165      437.3067     
   7960000   68.118832      108.18693      386.11142    
   7970000   69.998114      115.05639      410.62803    
   7980000   74.883733      124.68476      444.99098    
   7990000   67.40427       105.27645      375.72411    
   8000000   65.382408      127.43703      454.81364    
   8010000   70.159822      109.15742      389.57502    
   8020000   78.154325      109.18073      389.6582     
   8030000   82.98044       106.87758      381.43844    
   8040000   82.800631      111.31519      397.27594    
   8050000   86.44639       115.8154       413.33688    
   8060000   78.429332      111.442        397.72852    
   8070000   75.425035      118.40878      422.59248    
   8080000   63.167002      120.18056      428.91584    
   8090000   67.767492      119.04351      424.85777    
   8100000   77.905603      125.80001      448.97125    
   8110000   68.281276      95.698486      341.54105    
   8120000   75.21263       90.24406       322.0746     
   8130000   69.69062       112.18274      400.37216    
   8140000   71.380333      134.506        480.0423     
   8150000   77.14351       120.13053      428.73729    
   8160000   75.038209      112.4201       401.2193     
   8170000   61.119976      125.64558      448.4201     
   8180000   67.195418      112.7863       402.52623    
   8190000   67.176423      120.91008      431.51943    
   8200000   74.743456      117.21288      418.32438    
   8210000   75.915644      105.36469      376.03904    
   8220000   81.240723      106.48722      380.04527    
   8230000   67.190027      109.83578      391.99605    
   8240000   67.895046      109.99761      392.57361    
   8250000   66.784313      106.35932      379.58881    
   8260000   61.128041      119.61387      426.89333    
   8270000   60.647252      114.00526      406.87661    
   8280000   79.985524      107.46545      383.53649    
   8290000   88.656602      109.60169      391.1606     
   8300000   72.518052      117.18093      418.21034    
   8310000   67.881715      107.88325      385.02761    
   8320000   83.498604      125.98092      449.61691    
   8330000   68.818223      116.97138      417.4625     
   8340000   64.839784      124.4485       444.1478     
   8350000   68.195859      128.7725       459.57984    
   8360000   71.439698      113.69693      405.77621    
   8370000   68.567642      112.53464      401.6281     
   8380000   71.966191      115.59802      412.56106    
   8390000   77.95467       115.57008      412.46134    
   8400000   63.594375      119.27146      425.67132    
   8410000   83.090117      131.55097      469.49599    
   8420000   80.40067       119.82437      427.6446     
   8430000   89.536959      117.54446      419.50778    
   8440000   58.824973      122.65749      437.75582    
   8450000   78.156141      106.41365      379.78269    
   8460000   76.602952      112.56878      401.74991    
   8470000   65.806606      117.02574      417.65648    
   8480000   79.940819      108.57265      387.48802    
   8490000   72.827255      113.07653      403.56204    
   8500000   79.138468      110.84966      395.6145     
   8510000   76.177341      110.12368      393.02354    
   8520000   74.903134      105.12775      375.19342    
   8530000   70.416464      97.272768      347.15955    
   8540000   76.514332      97.773481      348.94656    
   8550000   69.798708      114.07095      407.11108    
   8560000   66.815796      111.2926       397.19532    
   8570000   63.665834      102.63794      366.30746    
   8580000   70.149147      97.288129      347.21437    
   8590000   61.199728      107.34266      383.09829    
   8600000   62.667502      114.37911      408.21086    
   8610000   51.224188      108.30446      386.53087    
   8620000   52.312029      110.35583      393.85205    
   8630000   56.397114      118.35767      422.41008    
   8640000   58.55979       122.94527      438.78288    
   8650000   64.519638      105.69025      377.20096    
   8660000   51.395808      136.37817      486.72394    
   8670000   72.147159      129.67812      462.81193    
   8680000   59.42154       112.57546      401.77376    
   8690000   82.006847      108.24899      386.33289    
   8700000   76.864856      110.00851      392.61251    
   8710000   57.598046      132.07439      471.36405    
   8720000   71.544818      113.33095      404.47005    
   8730000   83.101594      106.15466      378.8584     
   8740000   77.967363      146.57197      523.10486    
   8750000   84.663977      131.78821      470.34269    
   8760000   59.614217      120.04677      428.43832    
   8770000   69.363565      118.5055       422.93766    
   8780000   78.282512      128.18815      457.49434    
   8790000   77.699565      119.98784      428.22801    
   8800000   77.025099      106.73363      380.9247     
   8810000   80.185598      121.69719      434.32856    
   8820000   80.467637      136.45878      487.01163    
   8830000   76.031459      120.08831      428.58658    
   8840000   73.308606      131.40973      468.99192    
   8850000   69.316482      134.31893      479.37467    
   8860000   76.007412      111.67503      398.56021    
   8870000   72.355401      126.73423      452.3054     
   8880000   67.094608      114.26139      407.79073    
   8890000   71.73078       103.75032      370.27748    
   8900000   67.279293      120.98143      431.77408    
   8910000   59.868168      111.69112      398.61762    
   8920000   82.135401      111.89291      399.33778    
   8930000   87.918502      122.67476      437.81743    
   8940000   72.406034      124.76346      445.27186    
   8950000   82.694353      106.57504      380.35868    
   8960000   78.804133      97.265467      347.13349    
   8970000   81.967653      114.71266      409.40126    
   8980000   80.518488      113.82663      406.23909    
   8990000   67.954226      127.9493       456.6419     
   9000000   78.269107      97.792323      349.01381    
   9010000   77.59741       114.81225      409.7567     
   9020000   87.511309      129.74381      463.04638    
   9030000   64.937957      111.48943      397.89781    
   9040000   74.715406      98.185515      350.41708    
   9050000   61.77216       111.7301       398.75675    
   9060000   73.398256      113.21841      404.06841    
   9070000   69.173584      120.50429      430.07118    
   9080000   78.078785      128.73496      459.44588    
   9090000   79.778473      135.2649       482.75076    
   9100000   94.5864        123.02994      439.08504    
   9110000   66.810345      122.76611      438.14346    
   9120000   79.167899      114.13068      407.32424    
   9130000   80.565475      111.31937      397.29086    
   9140000   61.745467      134.80842      481.12161    
   9150000   69.915722      105.71677      377.2956     
   9160000   74.226766      106.27444      379.28587    
   9170000   65.30525       102.57785      366.09301    
   9180000   72.383309      106.49476      380.0722     
   9190000   82.486993      102.03362      364.1507     
   9200000   67.249539      115.65045      412.74818    
   9210000   75.198666      112.64657      402.02755    
   9220000   55.769317      114.87608      409.9845     
   9230000   84.180715      113.75456      405.98188    
   9240000   83.36398       124.85571      445.6011     
   9250000   89.900238      141.45992      504.86034    
   9260000   76.277321      136.7272       487.96958    
   9270000   78.163788      119.81635      427.61597    
   9280000   80.391097      108.69404      387.92126    
   9290000   76.85961       117.49067      419.3158     
   9300000   71.935941      138.45644      494.14112    
   9310000   91.498194      128.65988      459.17791    
   9320000   87.224086      126.16492      450.27358    
   9330000   84.97338       136.08049      485.66154    
   9340000   90.819547      114.64921      409.17483    
   9350000   76.574146      122.1453       435.92782    
   9360000   88.006338      124.86433      445.63186    
   9370000   79.376562      124.38505      443.92133    
   9380000   72.158145      115.47131      412.10885    
   9390000   66.235308      123.28864      440.00833    
   9400000   70.330028      110.58187      394.65879    
   9410000   79.908755      105.67531      377.14762    
   9420000   68.862166      118.76868      423.87693    
   9430000   80.432313      128.63993      459.10669    
   9440000   74.017294      116.26582      414.94441    
   9450000   71.424072      119.20646      425.43934    
   9460000   69.265821      130.37008      465.2815     
   9470000   79.905251      132.63633      473.36957    
   9480000   81.688367      127.62835      455.49646    
   9490000   68.711017      112.8259       402.66756    
   9500000   79.477934      123.56975      441.01162    
   9510000   81.608956      118.66871      423.52015    
   9520000   63.835497      129.13513      460.87406    
   9530000   85.421912      122.53849      437.33111    
   9540000   63.436531      120.90016      431.48403    
   9550000   70.267271      125.45967      447.75657    
   9560000   81.522433      122.49464      437.1746     
   9570000   79.929983      124.57933      444.61472    
   9580000   79.777585      130.83788      466.95103    
   9590000   81.611135      116.07577      414.26611    
   9600000   75.053071      123.62264      441.20036    
   9610000   75.584359      134.99005      481.76982    
   9620000   92.703158      111.91509      399.41694    
   9630000   72.857835      131.07091      467.78271    
   9640000   89.542338      123.02326      439.0612     
   9650000   79.169751      121.89378      435.03017    
   9660000   76.824211      128.38308      458.19004    
   9670000   71.217319      117.06876      417.81002    
   9680000   67.029418      119.11923      425.12802    
   9690000   66.615696      110.45549      394.20774    
   9700000   71.873503      113.85296      406.33306    
   9710000   74.358751      112.36341      401.01699    
   9720000   80.807718      121.06882      432.08597    
   9730000   75.517501      111.00363      396.164      
   9740000   70.079218      129.20641      461.12842    
   9750000   84.704781      131.15392      468.07897    
   9760000   96.865472      130.90033      467.17393    
   9770000   80.207611      152.99839      546.04031    
   9780000   94.507805      126.66779      452.06829    
   9790000   81.92349       137.6469       491.25193    
   9800000   70.477868      121.9033       435.06415    
   9810000   77.115172      137.33364      490.13395    
   9820000   72.493922      140.53311      501.55263    
   9830000   77.724213      112.64718      402.02972    
   9840000   74.854642      127.33131      454.43633    
   9850000   86.464358      134.88985      481.41221    
   9860000   70.180124      110.13225      393.05414    
   9870000   79.242544      125.16658      446.71056    
   9880000   80.291349      116.84353      417.00619    
   9890000   84.218391      108.86509      388.53173    
   9900000   80.876409      125.00184      446.12263    
   9910000   70.549879      121.50744      433.65135    
   9920000   80.33629       123.98548      442.49532    
   9930000   89.410919      126.7903       452.5055     
   9940000   78.933774      132.90792      474.33886    
   9950000   93.283282      117.85905      420.63052    
   9960000   81.801281      124.78103      445.33457    
   9970000   86.767249      129.68023      462.81946    
   9980000   99.057146      122.06916      435.65611    
   9990000   69.678793      131.92403      470.82741    
  10000000   67.015167      118.30781      422.23212    
  10010000   78.357825      118.17972      421.77498    
  10020000   82.198108      113.57799      405.35171    
  10030000   77.580862      133.0772       474.94302    
  10040000   68.37687       140.57446      501.7002     
  10050000   62.634625      120.29729      429.33242    
  10060000   66.485737      123.74635      441.64186    
  10070000   83.004007      136.14227      485.88204    
  10080000   89.269713      142.67589      509.20004    
  10090000   77.772897      128.82412      459.76407    
  10100000   59.21627       123.23793      439.82736    
  10110000   78.252692      118.83742      424.12227    
  10120000   82.999781      149.53846      533.69207    
  10130000   79.941498      147.6977       527.12253    
  10140000   70.358978      137.18204      489.59288    
  10150000   92.655845      139.31312      497.19855    
  10160000   93.108914      126.82176      452.6178     
  10170000   85.333862      136.40976      486.83667    
  10180000   87.133097      138.66182      494.87413    
  10190000   96.73886       130.7818       466.7509     
  10200000   89.059654      150.05901      535.54987    
  10210000   82.191689      154.42538      551.13315    
  10220000   84.63028       135.11437      482.21352    
  10230000   69.312794      149.43531      533.32394    
  10240000   79.384494      129.09894      460.74488    
  10250000   87.462079      120.67177      430.66891    
  10260000   77.499563      127.39135      454.6506     
  10270000   78.891093      134.28839      479.26567    
  10280000   86.831964      121.63004      434.0889     
  10290000   86.357487      133.55874      476.66159    
  10300000   75.699483      136.58052      487.4461     
  10310000   73.433808      116.58717      416.09126    
  10320000   61.800516      126.38203      451.04842    
  10330000   84.869696      126.95391      453.08943    
  10340000   92.953379      128.28747      457.8488     
  10350000   87.581495      142.82778      509.74212    
  10360000   93.971617      152.31725      543.60937    
  10370000   95.837802      134.1487       478.76712    
  10380000   80.504869      133.45408      476.28808    
  10390000   77.40128       110.43015      394.11732    
  10400000   65.399876      141.05522      503.41599    
  10410000   82.419064      133.85244      477.70978    
  10420000   92.654697      127.70818      455.78137    
  10430000   100.54888      123.3269       440.14489    
  10440000   87.109964      137.40952      490.40473    
  10450000   87.169764      142.04097      506.93406    
  10460000   84.587336      131.20915      468.27608    
  10470000   80.052488      121.2359       432.68225    
  10480000   74.882178      133.49285      476.42644    
  10490000   70.233367      139.09973      496.43699    
  10500000   95.04225       116.83139      416.96286    
  10510000   79.830829      100.08781      357.20624    
  10520000   82.119114      126.99921      453.25108    
  10530000   74.495474      112.62606      401.95435    
  10540000   98.139917      116.7554       416.69169    
  10550000   91.050761      149.40089      533.20111    
  10560000   95.432532      160.81923      573.95235    
  10570000   84.698636      131.77969      470.3123     
  10580000   79.422394      129.97643      463.87657    
  10590000   90.914161      142.90725      510.02577    
  10600000   82.505611      128.46753      458.49144    
  10610000   102.42201      132.96327      474.53639    
  10620000   70.526223      132.93054      474.41959    
  10630000   94.881354      129.14602      460.91291    
  10640000   78.652323      137.79057      491.76468    
  10650000   94.07464       126.22861      450.50088    
  10660000   89.992086      121.96538      435.28573    
  10670000   78.140015      129.00345      460.40407    
  10680000   77.970927      131.16717      468.12624    
  10690000   80.187453      126.79343      452.51669    
  10700000   71.601032      122.90109      438.62521    
  10710000   66.390768      143.2877       511.38357    
  10720000   63.621068      118.62336      423.3583     
  10730000   72.4622        129.75272      463.07818    
  10740000   95.775461      116.17622      414.62461    
  10750000   72.341091      133.76089      477.38304    
  10760000   79.652554      126.76169      452.40341    
  10770000   88.411932      136.14568      485.8942     
  10780000   71.944139      128.446        458.41457    
  10790000   82.647357      134.59261      480.35138    
  10800000   80.42386       153.2356       546.88691    
  10810000   91.973547      158.96481      567.33404    
  10820000   113.42869      130.27959      464.95853    
  10830000   91.098423      137.37583      490.28452    
  10840000   88.955316      127.61471      455.44776    
  10850000   88.287897      126.07029      449.93584    
  10860000   75.364027      139.00646      496.10412    
  10870000   83.572503      129.26147      461.32494    
  10880000   90.587221      116.26337      414.93567    
  10890000   91.101912      127.32613      454.41786    
  10900000   81.492475      123.36361      440.27591    
  10910000   91.093816      121.20951      432.58808    
  10920000   78.864609      130.30896      465.06337    
  10930000   83.121225      141.3131       504.33634    
  10940000   71.927994      129.90332      463.61568    
  10950000   57.04695       132.18344      471.75325    
  10960000   96.609739      123.27812      439.97078    
  10970000   67.318454      154.93582      552.95487    
  10980000   74.072701      134.76588      480.96977    
  10990000   84.545964      130.18105      464.60685    
  11000000   91.217584      131.06894      467.77568    
  11010000   68.168673      126.94039      453.04118    
  11020000   84.606974      135.294        482.8546     
  11030000   90.911721      131.59904      469.66758    
  11040000   86.019916      129.00837      460.42164    
  11050000   66.302305      133.01431      474.71858    
  11060000   73.877599      143.1455       510.87604    
  11070000   76.836652      132.87199      474.21062    
  11080000   77.545504      149.03686      531.9019     
  11090000   75.124734      126.47151      451.36778    
  11100000   86.015479      100.97266      360.36419    
  11110000   91.771839      133.77371      477.42879    
  11120000   92.815107      136.38655      486.75384    
  11130000   87.7844        125.09177      446.44359    
  11140000   73.913902      152.03334      542.59612    
  11150000   83.574363      117.88243      420.71395    
  11160000   90.244196      133.12271      475.10543    
  11170000   76.236625      149.77523      534.53709    
  11180000   78.070955      154.62949      551.86161    
  11190000   81.961619      127.89896      456.46224    
  11200000   84.064218      130.82302      466.89802    
  11210000   74.01505       143.36278      511.65152    
  11220000   61.323103      140.2965       500.70817    
  11230000   93.10097       136.47031      487.05278    
  11240000   96.311246      135.45011      483.41175    
  11250000   83.212091      146.54382      523.00441    
  11260000   102.95889      132.95771      474.51655    
  11270000   91.318891      139.49576      497.8504     
  11280000   72.030407      138.09819      492.86256    
  11290000   89.783429      149.8694       534.87317    
  11300000   92.838803      129.33346      461.58186    
  11310000   98.870683      138.1742       493.13385    
  11320000   124.00343      147.57608      526.68846    
  11330000   105.36956      166.60294      594.59398    
  11340000   94.988305      161.13393      575.07547    
  11350000   84.197563      139.3868       497.46153    
  11360000   113.28245      126.82399      452.62574    
  11370000   89.578837      159.20888      568.20512    
  11380000   78.308011      135.87378      484.92379    
  11390000   76.410065      136.90545      488.60575    
  11400000   83.33359       128.19631      457.52345    
  11410000   87.559278      134.05995      478.45038    
  11420000   97.628193      132.27102      472.06581    
  11430000   101.9981       110.34615      393.81752    
  11440000   82.996181      111.7819       398.94161    
  11450000   81.265285      137.45898      490.58127    
  11460000   88.97104       134.24548      479.11252    
  11470000   81.067383      131.70865      470.05874    
  11480000   73.380007      131.02361      467.61389    
  11490000   86.355813      135.29208      482.84777    
  11500000   88.081259      119.77662      427.47419    
  11510000   90.619936      134.12851      478.69506    
  11520000   93.150852      119.33255      425.88934    
  11530000   82.017039      147.81747      527.54999    
  11540000   85.314741      157.05122      560.50458    
  11550000   73.299215      143.19668      511.0587     
  11560000   90.122355      133.49546      476.43576    
  11570000   84.776741      133.86075      477.73944    
  11580000   92.14511       131.87889      470.66633    
  11590000   76.827187      150.34778      536.58047    
  11600000   84.095824      137.81052      491.83589    
  11610000   106.49008      128.3001       457.8939     
  11620000   73.628011      145.60642      519.65891    
  11630000   76.195949      148.09438      528.53825    
  11640000   89.367154      123.65803      441.32665    
  11650000   104.77088      153.77156      548.79969    
  11660000   82.724217      142.64367      509.08506    
  11670000   92.518407      135.65585      484.14604    
  11680000   90.16209       139.4124       497.55289    
  11690000   86.997928      135.45656      483.43478    
  11700000   80.054832      132.64107      473.38649    
  11710000   87.358453      133.52209      476.53079    
  11720000   91.648087      135.32896      482.97937    
  11730000   92.514365      152.62512      544.70813    
  11740000   82.412757      138.18307      493.16548    
  11750000   75.603293      144.85106      516.96307    
  11760000   84.683692      142.65875      509.13888    
  11770000   86.934945      146.41382      522.54046    
  11780000   97.471871      120.04461      428.43061    
  11790000   73.339834      136.44127      486.94913    
  11800000   82.873118      153.86932      549.14859    
  11810000   83.728629      155.70884      555.71372    
  11820000   67.543059      156.23171      557.5798     
  11830000   56.299395      119.27925      425.69911    
  11840000   90.228287      125.11467      446.52531    
  11850000   81.401269      145.046        517.6588     
  11860000   91.749861      141.29542      504.27325    
  11870000   95.79713       125.99991      449.68468    
  11880000   101.22931      117.42624      419.08584    
  11890000   83.277303      148.34084      529.41783    
  11900000   92.762061      127.38983      454.6452     
  11910000   98.784113      125.38099      447.4758     
  11920000   87.455968      153.30565      547.1369     
  11930000   110.3709       139.14237      496.58915    
  11940000   76.949314      137.67974      491.36916    
  11950000   87.208683      145.11257      517.89639    
  11960000   98.056071      120.00173      428.27759    
  11970000   93.398476      147.83226      527.60276    
  11980000   102.91351      144.58059      515.99777    
  11990000   96.711827      134.682        480.67042    
  12000000   74.80663       117.9318       420.89016    
Loop time of 447.294 on 1 procs for 8000000 steps with 95 atoms

Performance: 15452.936 ns/day, 0.002 hours/ns, 17885.342 timesteps/s, 1.699 Matom-step/s
98.9% CPU use with 1 MPI tasks x 1 OpenMP threads

MPI task timing breakdown:
Section |  min time  |  avg time  |  max time  |%varavg| %total
---------------------------------------------------------------
Pair    | 352.54     | 352.54     | 352.54     |   0.0 | 78.82
Bond    | 56.083     | 56.083     | 56.083     |   0.0 | 12.54
Neigh   | 7.3361     | 7.3361     | 7.3361     |   0.0 |  1.64
Comm    | 6.6082     | 6.6082     | 6.6082     |   0.0 |  1.48
Output  | 1.7014     | 1.7014     | 1.7014     |   0.0 |  0.38
Modify  | 21.182     | 21.182     | 21.182     |   0.0 |  4.74
Other   |            | 1.843      |            |       |  0.41

Nlocal:             95 ave          95 max          95 min
Histogram: 1 0 0 0 0 0 0 0 0 0
Nghost:             24 ave          24 max          24 min
Histogram: 1 0 0 0 0 0 0 0 0 0
Neighs:            260 ave         260 max         260 min
Histogram: 1 0 0 0 0 0 0 0 0 0

Total # of neighbors = 260
Ave neighs/atom = 2.7368421
Ave special neighs/atom = 5.8736842
Neighbor list builds = 22996
Dangerous builds = 0

  # Hold at 500
  variable seedHH equal 45000+${c}
  variable seedHH equal 45000+1
  unfix fxl
  fix fxl all langevin ${T_high} ${T_high} 100000.0 ${seedHH}
  fix fxl all langevin 500 ${T_high} 100000.0 ${seedHH}
  fix fxl all langevin 500 500 100000.0 ${seedHH}
  fix fxl all langevin 500 500 100000.0 45001
  run ${n_holdH}
  run 8000000
Generated 0 of 6 mixed pair_coeff terms from geometric mixing rule
Per MPI rank memory allocation (min/avg/max) = 9.633 | 9.633 | 9.633 Mbytes
   Step         PotEng         KinEng          Temp     
  12000000   74.80663       117.9318       420.89016    
  12010000   84.006526      134.51325      480.06817    
  12020000   76.055968      151.90968      542.15478    
  12030000   89.332391      134.99992      481.80505    
  12040000   106.257        126.35528      450.95294    
  12050000   100.02397      157.16878      560.92413    
  12060000   87.207684      146.4525       522.67851    
  12070000   86.467847      143.85576      513.41092    
  12080000   73.858774      152.05997      542.69117    
  12090000   91.657436      139.28249      497.08923    
  12100000   101.92553      126.8745       452.80602    
  12110000   89.726592      127.96721      456.70583    
  12120000   70.399481      146.04378      521.21981    
  12130000   72.896939      155.69909      555.67893    
  12140000   98.157743      137.3565       490.21554    
  12150000   91.112001      137.68818      491.39928    
  12160000   77.575615      139.38425      497.4524     
  12170000   82.080239      139.7782       498.8584     
  12180000   102.91685      131.54052      469.45871    
  12190000   94.624478      136.08413      485.67451    
  12200000   112.7835       133.0255       474.7585     
  12210000   98.015563      145.32089      518.63985    
  12220000   89.806047      149.11242      532.17158    
  12230000   82.864616      162.51294      579.99706    
  12240000   100.57406      139.02828      496.18198    
  12250000   85.727026      142.4442       508.37317    
  12260000   84.26642       134.86452      481.32183    
  12270000   74.654615      120.28778      429.29849    
  12280000   94.078723      124.51159      444.37297    
  12290000   90.875735      146.6888       523.52183    
  12300000   83.053481      136.48432      487.10279    
  12310000   90.218278      141.71332      505.76469    
  12320000   100.7944       138.32028      493.65517    
  12330000   84.958965      141.08582      503.52521    
  12340000   68.149941      171.55103      612.25336    
  12350000   107.06473      138.92781      495.82342    
  12360000   91.273695      132.11961      471.52544    
  12370000   85.77749       142.00496      506.80553    
  12380000   84.476044      140.20038      500.36511    
  12390000   85.861366      136.58132      487.44896    
  12400000   90.666538      135.56874      483.83513    
  12410000   101.52038      152.65359      544.80975    
  12420000   81.154391      135.3814       483.16652    
  12430000   76.352407      137.30785      490.04189    
  12440000   83.618393      122.40037      436.83818    
  12450000   80.879042      114.3198       407.99919    
  12460000   68.356625      111.70787      398.6774     
  12470000   79.69414       114.11768      407.27786    
  12480000   96.9378        127.09678      453.59931    
  12490000   91.688229      130.83009      466.92325    
  12500000   109.95425      145.70658      520.01638    
  12510000   104.3822       159.52586      569.3364     
  12520000   104.49905      150.64252      537.63238    
  12530000   100.05131      150.96527      538.78424    
  12540000   89.434118      141.47126      504.90079    
  12550000   77.717633      163.79639      584.57761    
  12560000   90.945894      153.77172      548.80025    
  12570000   112.5578       138.10785      492.89705    
  12580000   100.05631      137.15917      489.51128    
  12590000   77.433444      145.38566      518.87103    
  12600000   88.449333      137.79591      491.78374    
  12610000   88.759577      140.0866       499.95905    
[...]
 404760000  -34.79688       75.097403      268.01726    
 404770000  -21.321033      66.41947       237.04634    
 404780000  -18.556604      79.719432      284.51295    
 404790000  -17.79553       78.04373       278.53249    
 404800000  -12.906888      80.891943      288.69756    
 404810000  -12.297629      88.903134      317.28893    
 404820000  -25.623826      76.279511      272.23612    
 404830000  -27.7936        71.237461      254.2414     
 404840000  -17.40946       83.130112      296.68542    
 404850000  -20.248037      77.948245      278.19171    
 404860000  -21.294611      89.06049       317.85052    
 404870000  -13.930502      85.522952      305.2253     
 404880000  -10.336687      86.33523       308.12426    
 404890000  -20.029435      87.359033      311.77814    
 404900000  -16.264128      78.100509      278.73513    
 404910000  -13.836652      78.996997      281.93463    
 404920000  -19.587565      79.981375      285.44781    
 404930000  -11.237523      94.984135      338.99158    
 404940000  -2.9883482      74.4595        265.74063    
 404950000  -21.81639       93.323424      333.06463    
 404960000  -27.539579      86.927274      310.23722    
 404970000  -25.214979      78.643075      280.67151    
 404980000  -17.088336      76.241953      272.10208    
 404990000  -21.855523      73.620859      262.74758    
 405000000  -16.751388      78.36728       279.68722    
 405010000  -15.840903      76.55054       273.2034     
 405020000  -27.260224      83.065456      296.45467    
 405030000  -20.921094      92.912947      331.59966    
 405040000  -13.520736      88.238709      314.91764    
 405050000  -4.3112374      78.26143       279.30945    
 405060000  -9.3215295      89.905501      320.8663     
 405070000  -10.267563      76.045813      271.40207    
 405080000  -16.437944      78.026943      278.47258    
 405090000  -15.304867      78.84179       281.38071    
 405100000  -31.015638      85.477169      305.0619     
 405110000  -18.108522      90.386126      322.58162    
 405120000  -15.869535      75.782359      270.46182    
 405130000  -20.53752       76.433376      272.78525    
 405140000  -9.63612        71.459451      255.03367    
 405150000  -23.708822      79.541524      283.87801    
 405160000  -19.185383      76.77081       273.98953    
 405170000  -24.937212      81.273225      290.05833    
 405180000  -34.066145      77.07706       275.08251    
 405190000  -42.74075       84.516444      301.63314    
 405200000  -40.664894      77.002103      274.815      
 405210000  -23.795699      71.793981      256.22758    
 405220000  -40.859616      88.992033      317.6062     
 405230000  -26.291091      76.74313       273.89074    
 405240000  -32.341416      86.208076      307.67046    
 405250000  -38.061088      87.406691      311.94823    
 405260000  -46.693273      89.57829       319.69851    
 405270000  -46.10574       88.55934       316.06195    
 405280000  -33.451008      89.87213       320.7472     
 405290000  -51.288554      86.197892      307.63411    
 405300000  -44.551906      85.641515      305.64844    
 405310000  -31.379205      78.454034      279.99683    
 405320000  -54.081911      88.085302      314.37014    
 405330000  -45.3891        80.503433      287.31099    
 405340000  -31.781053      72.45603       258.59039    
 405350000  -28.815594      75.302817      268.75037    
 405360000  -38.652234      73.684733      262.97554    
 405370000  -36.714809      72.043452      257.11793    
 405380000  -32.271164      86.226021      307.7345     
 405390000  -42.42208       75.7443        270.32599    
 405400000  -41.038363      73.693254      263.00595    
 405410000  -47.36206       86.391562      308.32531    
 405420000  -28.589214      91.567996      326.79963    
 405430000  -53.024683      91.472475      326.45872    
 405440000  -41.419027      85.326349      304.52364    
 405450000  -44.019079      82.66405       295.02208    
 405460000  -43.859056      80.951878      288.91146    
 405470000  -38.184817      83.699187      298.71641    
 405480000  -22.025757      72.884556      260.11977    
 405490000  -34.662766      93.514715      333.74733    
 405500000  -17.737383      83.238755      297.07316    
 405510000  -16.419955      93.884748      335.06795    
 405520000  -22.676838      76.922022      274.5292     
 405530000  -44.257959      82.609762      294.82833    
 405540000  -37.09912       89.530458      319.5278     
 405550000  -22.734361      83.980374      299.71995    
 405560000  -24.957486      86.903652      310.15292    
 405570000  -24.707819      80.034807      285.6385     
 405580000  -39.959299      77.002888      274.8178     
 405590000  -46.390789      87.779087      313.27728    
 405600000  -34.573209      73.203352      261.25753    
 405610000  -29.703518      78.339226      279.58709    
 405620000  -14.26328       76.828916      274.19691    
 405630000  -7.0954694      87.271605      311.46612    
 405640000  -17.451021      81.141363      289.58772    
 405650000  -19.459204      85.144717      303.87541    
 405660000  -29.11579       81.381473      290.44466    
 405670000  -30.514945      86.356732      308.201      
 405680000  -40.238761      92.188958      329.0158     
 405690000  -36.573985      88.889531      317.24038    
 405700000  -32.06938       82.852744      295.69552    
 405710000  -12.912103      86.500294      308.71336    
 405720000  -36.194424      83.55471       298.20078    
 405730000  -28.279253      81.595789      291.20953    
 405740000  -37.68701       92.147969      328.86951    
 405750000  -27.791165      93.398297      333.33184    
 405760000  -39.910353      83.945349      299.59495    
 405770000  -26.144024      81.204064      289.8115     
 405780000  -24.073653      78.908206      281.61774    
 405790000  -18.673995      73.689285      262.99179    
 405800000  -31.673355      81.892703      292.2692     
 405810000  -41.686981      96.360407      343.9034     
 405820000  -44.889038      87.713633      313.04368    
 405830000  -57.943744      77.77281       277.56559    
 405840000  -39.011844      72.722825      259.54256    
 405850000  -41.772109      71.524801      255.2669     
 405860000  -40.452453      79.28863       282.97545    
 405870000  -28.827922      88.430031      315.60046    
 405880000  -33.968371      90.420407      322.70397    
 405890000  -27.461105      82.666231      295.02987    
 405900000  -30.757894      91.318758      325.91012    
 405910000  -49.959533      78.474298      280.06916    
 405920000  -25.233466      74.729779      266.70524    
 405930000  -20.73813       89.215733      318.40457    
 405940000  -24.46428       92.702606      330.84897    
 405950000  -26.287996      95.904209      342.27526    
 405960000  -28.712308      95.958649      342.46955    
 405970000  -28.535209      91.479517      326.48385    
 405980000  -40.872832      101.66175      362.82353    
 405990000  -29.731222      89.221811      318.42626    
 406000000  -33.821405      91.354777      326.03867    
 406010000  -25.133893      81.26137       290.01602    
 406020000  -34.133753      79.715459      284.49877    
 406030000  -29.969441      83.751501      298.90312    
 406040000  -22.378792      82.665592      295.02759    
 406050000  -19.674114      84.511759      301.61642    
 406060000  -29.770265      82.529466      294.54176    
 406070000  -41.568651      85.234182      304.1947     
 406080000  -43.665939      79.63336       284.20577    
 406090000  -49.095172      78.362235      279.66921    
 406100000  -37.599347      81.624652      291.31254    
 406110000  -26.725996      84.199036      300.50034    
 406120000  -28.955189      90.120315      321.63296    
 406130000  -17.037285      85.077147      303.63425    
 406140000  -15.767102      82.7809        295.43911    
 406150000  -31.63765       79.430652      283.48232    
 406160000  -18.038165      85.81529       306.26863    
 406170000  -23.815333      85.367911      304.67197    
 406180000  -25.149187      83.668319      298.60625    
 406190000  -31.421995      93.163039      332.49222    
 406200000  -27.251889      77.627251      277.04611    
 406210000  -17.376221      72.524889      258.83614    
 406220000  -10.942577      86.835138      309.9084     
 406230000  -16.44127       83.16504       296.81008    
 406240000  -26.922012      85.907818      306.59886    
 406250000  -37.771907      85.246349      304.23812    
 406260000  -27.193426      78.8204        281.30437    
 406270000  -21.006539      72.462523      258.61356    
 406280000  -35.918494      82.530764      294.54639    
 406290000  -23.437025      83.840807      299.22184    
 406300000  -32.133993      78.55012       280.33976    
 406310000  -45.920679      96.102687      342.98362    
 406320000  -30.811254      83.00733       296.24722    
 406330000  -31.216713      79.620031      284.1582     
 406340000  -36.761867      81.680253      291.51098    
 406350000  -30.733145      81.319092      290.22202    
 406360000  -45.122398      84.852808      302.8336     
 406370000  -39.235662      71.584874      255.4813     
 406380000  -30.315434      86.410436      308.39267    
 406390000  -31.666227      79.214331      282.71028    
 406400000  -28.019958      86.62043       309.14212    
 406410000  -18.508067      68.979548      246.18307    
 406420000  -23.701521      80.77984       288.29747    
 406430000  -27.453836      90.648339      323.51744    
 406440000  -23.755806      77.232292      275.63653    
 406450000  -32.412382      73.600243      262.674      
 406460000  -34.628973      92.745835      331.00325    
 406470000  -12.748683      71.786319      256.20024    
 406480000  -28.439707      87.412689      311.96964    
 406490000  -16.182576      85.424963      304.87558    
 406500000  -32.020922      74.327782      265.27054    
 406510000  -30.810521      94.87519       338.60277    
 406520000  -38.087428      84.974504      303.26793    
 406530000  -51.652106      80.280371      286.5149     
 406540000  -39.244864      78.440067      279.94699    
 406550000  -38.454757      67.885172      242.27732    
 406560000  -56.631544      74.210057      264.85039    
 406570000  -48.173341      75.31651       268.79924    
 406580000  -50.494967      87.055384      310.69444    
 406590000  -42.355541      85.207612      304.09987    
 406600000  -36.595936      82.537666      294.57103    
 406610000  -36.777313      88.191218      314.74815    
 406620000  -15.08169       83.777033      298.99424    
 406630000  -14.317884      81.660459      291.44034    
 406640000  -16.032867      89.21717       318.4097     
 406650000  -23.827073      87.719435      313.06439    
 406660000  -33.435628      91.926493      328.07908    
 406670000  -27.254493      100.20161      357.61237    
 406680000  -34.136726      89.600489      319.77774    
 406690000  -23.540942      85.785836      306.16351    
 406700000  -34.145097      90.386246      322.58205    
 406710000  -15.766103      73.633853      262.79396    
 406720000  -19.74799       81.085946      289.38994    
 406730000  -2.6851675      76.080797      271.52692    
 406740000  -16.741728      84.422709      301.29861    
 406750000  -19.795913      95.320072      340.19052    
 406760000  -32.013997      90.356208      322.47484    
 406770000  -28.479551      80.872101      288.62674    
 406780000  -48.43882       89.800582      320.49185    
 406790000  -25.684584      73.20129       261.25017    
 406800000  -16.654215      76.355085      272.50584    
 406810000  -22.26976       88.329936      315.24322    
 406820000  -28.36963       95.363865      340.34681    
 406830000  -22.799437      83.17313       296.83895    
 406840000  -30.946528      81.708905      291.61324    
 406850000  -29.408506      83.014381      296.27239    
 406860000  -23.704182      73.410717      261.9976     
 406870000  -38.011273      89.124632      318.07944    
 406880000  -32.749641      92.553077      330.31531    
 406890000  -29.99658       106.46362      379.96103    
 406900000  -25.10962       104.11466      371.57776    
 406910000  -19.490471      74.361675      265.3915     
 406920000  -35.660664      85.271738      304.32873    
 406930000  -39.962003      88.663772      316.43466    
 406940000  -22.197805      77.33203       275.99248    
 406950000  -35.984413      82.494689      294.41765    
 406960000  -32.424984      75.698194      270.16144    
 406970000  -41.78699       71.646611      255.70163    
 406980000  -25.355971      78.862975      281.45632    
 406990000  -36.715576      83.620313      298.43492    
 407000000  -21.377142      79.990391      285.47999    
 407010000  -19.353363      94.084994      335.78262    
 407020000  -19.87437       85.33423       304.55176    
 407030000  -32.296779      78.129305      278.8379     
 407040000  -32.451024      99.675485      355.73468    
 407050000  -14.077828      83.199377      296.93263    
 407060000  -24.113239      83.737471      298.85304    
 407070000  -39.005212      92.551344      330.30913    
 407080000  -37.042436      88.197897      314.77199    
 407090000  -37.11052       89.415861      319.11881    
 407100000  -39.537976      75.726794      270.26351    
 407110000  -58.532748      86.015528      306.98327    
 407120000  -38.076895      61.864233      220.78902    
 407130000  -49.710331      77.556936      276.79516    
 407140000  -36.82011       78.284453      279.39161    
 407150000  -33.180715      85.495585      305.12763    
 407160000  -13.420088      87.371254      311.82175    
 407170000  -23.148407      89.449037      319.23722    
 407180000  -21.807827      79.57313       283.99081    
 407190000  -20.708041      70.843433      252.83515    
 407200000  -29.393805      83.868798      299.32174    
 407210000  -56.479487      95.934114      342.38199    
 407220000  -43.495879      81.686873      291.53461    
 407230000  -42.038787      82.663545      295.02028    
 407240000  -29.377243      91.642116      327.06416    
 407250000  -61.093597      81.486053      290.8179     
 407260000  -33.062941      89.947478      321.01611    
 407270000  -30.701792      99.468603      354.99633    
 407280000  -20.020956      88.245021      314.94017    
 407290000  -24.897563      75.221509      268.46019    
 407300000  -28.35939       85.672788      305.76005    
 407310000  -22.156606      87.353075      311.75688    
 407320000  -37.400112      91.075749      325.04283    
 407330000  -42.687317      75.986322      271.18975    
 407340000  -19.940008      69.336187      247.45589    
 407350000  -37.015904      94.521543      337.34063    
 407360000  -15.851689      77.075294      275.07621    
 407370000  -23.537769      76.21486       272.00538    
 407380000  -38.006773      83.306254      297.31406    
 407390000  -24.585156      77.770412      277.55704    
 407400000  -30.542125      84.037439      299.92361    
 407410000  -29.040495      86.151779      307.46954    
 407420000  -35.601955      91.901507      327.98991    
 407430000  -39.122746      88.737226      316.69681    
 407440000  -24.13718       73.994585      264.08138    
 407450000  -33.678236      83.426622      297.74365    
 407460000  -33.316721      75.513735      269.50312    
 407470000  -29.382914      88.281907      315.07181    
 407480000  -22.493819      76.841515      274.24187    
 407490000  -34.379247      83.399049      297.64524    
 407500000  -11.583833      66.874027      238.66862    
 407510000  -27.69069       82.446844      294.24689    
 407520000  -29.648406      85.569134      305.39012    
 407530000  -29.082777      89.207691      318.37587    
 407540000  -29.741144      83.287623      297.24757    
 407550000  -28.131476      85.56485       305.37483    
 407560000  -49.597492      77.998088      278.3696     
 407570000  -41.413372      86.95961       310.35263    
 407580000  -28.956277      78.493927      280.13921    
 407590000  -39.550803      98.10507       350.12998    
 407600000  -14.265334      74.136533      264.58798    
 407610000  -30.394701      83.205471      296.95438    
 407620000  -5.6840765      80.444584      287.10097    
 407630000  -33.41563       96.097322      342.96447    
 407640000  -26.4096        78.176491      279.00631    
 407650000  -38.622635      88.003885      314.07957    
 407660000  -27.861483      87.038677      310.63481    
 407670000  -38.226414      81.955399      292.49296    
 407680000  -23.347753      79.193647      282.63646    
 407690000  -16.650067      86.287019      307.9522     
 407700000  -17.838721      81.301762      290.16017    
 407710000  -39.527491      92.33096       329.52259    
 407720000  -48.506032      73.29502       261.58468    
 407730000  -66.431225      70.89334       253.01326    
 407740000  -50.066353      64.352307      229.66878    
 407750000  -41.10757       66.932739      238.87816    
 407760000  -35.530627      76.748558      273.91011    
 407770000  -43.383299      75.009944      267.70512    
 407780000  -36.992458      81.748557      291.75475    
 407790000  -49.169393      95.271451      340.01699    
 407800000  -16.222488      77.15176       275.34911    
 407810000  -15.792601      83.625259      298.45257    
 407820000  -25.985551      85.015516      303.41429    
 407830000  -32.572693      79.934639      285.28101    
 407840000  -51.763727      85.899806      306.57026    
 407850000  -37.686093      81.992595      292.62571    
 407860000  -41.997961      90.012829      321.24935    
 407870000  -34.430174      82.19194       293.33716    
 407880000  -46.800996      91.200952      325.48968    
 407890000  -40.405189      87.39138       311.89358    
 407900000  -29.17317       85.677969      305.77854    
 407910000  -30.47754       87.836839      313.4834     
 407920000  -34.231138      78.823211      281.3144     
 407930000  -46.478174      72.516869      258.80752    
 407940000  -60.232253      81.571325      291.12222    
 407950000  -34.04913       80.880499      288.65672    
 407960000  -33.842033      85.985932      306.87764    
 407970000  -21.872255      84.216149      300.56141    
 407980000  -28.57647       77.87295       277.92299    
 407990000  -4.4391976      81.327324      290.2514     
 408000000  -24.362108      91.033707      324.89279    
Loop time of 352.456 on 1 procs for 4000000 steps with 95 atoms

Performance: 9805.492 ns/day, 0.002 hours/ns, 11348.949 timesteps/s, 1.078 Matom-step/s
99.2% CPU use with 1 MPI tasks x 1 OpenMP threads

MPI task timing breakdown:
Section |  min time  |  avg time  |  max time  |%varavg| %total
---------------------------------------------------------------
Pair    | 304.31     | 304.31     | 304.31     |   0.0 | 86.34
Bond    | 32.314     | 32.314     | 32.314     |   0.0 |  9.17
Neigh   | 2.6903     | 2.6903     | 2.6903     |   0.0 |  0.76
Comm    | 2.5966     | 2.5966     | 2.5966     |   0.0 |  0.74
Output  | 0.21938    | 0.21938    | 0.21938    |   0.0 |  0.06
Modify  | 9.3955     | 9.3955     | 9.3955     |   0.0 |  2.67
Other   |            | 0.9265     |            |       |  0.26

Nlocal:             95 ave          95 max          95 min
Histogram: 1 0 0 0 0 0 0 0 0 0
Nghost:              0 ave           0 max           0 min
Histogram: 1 0 0 0 0 0 0 0 0 0
Neighs:            773 ave         773 max         773 min
Histogram: 1 0 0 0 0 0 0 0 0 0

Total # of neighbors = 773
Ave neighs/atom = 8.1368421
Ave special neighs/atom = 5.8736842
Neighbor list builds = 8377
Dangerous builds = 0

write_data outputs/${tag}_final.data
write_data outputs/config_5_5ML7_A.dat_final.data
System init for write_data ...
Generated 0 of 6 mixed pair_coeff terms from geometric mixing rule
Total wall time: 6:38:16
:32:41
