
# ===============================
# FORCE FIELD
# ===============================
bond_style harmonic
bond_coeff 1 7.5 5.9

angle_style harmonic
angle_coeff 1 5.0 150.0

pair_style hybrid/overlay lj/cut 10.0 base/rna 18.0
pair_modify shift yes
pair_coeff * * lj/cut 2.0 8.9089871814

# Base-pair interactions
pair_coeff 1 1 base/rna 0.00000 3.0 13.8 1.5 0.5 1.8326 0.9425 1.8326 1.1345
pair_coeff 1 2 base/rna 0.00000 3.0 13.8 1.5 0.5 1.8326 0.9425 1.8326 1.1345
pair_coeff 1 3 base/rna 0.00000 3.0 13.8 1.5 0.5 1.8326 0.9425 1.8326 1.1345
pair_coeff 1 4 base/rna 3.33333 3.0 13.8 1.5 0.5 1.8326 0.9425 1.8326 1.1345
pair_coeff 2 2 base/rna 0.00000 3.0 13.8 1.5 0.5 1.8326 0.9425 1.8326 1.1345
pair_coeff 2 3 base/rna 5.00000 3.0 13.8 1.5 0.5 1.8326 0.9425 1.8326 1.1345
pair_coeff 2 4 base/rna 0.00000 3.0 13.8 1.5 0.5 1.8326 0.9425 1.8326 1.1345
pair_coeff 3 3 base/rna 0.00000 3.0 13.8 1.5 0.5 1.8326 0.9425 1.8326 1.1345
pair_coeff 3 4 base/rna 3.33333 3.0 13.8 1.5 0.5 1.8326 0.9425 1.8326 1.1345
pair_coeff 4 4 base/rna 0.00000 3.0 13.8 1.5 0.5 1.8326 0.9425 1.8326 1.1345

special_bonds lj 0.0 0.0 1.0
Finding 1-2 1-3 1-4 neighbors ...
  special bond factors lj:    0        0        1       
  special bond factors coul:  0        0        0       
     2 = max # of 1-2 neighbors
     2 = max # of 1-3 neighbors
     4 = max # of 1-4 neighbors
     6 = max # of special neighbors
  special bonds CPU = 0.000 seconds
neighbor 15.0 bin
neigh_modify every 10 delay 0
comm_style tiled
timestep 10

# ===============================
# DUMPS
# ===============================
dump d1 all custom ${dump_stride} outputs/${tag}.lammpstrj id mol type q xu yu zu
dump d1 all custom 50000 outputs/${tag}.lammpstrj id mol type q xu yu zu
dump d1 all custom 50000 outputs/config_1_2DER_C.dat.lammpstrj id mol type q xu yu zu
dump_modify d1 sort id

# ===============================
# THERMO
# ===============================
thermo_style custom step pe ke temp
thermo ${thermo_stride}
thermo 10000
thermo_modify flush yes

variable vpe equal pe
variable vke equal ke
variable vT  equal temp

fix fa all ave/time ${thermo_stride} 10 ${stride10} v_vpe v_vke v_vT file outputs/thermo_${tag}_averaged.dat
fix fa all ave/time 10000 10 ${stride10} v_vpe v_vke v_vT file outputs/thermo_${tag}_averaged.dat
fix fa all ave/time 10000 10 100000 v_vpe v_vke v_vT file outputs/thermo_${tag}_averaged.dat
fix fa all ave/time 10000 10 100000 v_vpe v_vke v_vT file outputs/thermo_config_1_2DER_C.dat_averaged.dat

# ===============================
# EQUILIBRATION (40 ns)
# ===============================
fix fxnve all nve
variable seed0 equal 43001
fix fxl all langevin ${T_eq} ${T_eq} 100000.0 ${seed0}
fix fxl all langevin 298 ${T_eq} 100000.0 ${seed0}
fix fxl all langevin 298 298 100000.0 ${seed0}
fix fxl all langevin 298 298 100000.0 43001

run ${n_eq}
run 4000000

CITE-CITE-CITE-CITE-CITE-CITE-CITE-CITE-CITE-CITE-CITE-CITE-CITE

Your simulation uses code contributions which should be cited:

- Type Label Framework: https://doi.org/10.1021/acs.jpcb.3c08419

@Article{Gissinger24,
 author = {Jacob R. Gissinger, Ilia Nikiforov, Yaser Afshar, Brendon Waters, Moon-ki Choi, Daniel S. Karls, Alexander Stukowski, Wonpil Im, Hendrik Heinz, Axel Kohlmeyer, and Ellad B. Tadmor},
 title = {Type Label Framework for Bonded Force Fields in LAMMPS},
 journal = {J. Phys. Chem. B},
 year =    2024,
 volume =  128,
 number =  13,
 pages =   {3282–-3297}
}

CITE-CITE-CITE-CITE-CITE-CITE-CITE-CITE-CITE-CITE-CITE-CITE-CITE

Generated 0 of 6 mixed pair_coeff terms from geometric mixing rule
Neighbor list info ...
  update: every = 10 steps, delay = 0 steps, check = yes
  max neighbors/atom: 2000, page size: 100000
  master list distance cutoff = 33
  ghost atom cutoff = 33
  binsize = 16.5, bins = 61 61 61
  2 neighbor lists, perpetual/occasional/extra = 2 0 0
  (1) pair lj/cut, perpetual, trim from (2)
      attributes: half, newton on, cut 25
      pair build: trim
      stencil: none
      bin: none
  (2) pair base/rna, perpetual
      attributes: half, newton on
      pair build: half/bin/newton
      stencil: half/bin/3d
      bin: standard
Per MPI rank memory allocation (min/avg/max) = 8.369 | 8.369 | 8.369 Mbytes
   Step         PotEng         KinEng          Temp     
         0   98.696042      0              0            
     10000   39.575229      61.440122      282.35462    
     20000   33.301398      76.094012      349.69814    
     30000   30.803376      75.717939      347.96985    
     40000   30.799791      65.107901      299.2103     
     50000   28.035233      57.430868      263.92967    
     60000   24.152311      61.452471      282.41138    
     70000   17.143474      60.129286      276.33054    
     80000   19.544382      68.447944      314.55982    
     90000   12.426596      62.830565      288.74455    
    100000   3.7727763      76.914343      353.46806    
    110000   1.259854       70.186351      322.54885    
    120000   8.3616809      59.648723      274.12206    
    130000   6.9204988      56.553887      259.89941    
    140000   6.8875229      65.546537      301.22609    
    150000   9.8369236      64.210848      295.08779    
    160000   2.7736507      59.566378      273.74363    
    170000   4.2279508      67.646424      310.87635    
    180000   9.6190044      59.751288      274.59341    
    190000   8.1564592      69.844283      320.97684    
    200000   3.8972514      68.691469      315.67896    
    210000   7.1341293      66.429688      305.28471    
    220000  -5.1458996      70.423599      323.63915    
    230000  -14.12269       63.381786      291.27775    
    240000  -14.633776      73.737027      338.86636    
    250000  -11.275988      63.601034      292.28533    
    260000  -16.359292      75.346319      346.26203    
    270000  -15.002171      71.59882       329.04       
    280000  -25.378567      71.167264      327.05674    
    290000  -22.441961      61.32628       281.83145    
    300000  -15.431657      68.658791      315.52879    
    310000  -8.9115084      64.550042      296.6466     
    320000  -17.929893      77.648447      356.84171    
    330000  -19.276579      61.534367      282.78774    
    340000  -0.29760919     59.549246      273.6649     
    350000  -19.022011      68.784757      316.10768    
    360000  -22.880635      69.529654      319.53093    
    370000  -3.0710526      60.30402       277.13355    
    380000  -6.4674842      69.316291      318.5504     
    390000  -4.2493491      68.648179      315.48002    
    400000  -13.695312      69.166095      317.86016    
    410000  -24.930099      68.147474      313.17898    
    420000  -29.473509      66.114018      303.83401    
    430000  -35.37064       68.007886      312.53748    
    440000  -30.28676       68.641924      315.45127    
    450000  -33.202072      64.143905      294.78015    
    460000  -8.408681       57.073852      262.28897    
    470000  -30.425767      62.229819      285.98376    
    480000  -26.466147      62.921471      289.16232    
    490000  -27.509916      58.634376      269.46052    
    500000  -29.275641      67.246534      309.03861    
    510000  -22.002796      61.855736      284.26462    
    520000  -20.421159      58.895403      270.6601     
    530000  -25.372696      75.493743      346.93954    
    540000  -21.822817      70.213715      322.67461    
    550000  -10.585082      76.547683      351.78303    
    560000  -10.142401      72.497122      333.16825    
    570000  -5.4604771      66.472887      305.48323    
    580000  -28.518352      64.509826      296.46178    
    590000  -20.140478      60.048707      275.96023    
    600000  -29.871713      65.161287      299.45564    
    610000  -14.951717      68.112433      313.01794    
    620000  -7.5419673      59.552843      273.68144    
    630000  -8.6418926      75.905723      348.83284    
    640000  -10.695507      64.02056       294.2133     
    650000  -19.861127      69.536424      319.56204    
    660000  -13.165046      68.493581      314.76955    
    670000  -20.735628      70.51582       324.06296    
    680000  -37.637034      73.384786      337.2476     
    690000  -33.044488      71.258001      327.47373    
    700000  -23.723442      72.65969       333.91534    
    710000  -33.428213      63.270113      290.76454    
    720000  -24.063011      66.460436      305.42601    
    730000  -38.514207      78.861623      362.41699    
    740000  -25.3577        63.87161       293.52879    
    750000  -38.347033      61.780398      283.9184     
    760000  -42.074989      64.1357        294.74244    
    770000  -37.432457      65.456687      300.81318    
    780000  -36.422844      63.879713      293.56603    
    790000  -30.518916      63.825423      293.31653    
    800000  -40.52311       68.33682       314.04914    
    810000  -30.747044      54.299268      249.53807    
    820000  -34.911718      68.454319      314.58912    
    830000  -32.650453      62.315331      286.37674    
    840000  -40.202227      64.122666      294.68254    
    850000  -33.408182      65.003659      298.73124    
    860000  -35.500976      65.662148      301.7574     
    870000  -28.582818      63.087046      289.92324    
    880000  -36.944877      69.148036      317.77717    
    890000  -36.451968      72.813868      334.62389    
    900000  -31.250413      70.056987      321.95435    
    910000  -26.890388      69.512085      319.45019    
    920000  -35.157834      81.108163      372.7412     
    930000  -37.867201      52.174317      239.77263    
    940000  -59.924457      65.53855       301.18939    
    950000  -48.452183      60.275976      277.00467    
    960000  -41.011609      75.335721      346.21333    
    970000  -62.488172      76.623961      352.13358    
    980000  -44.934968      58.380022      268.29161    
    990000  -52.799135      63.559629      292.09505    
   1000000  -45.195694      58.851525      270.45845    
   1010000  -64.720809      60.170432      276.51963    
   1020000  -66.045098      67.525368      310.32002    
   1030000  -61.318631      57.061653      262.2329     
   1040000  -51.178249      60.993441      280.30185    
   1050000  -51.584382      77.799108      357.53409    
   1060000  -37.439067      71.142758      326.94412    
   1070000  -34.718284      65.589615      301.42406    
   1080000  -36.202121      66.550401      305.83946    
   1090000  -48.989319      59.581775      273.81439    
   1100000  -39.021461      55.586168      255.45216    
   1110000  -41.362609      64.685184      297.26765    
   1120000  -34.293637      61.993801      284.89912    
   1130000  -43.308321      63.38861       291.30911    
   1140000  -48.067539      68.929229      316.77161    
   1150000  -29.317619      75.437647      346.68174    
   1160000  -34.549356      64.976878      298.60816    
   1170000  -56.217983      66.70485       306.54924    
   1180000  -54.112946      61.446103      282.38211    
   1190000  -55.342305      69.213849      318.07962    
   1200000  -57.465498      62.871253      288.93154    
   1210000  -62.089755      61.665271      283.38932    
   1220000  -57.129454      70.694938      324.88612    
   1230000  -56.662143      63.882735      293.57991    
   1240000  -48.931208      67.438205      309.91945    
   1250000  -54.430519      71.100256      326.7488     
   1260000  -62.299858      58.196509      267.44826    
   1270000  -69.07698       57.748769      265.39062    
   1280000  -53.35867       51.060062      234.65195    
   1290000  -45.910835      71.125741      326.86592    
   1300000  -54.956724      71.992139      330.84755    
   1310000  -32.443749      68.528502      314.93003    
   1320000  -22.75172       66.282965      304.61043    
   1330000  -42.419415      75.639757      347.61056    
   1340000  -38.631233      66.139027      303.94894    
   1350000  -48.195924      71.406604      328.15666    
   1360000  -43.503908      62.944441      289.26788    
   1370000  -50.854667      78.989706      363.00561    
   1380000  -43.770446      75.377751      346.40649    
   1390000  -40.054918      60.723002      279.05903    
   1400000  -23.891555      78.745402      361.88288    
   1410000  -10.516124      68.709198      315.76044    
   1420000  -16.984994      67.690036      311.07677    
   1430000  -21.289956      71.177841      327.10535    
   1440000  -24.97157       59.167786      271.91187    
   1450000  -31.63093       59.864051      275.11163    
   1460000  -28.990085      67.178293      308.725      
   1470000  -48.426468      73.11267       335.99706    
   1480000  -39.75652       65.62444       301.5841     
   1490000  -40.59721       57.72059       265.26112    
   1500000  -38.856406      63.635184      292.44227    
   1510000  -42.617082      70.130514      322.29225    
   1520000  -22.636855      72.330757      332.4037     
   1530000  -50.906428      70.737131      325.08002    
   1540000  -45.48785       72.085376      331.27602    
   1550000  -45.826695      67.389116      309.69386    
   1560000  -37.596049      57.186597      262.8071     
   1570000  -47.94394       67.136623      308.5335     
   1580000  -47.340459      69.440652      319.12191    
   1590000  -51.013881      63.232051      290.58963    
   1600000  -46.519768      62.166038      285.69065    
   1610000  -61.34251       70.496706      323.97512    
   1620000  -64.724303      56.194635      258.24843    
   1630000  -54.801209      66.237753      304.40265    
   1640000  -41.600278      67.342114      309.47786    
   1650000  -41.402792      56.779914      260.93815    
   1660000  -47.30058       69.305818      318.50227    
   1670000  -42.367408      68.023468      312.6091     
   1680000  -51.209206      59.758399      274.62609    
   1690000  -42.374565      63.82792       293.32801    
   1700000  -38.564761      70.767467      325.21943    
   1710000  -39.288388      72.699339      334.09756    
   1720000  -46.453763      66.217773      304.31083    
   1730000  -44.371542      76.111829      349.78002    
   1740000  -39.188565      77.757888      357.34466    
   1750000  -45.084055      70.372374      323.40374    
   1760000  -52.126095      68.309768      313.92482    
   1770000  -56.106031      62.617131      287.7637     
   1780000  -48.292438      61.315825      281.78341    
   1790000  -56.859952      65.866906      302.69838    
   1800000  -49.637635      67.96721       312.35055    
   1810000  -43.874726      66.435134      305.30974    
   1820000  -39.450529      66.804132      307.0055     
   1830000  -29.147536      59.224601      272.17296    
   1840000  -52.069794      70.564917      324.28859    
   1850000  -52.180832      66.380069      305.05668    
   1860000  -54.503051      58.48458       268.77212    
   1870000  -46.046745      70.405835      323.55751    
   1880000  -34.224322      58.710217      269.80906    
   1890000  -29.978055      64.100636      294.5813     
   1900000  -32.37526       62.12171       285.48694    
   1910000  -35.050666      66.321811      304.78895    
   1920000  -43.632859      65.758869      302.20189    
   1930000  -47.426381      68.453751      314.58651    
   1940000  -48.3363        68.172687      313.29484    
   1950000  -50.854321      66.319437      304.77804    
   1960000  -45.581122      76.099659      349.72409    
   1970000  -33.991049      57.995788      266.52582    
   1980000  -41.975956      67.982956      312.42292    
   1990000  -34.077907      65.429912      300.69013    
   2000000  -52.376024      76.230456      350.32518    
   2010000  -29.061443      71.991843      330.84619    
   2020000  -33.3675        62.858514      288.873      
   2030000  -27.8784        68.941387      316.82749    
   2040000  -31.201172      68.453039      314.58323    
   2050000  -39.383356      69.302588      318.48743    
   2060000  -36.544034      73.815094      339.22513    
   2070000  -39.753654      75.32576       346.16756    
   2080000  -24.78424       72.160958      331.62337    
   2090000  -35.276369      71.62877       329.17764    
   2100000  -42.499356      72.471164      333.04895    
   2110000  -22.46533       69.922275      321.33526    
   2120000  -26.788694      65.924081      302.96114    
   2130000  -46.052865      62.420503      286.86007    
   2140000  -42.969107      66.491459      305.56859    
   2150000  -35.935146      58.913014      270.74103    
   2160000  -47.31225       60.149009      276.42118    
   2170000  -50.46745       60.757191      279.21614    
   2180000  -49.3137        72.697423      334.08875    
   2190000  -61.312542      62.690553      288.10112    
   2200000  -43.833661      59.889682      275.22941    
   2210000  -52.434085      62.042058      285.12088    
   2220000  -41.092322      59.352786      272.76205    
   2230000  -54.365207      62.43726       286.93708    
   2240000  -49.25324       60.869769      279.73351    
   2250000  -48.072176      69.145129      317.76381    
   2260000  -47.31556       68.846554      316.39168    
   2270000  -37.112274      64.725285      297.45194    
   2280000  -60.455216      64.384568      295.88614    
   2290000  -38.696669      65.557474      301.27635    
   2300000  -45.223435      59.69233       274.32246    
   2310000  -39.873744      64.593168      296.84479    
   2320000  -40.409726      61.873764      284.34747    
   2330000  -58.124332      64.395289      295.93541    
   2340000  -50.703357      60.581586      278.40913    
   2350000  -44.343901      64.912597      298.31276    
   2360000  -45.612128      64.985463      298.64762    
   2370000  -46.406937      67.897945      312.03224    
   2380000  -57.08783       65.489875      300.9657     
   2390000  -56.510394      53.452159      245.64509    
   2400000  -48.752049      78.101853      358.92539    
   2410000  -41.861324      63.816555      293.27577    
   2420000  -46.730947      69.132103      317.70394    
   2430000  -43.192631      72.038078      331.05866    
   2440000  -52.619806      71.984182      330.81098    
   2450000  -37.682376      64.731436      297.48021    
   2460000  -33.275247      74.183356      340.91751    
   2470000  -32.251439      71.241524      327.39802    
   2480000  -39.754729      67.741639      311.31392    
   2490000  -38.233388      68.27569       313.76821    
   2500000  -59.425383      75.009834      344.71568    
   2510000  -54.961274      66.84845       307.20917    
   2520000  -51.002623      56.16271       258.10172    
   2530000  -61.224782      66.026414      303.43142    
   2540000  -50.304755      59.790554      274.77386    
   2550000  -49.381521      66.718766      306.6132     
   2560000  -49.401683      61.766513      283.85459    
   2570000  -53.132781      63.356367      291.16093    
   2580000  -58.601911      71.722475      329.60827    
   2590000  -48.732182      62.153995      285.63531    
   2600000  -62.181482      65.935945      303.01566    
   2610000  -46.179636      63.249396      290.66934    
   2620000  -49.823253      63.478067      291.72022    
   2630000  -45.841686      69.338286      318.65148    
   2640000  -50.03914       69.936455      321.40043    
   2650000  -56.640852      69.994129      321.66547    
   2660000  -54.724836      71.352242      327.90683    
   2670000  -44.041547      58.396124      268.36561    
   2680000  -51.964135      64.930294      298.39408    
   2690000  -45.280507      67.901658      312.0493     
   2700000  -54.97731       64.361915      295.78204    
   2710000  -60.958861      64.683954      297.262      
   2720000  -43.871558      65.050444      298.94624    
   2730000  -47.00537       73.969456      339.93452    
   2740000  -56.051975      88.126563      404.99501    
   2750000  -36.401731      59.336258      272.68609    
   2760000  -45.771623      78.188558      359.32385    
   2770000  -52.012351      73.838949      339.33476    
   2780000  -35.130596      66.983477      307.8297     
   2790000  -43.816325      69.692883      320.28107    
   2800000  -42.727927      69.611847      319.90866    
   2810000  -46.797152      74.01506       340.14409    
   2820000  -52.474315      61.820456      284.10249    
   2830000  -43.235528      56.526474      259.77343    
   2840000  -51.66508       59.202534      272.07155    
   2850000  -55.140169      68.158777      313.23092    
   2860000  -52.515559      69.140093      317.74066    
   2870000  -50.054248      53.246772      244.70121    
   2880000  -48.828804      57.046555      262.16352    
   2890000  -56.55555       67.899882      312.04114    
   2900000  -42.452532      59.190007      272.01398    
   2910000  -65.126985      67.74191       311.31516    
   2920000  -66.542987      65.000053      298.71467    
   2930000  -63.509326      63.731856      292.88653    
   2940000  -59.649049      61.54406       282.83228    
   2950000  -56.605784      64.448616      296.18048    
   2960000  -48.178598      61.715404      283.61971    
   2970000  -39.542251      62.160536      285.66536    
   2980000  -43.274574      75.521881      347.06885    
   2990000  -49.387394      62.333122      286.4585     
   3000000  -45.427422      59.299216      272.51586    
   3010000  -54.96647       61.73692       283.71859    
   3020000  -49.365526      65.787159      302.3319     
   3030000  -49.901958      61.967463      284.77808    
   3040000  -49.74556       71.723656      329.6137     
   3050000  -58.0769        68.484141      314.72617    
   3060000  -61.255899      68.448889      314.56416    
   3070000  -48.150712      60.781961      279.32998    
   3080000  -56.429324      63.755229      292.99395    
   3090000  -55.694486      70.395683      323.51086    
   3100000  -37.742171      67.929854      312.17888    
   3110000  -44.59457       70.657818      324.71553    
   3120000  -42.159679      64.203565      295.05432    
   3130000  -50.550661      64.575254      296.76246    
   3140000  -68.187283      70.008844      321.7331     
   3150000  -58.451555      70.493694      323.96128    
   3160000  -42.259957      64.803322      297.81057    
   3170000  -49.635838      64.23927       295.21841    
   3180000  -34.40206       63.017147      289.60201    
   3190000  -56.12818       76.481022      351.47669    
   3200000  -54.376841      68.253762      313.66743    
   3210000  -60.165188      58.041176      266.73441    
   3220000  -56.699585      74.344082      341.65615    
   3230000  -58.838511      74.065599      340.37635    
   3240000  -64.821229      63.352014      291.14093    
   3250000  -51.846417      63.950689      293.8922     
   3260000  -36.305242      67.16332       308.65619    
   3270000  -46.97898       62.197879      285.83698    
   3280000  -51.385957      60.194652      276.63094    
   3290000  -39.577101      69.98636       321.62977    
   3300000  -44.089229      81.485724      374.47633    
   3310000  -55.471618      74.559565      342.64642    
   3320000  -58.900532      70.129608      322.28809    
   3330000  -56.846717      59.683906      274.28375    
   3340000  -57.212073      53.711207      246.83557    
   3350000  -67.967204      58.649898      269.53186    
   3360000  -66.959987      53.164445      244.32287    
   3370000  -57.475382      56.105117      257.83704    
   3380000  -54.021382      63.092615      289.94884    
   3390000  -70.955128      58.122964      267.11027    
   3400000  -71.159921      48.518771      222.97318    
   3410000  -49.765425      45.767415      210.32903    
   3420000  -51.260632      72.041825      331.07588    
   3430000  -53.042055      66.869962      307.30803    
   3440000  -49.403343      68.782117      316.09555    
   3450000  -47.846517      79.205802      363.9987     
   3460000  -51.150673      64.611754      296.9302     
   3470000  -53.473399      66.956192      307.70431    
   3480000  -46.816327      58.343926      268.12573    
   3490000  -40.598125      61.372866      282.04555    
   3500000  -32.951577      66.002545      303.32173    
   3510000  -33.276521      67.335374      309.44689    
   3520000  -47.527329      70.629624      324.58596    
   3530000  -65.042274      80.362678      369.31525    
   3540000  -51.657772      54.304545      249.56232    
   3550000  -53.580196      65.85093       302.62496    
   3560000  -54.42993       65.616481      301.54753    
   3570000  -43.782068      53.367537      245.2562     
   3580000  -40.329847      57.492039      264.21079    
   3590000  -50.524287      60.477914      277.93269    
   3600000  -65.470583      68.0352        312.66301    
   3610000  -51.086543      59.515077      273.50788    
   3620000  -52.75287       63.319221      290.99023    
   3630000  -56.691371      62.099388      285.38435    
   3640000  -45.35998       63.122862      290.08784    
   3650000  -41.180401      57.049728      262.1781     
   3660000  -55.880464      62.411104      286.81688    
   3670000  -51.09866       67.564176      310.49837    
   3680000  -42.401821      62.472498      287.09902    
   3690000  -51.021924      72.967776      335.33119    
   3700000  -51.651232      65.531267      301.15592    
   3710000  -49.407643      66.643563      306.26759    
   3720000  -46.172682      64.757319      297.59916    
   3730000  -55.694461      74.944013      344.41319    
   3740000  -56.890765      64.295646      295.47749    
   3750000  -50.858897      54.398557      249.99436    
   3760000  -54.516301      57.829191      265.76021    
   3770000  -51.38975       70.947008      326.04453    
   3780000  -50.374409      65.268893      299.95015    
   3790000  -53.355524      67.909594      312.08577    
   3800000  -54.152893      65.18171       299.54949    
   3810000  -44.101856      69.448654      319.15869    
   3820000  -57.188862      69.169206      317.87446    
   3830000  -56.844692      65.084585      299.10314    
   3840000  -48.971404      58.950789      270.91463    
   3850000  -49.069361      68.543347      314.99825    
   3860000  -52.212637      78.083634      358.84166    
   3870000  -43.46771       60.039745      275.91904    
   3880000  -48.249865      63.620481      292.3747     
   3890000  -58.151636      61.409654      282.21461    
   3900000  -65.822664      57.183469      262.79272    
   3910000  -51.861571      60.968735      280.18832    
   3920000  -52.873511      59.305803      272.54614    
   3930000  -60.937427      68.781049      316.09064    
   3940000  -56.86021       59.865856      275.11992    
   3950000  -52.829607      63.415102      291.43086    
   3960000  -52.466019      72.236121      331.96879    
   3970000  -50.104127      81.114777      372.7716     
   3980000  -52.491609      67.155581      308.62063    
   3990000  -43.899895      75.777902      348.24542    
   4000000  -31.272262      68.949503      316.86478    
Loop time of 275.252 on 1 procs for 4000000 steps with 74 atoms

Performance: 12555.761 ns/day, 0.002 hours/ns, 14532.131 timesteps/s, 1.075 Matom-step/s
99.6% CPU use with 1 MPI tasks x 1 OpenMP threads

MPI task timing breakdown:
Section |  min time  |  avg time  |  max time  |%varavg| %total
---------------------------------------------------------------
Pair    | 250.04     | 250.04     | 250.04     |   0.0 | 90.84
Bond    | 14.509     | 14.509     | 14.509     |   0.0 |  5.27
Neigh   | 1.279      | 1.279      | 1.279      |   0.0 |  0.46
Comm    | 1.7681     | 1.7681     | 1.7681     |   0.0 |  0.64
Output  | 0.081149   | 0.081149   | 0.081149   |   0.0 |  0.03
Modify  | 6.7833     | 6.7833     | 6.7833     |   0.0 |  2.46
Other   |            | 0.7941     |            |       |  0.29

Nlocal:             74 ave          74 max          74 min
Histogram: 1 0 0 0 0 0 0 0 0 0
Nghost:             51 ave          51 max          51 min
Histogram: 1 0 0 0 0 0 0 0 0 0
Neighs:            764 ave         764 max         764 min
Histogram: 1 0 0 0 0 0 0 0 0 0

Total # of neighbors = 764
Ave neighs/atom = 10.324324
Ave special neighs/atom = 5.8378378
Neighbor list builds = 7785
Dangerous builds = 0

# ===============================
# MAIN SA LOOP — 10 cycles
# ===============================
variable c loop ${ncycle}
variable c loop 10
label cyc

  # Heat 298 → 500
  variable seedH equal 44000+${c}
  variable seedH equal 44000+1
  unfix fxl
  fix fxl all langevin ${T_eq} ${T_high} 100000.0 ${seedH}
  fix fxl all langevin 298 ${T_high} 100000.0 ${seedH}
  fix fxl all langevin 298 500 100000.0 ${seedH}
  fix fxl all langevin 298 500 100000.0 44001
  run ${n_heat}
  run 8000000
Generated 0 of 6 mixed pair_coeff terms from geometric mixing rule
Per MPI rank memory allocation (min/avg/max) = 9.629 | 9.629 | 9.629 Mbytes
   Step         PotEng         KinEng          Temp     
   4000000  -31.272262      68.949503      316.86478    
   4010000  -38.144758      72.554165      333.43039    
   4020000  -44.386142      58.6269        269.42617    
   4030000  -60.656805      66.556803      305.86888    
   4040000  -58.78909       69.771892      320.64416    
   4050000  -48.789762      51.774613      237.93575    
   4060000  -68.084456      61.490462      282.58597    
   4070000  -55.099976      60.503444      278.05002    
   4080000  -61.449697      66.252187      304.46898    
   4090000  -65.880904      65.789589      302.34307    
   4100000  -56.350183      59.962935      275.56606    
   4110000  -48.287306      67.759817      311.39746    
   4120000  -42.374544      71.204134      327.22618    
   4130000  -42.584331      68.247499      313.63865    
   4140000  -50.665196      69.084935      317.48718    
   4150000  -44.238863      59.322543      272.62306    
   4160000  -31.09149       63.752502      292.98142    
   4170000  -55.421797      78.18372       359.30162    
   4180000  -52.169339      59.094661      271.57581    
   4190000  -61.238596      62.663864      287.97846    
   4200000  -61.706799      64.127209      294.70342    
   4210000  -61.969468      58.39271       268.34992    
   4220000  -77.073864      62.508441      287.2642     
   4230000  -50.502343      57.011092      262.00055    
   4240000  -40.396743      69.318484      318.56048    
   4250000  -46.226787      70.962443      326.11547    
   4260000  -50.722781      69.286142      318.41185    
   4270000  -45.759308      62.063005      285.21715    
   4280000  -35.683669      65.270304      299.95664    
   4290000  -49.815155      58.378784      268.28592    
   4300000  -51.72802       63.673677      292.61917    
   4310000  -41.082903      58.582488      269.22206    
   4320000  -29.072076      66.221148      304.32634    
   4330000  -43.405972      63.75014       292.97056    
   4340000  -40.289618      68.735755      315.88248    
   4350000  -38.884987      80.958722      372.05443    
   4360000  -14.223371      61.240157      281.43567    
   4370000  -24.603224      68.08738       312.90281    
   4380000  -27.488549      62.821792      288.70424    
   4390000  -41.017478      70.913762      325.89175    
   4400000  -44.011728      64.491246      296.37639    
   4410000  -48.799076      70.775744      325.25747    
   4420000  -41.388475      63.978764      294.02123    
   4430000  -46.730206      77.680159      356.98745    
   4440000  -38.806476      76.709774      352.52794    
   4450000  -40.238663      64.673723      297.21498    
   4460000  -35.256723      73.54785       337.99698    
   4470000  -39.546208      72.427744      332.84941    
   4480000  -52.854894      72.274247      332.144      
   4490000  -46.258343      61.844854      284.21461    
   4500000  -37.173644      56.261194      258.55431    
   4510000  -38.335157      70.290449      323.02725    
   4520000  -37.131486      70.050293      321.92358    
   4530000  -45.73701       71.321104      327.76373    
   4540000  -38.747141      74.080266      340.44376    
   4550000  -38.539082      68.812231      316.23394    
   4560000  -46.783612      78.557634      361.01998    
   4570000  -46.786072      65.176722      299.52657    
   4580000  -49.733859      70.636022      324.61537    
   4590000  -54.182286      66.252128      304.46871    
   4600000  -50.558937      56.423992      259.30247    
   4610000  -48.585211      59.807305      274.85084    
   4620000  -46.116314      65.620637      301.56663    
   4630000  -45.162617      71.128521      326.87869    
   4640000  -31.758536      67.546198      310.41575    
   4650000  -47.40361       75.424052      346.61926    
   4660000  -43.119321      68.805322      316.20219    
   4670000  -38.615987      78.970888      362.91913    
   4680000  -45.566541      67.19178       308.78698    
   4690000  -54.188493      69.399126      318.93108    
   4700000  -39.31534       78.166846      359.22407    
   4710000  -40.33241       71.109762      326.79249    
   4720000  -51.318784      83.921202      385.66882    
   4730000  -37.077911      70.696655      324.89401    
   4740000  -46.971489      73.019416      335.5685     
   4750000  -35.411509      81.876331      376.2714     
   4760000  -30.000306      71.33842       327.84331    
   4770000  -39.283928      65.230045      299.77162    
   4780000  -55.560276      80.873874      371.6645     
   4790000  -45.848452      64.593283      296.84532    
   4800000  -51.906973      74.440683      342.10009    
   4810000  -50.526872      70.353129      323.3153     
   4820000  -46.520646      70.503016      324.00412    
   4830000  -46.2035        74.771471      343.62026    
   4840000  -37.363686      69.552229      319.63468    
   4850000  -27.794254      68.122601      313.06467    
   4860000  -20.056232      76.027129      349.39077    
   4870000  -34.385838      75.482799      346.88924    
   4880000  -42.133449      61.958662      284.73763    
   4890000  -40.032421      66.869215      307.3046     
   4900000  -42.505441      82.161637      377.58256    
   4910000  -27.858441      73.955067      339.86839    
   4920000  -36.070687      81.457229      374.34538    
   4930000  -36.281422      72.009902      330.92917    
   4940000  -28.12845       55.895961      256.87584    
   4950000  -29.03894       58.372367      268.25643    
   4960000  -36.332712      72.354134      332.51113    
   4970000  -40.851164      70.456654      323.79106    
   4980000  -40.940457      68.060448      312.77904    
   4990000  -42.782783      59.316194      272.59389    
   5000000  -47.65424       73.148406      336.16129    
   5010000  -34.921559      72.002172      330.89365    
   5020000  -36.200948      70.680697      324.82067    
   5030000  -41.084543      77.766838      357.38579    
   5040000  -37.960864      65.689638      301.88373    
   5050000  -41.249966      87.056333      400.07665    
   5060000  -27.758082      75.685816      347.82223    
   5070000  -28.340211      75.921089      348.90345    
   5080000  -27.668883      81.669046      375.3188     
   5090000  -40.145502      73.347898      337.07808    
   5100000  -34.973428      77.182153      354.69881    
   5110000  -28.266557      78.576922      361.10862    
   5120000  -27.209475      68.477741      314.69676    
   5130000  -25.848341      70.953635      326.07499    
   5140000  -31.836204      81.738428      375.63765    
   5150000  -40.071865      74.288815      341.40216    
   5160000  -27.91771       66.538303      305.78386    
   5170000  -32.79394       76.890011      353.35624    
   5180000  -28.953665      71.69539       329.4838     
   5190000  -44.74879       80.619104      370.49368    
   5200000  -34.591549      74.680323      343.20138    
   5210000  -29.709217      75.376335      346.39998    
   5220000  -40.967832      82.618172      379.68061    
   5230000  -50.267716      67.351075      309.51904    
   5240000  -47.035145      69.696458      320.2975     
   5250000  -49.443962      70.025499      321.80964    
   5260000  -45.506696      69.008498      317.1359     
   5270000  -29.602438      76.708811      352.52351    
   5280000  -23.739897      64.88275       298.17559    
   5290000  -22.268489      79.381005      364.80387    
   5300000  -27.17967       73.214399      336.46457    
   5310000  -20.221723      79.194341      363.94603    
   5320000  -26.260467      67.975096      312.38679    
   5330000  -26.720181      76.708285      352.52109    
   5340000  -24.164801      72.187813      331.74679    
   5350000  -21.704571      64.50572       296.44291    
   5360000  -26.126434      67.114599      308.43229    
   5370000  -16.169708      71.239836      327.39026    
   5380000  -11.385171      69.505688      319.42079    
   5390000  -14.929709      80.602184      370.41592    
   5400000  -20.564023      89.489839      411.26009    
   5410000  -9.6607918      63.33576       291.06623    
   5420000  -34.116094      75.076125      345.02033    
   5430000  -27.058363      70.17865       322.51346    
   5440000  -35.691418      77.856193      357.79643    
   5450000  -35.307419      70.990848      326.246      
   5460000  -39.516911      89.393364      410.81673    
   5470000  -16.76221       67.769309      311.44108    
   5480000  -14.054224      77.787023      357.47855    
   5490000  -21.394945      75.573658      347.30679    
   5500000  -15.536929      69.154526      317.80699    
   5510000  -18.993979      72.44171       332.91359    
   5520000  -23.501129      79.145048      363.7195     
   5530000  -21.529594      64.075853      294.46741    
   5540000  -17.160788      65.992857      303.27721    
   5550000  -37.398744      74.201706      341.00184    
   5560000  -18.128992      77.763805      357.37185    
   5570000  -33.477508      83.936123      385.7374     
   5580000  -20.4499        79.976705      367.54147    
   5590000  -15.121137      83.55871       384.00295    
   5600000  -18.917296      74.045553      340.28423    
   5610000  -20.850108      79.777508      366.62604    
   5620000  -24.541102      82.543792      379.33879    
   5630000  -16.276176      66.083707      303.69471    
   5640000  -15.521891      74.492528      342.33835    
   5650000  -32.147895      75.279464      345.95479    
   5660000  -26.634627      82.403425      378.69372    
   5670000  -34.463351      84.389057      387.8189     
   5680000  -24.486827      73.966929      339.9229     
   5690000  -31.746513      79.005084      363.07628    
   5700000  -30.933442      81.847526      376.13902    
   5710000  -34.475845      69.893987      321.20527    
   5720000  -34.17571       77.519591      356.24954    
   5730000  -36.592567      78.708764      361.71451    
   5740000  -9.3536903      78.53026       360.89418    
   5750000  -15.363148      69.804121      320.79228    
   5760000  -7.5237671      81.284923      373.55352    
   5770000  -6.0492243      70.902307      325.83911    
   5780000  -28.246972      72.99237       335.44421    
   5790000  -21.830833      79.86097       367.00959    
   5800000  -21.308188      77.061385      354.1438     
   5810000  -18.009846      71.586865      328.98506    
   5820000  -16.774102      69.120978      317.65282    
   5830000  -19.089606      73.448143      337.53877    
   5840000  -23.512886      83.718331      384.73651    
   5850000  -22.724668      81.463009      374.37194    
   5860000  -30.767078      68.310339      313.92744    
   5870000  -53.974264      84.894615      390.14225    
   5880000  -42.745468      75.230442      345.72951    
   5890000  -29.629373      70.897143      325.81537    
   5900000  -32.978236      68.477449      314.69541    
   5910000  -19.78635       69.891152      321.19223    
   5920000  -19.730253      70.910535      325.87692    
   5930000  -15.373899      78.778859      362.03664    
   5940000  -21.639676      77.649408      356.84612    
   5950000  -13.6678        63.575179      292.16651    
   5960000  -4.108047       77.415989      355.77343    
   5970000  -13.74616       79.013692      363.11584    
   5980000  -18.116203      86.997776      399.80755    
   5990000  -0.54400993     68.611014      315.30922    
   6000000  -11.022201      72.39424       332.69544    
   6010000  -0.92422152     90.041628      413.79589    
   6020000   8.3646747      77.347676      355.45948    
   6030000   6.0623072      80.033101      367.80064    
   6040000  -0.89187966     75.217101      345.6682     
   6050000  -1.4626535      74.571642      342.70193    
   6060000  -10.721887      82.576472      379.48898    
   6070000  -3.3354692      70.582745      324.37052    
   6080000  -20.147201      78.708645      361.71396    
   6090000  -7.6015663      81.537429      374.71394    
   6100000  -22.309629      91.489618      420.45028    
   6110000  -19.993705      83.156304      382.15365    
   6120000  -24.764487      87.219748      400.82765    
   6130000  -18.841855      83.256527      382.61424    
   6140000  -7.2724163      84.645721      388.99843    
   6150000  -12.740516      71.393756      328.09761    
   6160000  -26.141431      67.890063      311.99602    
   6170000  -20.313527      90.221192      414.6211     
   6180000  -2.7369995      71.731207      329.6484     
   6190000   3.2090464      69.212293      318.07247    
   6200000  -15.943196      74.524586      342.48567    
   6210000  -4.2756862      72.480617      333.0924     
   6220000   4.0017866      86.825347      399.01513    
   6230000   15.975003      80.272676      368.90163    
   6240000  -15.244269      86.714914      398.50762    
   6250000  -13.553152      68.399547      314.33741    
   6260000  -16.680443      81.695746      375.4415     
   6270000  -13.448118      74.414916      341.98168    
   6280000  -7.5298259      73.22914       336.53231    
   6290000  -14.834808      75.68644       347.8251     
   6300000  -12.652576      68.221406      313.51874    
   6310000  -18.054519      75.373056      346.38491    
   6320000  -12.411756      79.746436      366.48324    
   6330000  -29.20688       76.563573      351.85606    
   6340000  -17.300073      91.622298      421.06003    
   6350000  -30.149765      92.692816      425.97971    
   6360000  -11.285253      80.438716      369.66469    
   6370000  -26.208845      75.556863      347.22961    
   6380000  -30.002554      71.636636      329.21379    
   6390000  -27.550749      83.751025      384.88676    
   6400000  -10.204867      72.516822      333.25878    
   6410000  -1.9656058      75.106896      345.16174    
   6420000  -22.438224      78.718392      361.75876    
   6430000  -18.059422      70.10426       322.17159    
   6440000  -21.011819      83.835155      385.27338    
   6450000  -14.312966      87.958309      404.22178    
   6460000  -14.304886      78.531703      360.90081    
   6470000  -16.08291       70.634789      324.6097     
   6480000  -17.521202      76.632365      352.1722     
   6490000  -12.84184       75.782336      348.2658     
   6500000   0.28446994     85.3812        392.3784     
   6510000   3.9543531      79.975994      367.5382     
   6520000  -9.799279       92.34812       424.39562    
   6530000   4.280012       85.006954      390.65851    
   6540000  -6.0475966      81.273929      373.503      
   6550000  -7.5072766      81.15196       372.94248    
   6560000   9.2345398      83.881892      385.48817    
   6570000   9.2183535      85.846825      394.51823    
   6580000  -22.004026      92.097809      423.24529    
   6590000  -10.310287      83.324343      382.92589    
   6600000  -20.55327       70.275229      322.9573     
   6610000  -41.59686       89.974791      413.48874    
   6620000  -37.734244      78.060179      358.73387    
   6630000  -6.5147365      65.190997      299.59217    
   6640000  -26.760024      81.422059      374.18375    
   6650000  -17.93757       79.392391      364.85619    
   6660000  -4.4969528      81.181155      373.07665    
   6670000  -14.063351      90.670775      416.68721    
   6680000  -22.139454      84.323646      387.5183     
   6690000  -16.813792      82.843948      380.71819    
   6700000  -5.0761888      75.646755      347.64272    
   6710000   3.2571656      79.484552      365.27973    
   6720000   13.580495      90.557443      416.16638    
   6730000   4.5069473      94.233702      433.06101    
   6740000  -18.904756      80.302522      369.0388     
   6750000  -24.626663      76.461555      351.38722    
   6760000  -33.082557      82.181737      377.67493    
   6770000  -27.639231      82.081579      377.21464    
   6780000  -20.807089      77.410472      355.74807    
   6790000  -19.055835      75.113912      345.19398    
   6800000  -21.99131       88.289438      405.74352    
   6810000  -22.911951      86.442581      397.25609    
   6820000   1.1250064      74.357679      341.71864    
   6830000  -8.0399589      86.065385      395.52265    
   6840000   7.2476105      84.67886       389.15072    
   6850000  -1.6844906      89.370533      410.71181    
   6860000  -6.9738547      91.224421      419.23155    
   6870000  -18.271768      89.379432      410.7527     
   6880000  -17.394179      85.752417      394.08437    
   6890000  -5.8741738      84.36075       387.68881    
   6900000  -1.4627573      77.700024      357.07874    
   6910000  -5.8664         84.114272      386.5561     
   6920000  -7.1471578      89.207599      409.96303    
   6930000  -11.101483      81.479507      374.44776    
   6940000  -8.6784425      83.698738      384.64647    
   6950000  -8.6802166      88.663176      407.46107    
   6960000   2.6742394      85.421026      392.56143    
   6970000   4.5382045      72.261889      332.08721    
   6980000  -17.61172       93.193532      428.2808     
   6990000  -20.075976      88.344157      405.99498    
   7000000  -30.573903      87.332494      401.34578    
   7010000  -22.489627      85.251292      391.7814     
   7020000  -13.701155      72.62231       333.74356    
   7030000  -12.36083       92.223057      423.82088    
   7040000  -16.504221      85.077179      390.98124    
   7050000  -17.125245      92.2865        424.11244    
   7060000   1.3326116      78.980763      362.96451    
   7070000   2.3489673      82.191193      377.71838    
   7080000   14.017028      81.104565      372.72467    
   7090000  -5.8817445      99.576329      457.61363    
   7100000   4.8979277      80.170755      368.43325    
   7110000  -1.3027394      95.481309      438.79453    
   7120000  -0.63844005     95.716715      439.87636    
   7130000  -0.21069128     65.169888      299.49516    
   7140000  -9.9286332      76.315632      350.71662    
   7150000  -0.57289927     70.771602      325.23844    
   7160000  -0.85373836     78.219978      359.46824    
   7170000   5.3230392      69.776596      320.66578    
   7180000  -10.763904      83.204111      382.37335    
   7190000  -8.3778188      75.334014      346.20549    
   7200000  -11.815044      78.593891      361.1866     
   7210000  -19.184069      95.502295      438.89097    
   7220000  -6.1883119      65.425645      300.67052    
   7230000  -29.783606      91.94189       422.52875    
   7240000  -3.2675462      88.35548       406.04702    
   7250000  -10.277815      94.11647       432.52227    
   7260000  -10.325155      77.641981      356.812      
   7270000  -7.543511       84.719298      389.33656    
   7280000  -10.472461      82.947845      381.19566    
   7290000  -7.1082658      88.254625      405.58353    
   7300000   4.3915472      89.947123      413.36158    
   7310000   8.113553       85.157906      391.35223    
   7320000  -8.3049176      77.211827      354.83518    
   7330000  -12.962056      73.032784      335.62994    
   7340000  -6.6231257      91.451225      420.27385    
   7350000   5.2530419      76.047311      349.48352    
   7360000  -11.711425      76.340582      350.83128    
   7370000  -0.022305571    91.243384      419.31869    
   7380000   0.15605968     90.870518      417.60515    
   7390000   3.0482859      88.299739      405.79086    
   7400000  -2.063245       87.534597      402.27457    
   7410000  -14.167498      87.88124       403.8676     
   7420000  -7.8886858      80.751965      371.10426    
   7430000  -3.1317244      72.019705      330.97423    
   7440000  -5.4651791      84.775867      389.59653    
   7450000   4.8192945      82.746347      380.26965    
   7460000  -1.9499113      82.939185      381.15586    
   7470000   3.5665087      73.763503      338.98804    
   7480000   12.891478      82.645084      379.80429    
   7490000  -20.998258      91.175997      419.00901    
   7500000   1.5875893      82.880591      380.88659    
   7510000   12.723558      84.925174      390.28269    
   7520000   9.5399795      83.833532      385.26593    
   7530000   6.9718408      83.958585      385.84062    
   7540000  -1.7910451      85.648476      393.6067     
   7550000   19.020261      95.375592      438.30869    
   7560000   22.408755      86.410529      397.10879    
   7570000   33.199202      92.762228      426.2987     
   7580000   28.366814      82.921286      381.0736     
   7590000   30.555825      86.45412       397.30912    
   7600000   29.591872      88.853976      408.33791    
   7610000   19.442928      107.64447      494.69164    
   7620000   19.070573      90.343707      415.18413    
   7630000   17.958507      85.234317      391.70338    
   7640000   20.436222      80.071302      367.9762     
   7650000   20.347818      97.222234      446.79513    
   7660000   11.42609       90.706292      416.85043    
   7670000   16.488367      76.742813      352.67977    
   7680000   18.915609      83.689174      384.60251    
   7690000   31.318694      82.225732      377.87711    
   7700000   23.457425      92.470899      424.95987    
   7710000   44.476661      93.709892      430.65379    
   7720000   35.604882      80.526099      370.06627    
   7730000   25.393732      84.335746      387.5739     
   7740000   18.771966      89.021464      409.10762    
   7750000   4.3160547      93.890134      431.48211    
   7760000   31.675147      78.537611      360.92796    
   7770000   28.508887      68.532294      314.94746    
   7780000   25.553407      98.62121       453.22428    
   7790000   42.72992       90.896138      417.72288    
   7800000   51.555816      75.306645      346.07971    
   7810000   40.943335      99.71776       458.26359    
   7820000   36.720186      88.714676      407.69774    
   7830000   45.562178      90.961789      418.02459    
   7840000   42.582017      86.481311      397.43408    
   7850000   43.100047      86.655746      398.23571    
   7860000   44.348533      91.553764      420.74507    
   7870000   47.349721      96.426102      443.13642    
   7880000   38.228645      91.404523      420.05922    
   7890000   28.448065      80.137201      368.27905    
   7900000   26.597473      84.178713      386.85224    
   7910000   36.078626      77.194071      354.75358    
   7920000   30.081027      76.239464      350.36658    
   7930000   43.549702      85.98955       395.17414    
   7940000   53.234154      97.859943      449.72579    
   7950000   60.099617      94.347835      433.58553    
   7960000   61.984052      91.593692      420.92857    
   7970000   61.574946      86.106192      395.71018    
   7980000   61.352005      84.224203      387.0613     
   7990000   54.517527      96.887183      445.25537    
   8000000   37.661776      94.519727      434.37547    
   8010000   47.830399      96.968568      445.62938    
   8020000   40.114645      89.78853       412.63276    
   8030000   45.97069       94.723645      435.3126     
   8040000   35.763638      87.282665      401.11678    
   8050000   31.506024      93.260192      428.58715    
   8060000   46.333054      86.401757      397.06848    
   8070000   52.638307      89.640409      411.95205    
   8080000   47.177605      73.157435      336.20279    
   8090000   37.008807      81.965614      376.68171    
   8100000   31.506617      88.414892      406.32006    
   8110000   38.048757      86.615743      398.05188    
   8120000   54.784653      77.964406      358.29373    
   8130000   44.327924      69.702976      320.32745    
   8140000   24.858225      85.781374      394.21744    
   8150000   32.775691      93.286751      428.7092     
   8160000   19.275374      92.364885      424.47267    
   8170000   43.696437      90.928828      417.87312    
   8180000   48.91803       79.445581      365.10063    
   8190000   43.115838      106.37864      488.87438    
   8200000   33.760487      86.368373      396.91506    
   8210000   37.358363      92.555126      425.34694    
   8220000   39.176668      84.98827       390.57265    
   8230000   40.272965      79.804441      366.74981    
   8240000   29.745884      83.912194      385.62743    
   8250000   34.700834      98.101352      450.83521    
   8260000   57.765503      87.245582      400.94636    
   8270000   45.282763      97.616876      448.60875    
   8280000   47.684164      82.341249      378.40798    
   8290000   50.799912      80.867742      371.63632    
   8300000   37.102606      78.470467      360.61939    
   8310000   35.461695      79.964693      367.48627    
   8320000   29.582677      91.72774       421.5446     
   8330000   26.771932      78.491328      360.71526    
   8340000   40.863562      103.84269      477.22012    
   8350000   32.463038      105.80544      486.24017    
   8360000   38.88964       87.476533      402.00772    
   8370000   41.051746      80.363725      369.32006    
   8380000   43.548677      87.59439       402.54935    
   8390000   47.155575      90.508657      415.94217    
   8400000   38.296975      103.55756      475.90981    
   8410000   38.63277       106.17685      487.94703    
   8420000   27.040473      99.245909      456.09515    
   8430000   30.560581      107.85018      495.637      
   8440000   22.849658      95.463842      438.71426    
   8450000   8.1779242      104.02891      478.07592    
   8460000   26.879323      86.613854      398.04319    
   8470000   12.599789      90.303654      415.00006    
   8480000   20.359457      97.245263      446.90096    
   8490000   20.824767      84.226205      387.0705     
   8500000   28.702578      77.699582      357.07671    
   8510000   15.947832      100.1505       460.25231    
   8520000   11.065979      97.624451      448.64357    
   8530000   14.945447      86.652585      398.22118    
   8540000   14.325026      105.97922      487.03881    
   8550000   14.077459      96.671999      444.26647    
   8560000   27.868249      86.679899      398.34671    
   8570000   18.851734      93.110868      427.90091    
   8580000   10.638383      81.764405      375.75703    
   8590000   20.178948      83.62613       384.31279    
   8600000   25.002832      95.891008      440.67734    
   8610000   18.997368      88.027312      404.53889    
   8620000  -0.8165901      92.607262      425.58654    
   8630000   12.583455      88.623485      407.27866    
   8640000   19.260692      89.528637      411.43839    
   8650000  -6.9419932      95.197647      437.49093    
   8660000  -2.7036895      98.755377      453.84086    
   8670000   17.510018      100.78773      463.18075    
   8680000   34.152126      98.196262      451.27138    
   8690000   33.572393      96.658198      444.20304    
   8700000   29.449177      102.36783      470.44227    
   8710000   37.09359       91.508894      420.53887    
   8720000   35.165328      86.386654      396.99907    
   8730000   42.159345      83.51295       383.79266    
   8740000   51.421398      89.526833      411.4301     
   8750000   43.438638      104.83357      481.77384    
   8760000   52.077038      82.504689      379.15909    
   8770000   36.736726      96.123462      441.74561    
   8780000   53.159698      81.160043      372.97962    
   8790000   47.150417      99.585757      457.65696    
   8800000   54.120387      96.900051      445.31451    
   8810000   43.978578      116.11659      533.62614    
   8820000   54.645285      99.630794      457.86393    
   8830000   48.924179      94.668666      435.05994    
   8840000   40.999649      95.86694       440.56674    
   8850000   38.754221      83.095979      381.87642    
   8860000   37.196847      87.266909      401.04438    
   8870000   38.158095      87.848655      403.71785    
   8880000   47.074962      86.812305      398.9552     
   8890000   39.096965      102.22234      469.77365    
   8900000   36.775246      96.832896      445.00589    
   8910000   49.018036      102.06149      469.03444    
   8920000   53.677018      96.602951      443.94915    
   8930000   41.206561      93.123566      427.95927    
   8940000   26.267509      110.22957      506.57172    
   8950000   34.838852      91.101799      418.66802    
   8960000   36.048439      100.35594      461.19641    
   8970000   26.874451      88.694369      407.60442    
   8980000   26.792373      90.392997      415.41065    
   8990000   41.57954       80.464406      369.78275    
   9000000   34.589027      101.72985      467.51037    
   9010000   27.341803      85.870664      394.62779    
   9020000   31.022596      80.319607      369.11731    
   9030000   39.074188      91.815394      421.94742    
   9040000   50.641817      91.595053      420.93482    
   9050000   40.176627      92.149796      423.4842     
   9060000   61.465801      89.565956      411.60989    
   9070000   42.584088      87.158738      400.54727    
   9080000   55.450755      96.87054       445.17889    
   9090000   58.88627       100.50164      461.86602    
   9100000   44.96536       96.814281      444.92034    
   9110000   36.97249       103.66104      476.38536    
   9120000   28.81223       98.997703      454.95449    
   9130000   39.393076      88.596776      407.15592    
   9140000   46.053391      90.291145      414.94258    
   9150000   50.303289      98.089511      450.7808     
   9160000   42.90036       102.90766      472.9231     
   9170000   46.399272      78.107785      358.95265    
   9180000   46.16154       75.292976      346.01689    
   9190000   52.092998      89.67667       412.11869    
   9200000   40.471044      91.3292        419.71307    
   9210000   57.720514      102.08113      469.12471    
   9220000   59.285678      104.30808      479.35891    
   9230000   64.375007      87.638984      402.75429    
   9240000   54.750653      90.107254      414.09748    
   9250000   43.943687      86.745397      398.64771    
   9260000   49.141135      85.896259      394.74541    
   9270000   69.279954      92.302868      424.18767    
   9280000   69.125759      96.823044      444.96061    
   9290000   63.76216       98.598494      453.11988    
   9300000   63.430236      88.854536      408.34049    
   9310000   64.684233      107.72716      495.07163    
   9320000   58.392565      82.390613      378.63484    
   9330000   57.99244       88.783969      408.01619    
   9340000   64.750115      95.958655      440.98822    
   9350000   49.873151      92.40903       424.67554    
   9360000   65.087819      88.346521      406.00585    
   9370000   54.148396      97.249788      446.92176    
   9380000   54.858587      84.039465      386.21231    
   9390000   62.475502      85.305705      392.03146    
   9400000   57.671518      92.61654       425.62917    
   9410000   68.919856      108.92921      500.59578    
   9420000   53.004686      98.066472      450.67492    
   9430000   61.28382       102.70584      471.99561    
   9440000   50.657673      111.70017      513.33003    
   9450000   49.966843      120.21281      552.45076    
   9460000   44.383463      112.47839      516.90644    
   9470000   48.530021      99.241111      456.0731     
   9480000   47.644837      89.448273      411.06907    
   9490000   24.206493      94.04467       432.1923     
   9500000   39.248384      85.448121      392.68594    
   9510000   47.207997      92.453771      424.88115    
   9520000   69.150976      96.877693      445.21176    
   9530000   57.516318      97.390169      447.56689    
   9540000   63.766804      87.694931      403.0114     
   9550000   71.282125      83.042556      381.63091    
   9560000   57.642882      90.246496      414.73739    
   9570000   58.5191        87.53168       402.26116    
   9580000   59.652933      93.777749      430.96564    
   9590000   58.062517      106.568        489.74461    
   9600000   60.496076      102.1745       469.55378    
   9610000   60.706643      87.212007      400.79207    
   9620000   61.070639      93.379285      429.13445    
   9630000   61.968088      95.769516      440.11901    
   9640000   50.842746      100.17863      460.38157    
   9650000   74.788248      89.642617      411.9622     
   9660000   66.689734      102.17812      469.57043    
   9670000   54.789532      92.429103      424.76779    
   9680000   51.264641      92.108226      423.29317    
   9690000   51.059708      96.222056      442.19871    
   9700000   45.897705      97.60966       448.57559    
   9710000   57.584038      102.37311      470.46652    
   9720000   56.555118      102.59396      471.48146    
   9730000   64.344018      91.431931      420.18518    
   9740000   54.279762      98.692432      453.55158    
   9750000   50.861449      112.62138      517.56355    
   9760000   54.595935      94.864321      435.9591     
   9770000   44.185614      87.136685      400.44592    
   9780000   49.409258      94.271998      433.23701    
   9790000   42.984129      104.24595      479.07335    
   9800000   34.067228      91.633394      421.11102    
   9810000   47.670645      89.876587      413.03743    
   9820000   50.452123      100.60339      462.33358    
   9830000   55.999217      113.0968       519.74839    
   9840000   73.534216      116.90675      537.25742    
   9850000   60.217509      98.939337      454.68626    
   9860000   53.573551      99.036953      455.13487    
   9870000   67.293616      91.488814      420.44659    
   9880000   77.306915      105.57164      485.16573    
   9890000   62.347322      110.15398      506.22437    
   9900000   63.627502      100.81667      463.31377    
   9910000   68.605317      98.327209      451.87316    
   9920000   65.383556      103.7409       476.75237    
   9930000   66.374945      96.378547      442.91788    
   9940000   56.039355      94.324104      433.47647    
   9950000   60.139442      109.11069      501.42979    
   9960000   59.194069      95.0819        436.959      
   9970000   52.587797      103.17918      474.17092    
   9980000   56.668414      98.110935      450.87925    
   9990000   54.266696      106.89553      491.24979    
  10000000   60.312766      94.162579      432.73417    
  10010000   46.428281      92.536323      425.26053    
  10020000   44.464502      89.99266       413.57085    
  10030000   38.403352      88.577635      407.06796    
  10040000   48.623633      117.95206      542.06124    
  10050000   60.856439      89.646095      411.97818    
  10060000   45.194809      106.26342      488.34486    
  10070000   41.373879      102.75633      472.22767    
  10080000   35.880308      94.118321      432.53077    
  10090000   33.578882      111.69611      513.31139    
  10100000   36.90939       105.10879      483.03865    
  10110000   52.682015      89.404205      410.86655    
  10120000   60.398824      115.83708      532.34162    
  10130000   41.865518      96.921226      445.41182    
  10140000   14.646315      121.14828      556.74985    
  10150000   39.319307      89.070391      409.33247    
  10160000   29.330725      108.16047      497.06298    
  10170000   28.531473      87.547413      402.33346    
  10180000   21.259177      80.33729       369.19857    
  10190000   20.250606      108.51103      498.67399    
  10200000   39.717817      76.738307      352.65906    
  10210000   42.656454      89.389438      410.79869    
  10220000   33.024821      96.869155      445.17252    
  10230000   47.834237      99.126067      455.5444     
  10240000   51.960469      111.80289      513.80211    
  10250000   41.952154      102.97496      473.23238    
  10260000   35.123756      84.556536      388.58857    
  10270000   39.734821      98.838588      454.22326    
  10280000   43.221966      91.098118      418.65111    
  10290000   56.064081      95.791503      440.22006    
  10300000   54.648316      100.77587      463.12624    
  10310000   60.50312       102.04877      468.976      
  10320000   50.937774      101.46519      466.2941     
  10330000   43.32594       116.8528       537.00947    
  10340000   63.851899      100.15245      460.26126    
  10350000   62.343628      96.4101        443.06289    
  10360000   60.731009      109.71576      504.21048    
  10370000   54.32904       103.71002      476.61043    
  10380000   50.192627      90.207218      414.55688    
  10390000   72.35423       97.397481      447.6005     
  10400000   54.181944      99.472358      457.13582    
  10410000   60.182949      93.924645      431.64071    
  10420000   63.498067      99.319641      456.43399    
  10430000   51.938741      112.7512       518.16013    
  10440000   58.484056      100.45879      461.66907    
  10450000   71.959745      98.769157      453.90418    
  10460000   78.45552       114.46941      526.05638    
  10470000   60.220842      101.22246      465.1786     
  10480000   62.700387      105.88459      486.6039     
  10490000   58.80657       126.27229      580.29774    
  10500000   53.191051      96.354603      442.80784    
  10510000   38.268035      96.428946      443.14949    
  10520000   45.696302      92.083942      423.18157    
  10530000   40.573318      100.45989      461.67412    
  10540000   59.696213      117.18962      538.5574     
  10550000   43.167906      118.39622      544.10244    
  10560000   67.388751      96.088386      441.58441    
  10570000   62.253218      98.102983      450.84271    
  10580000   66.086134      94.516531      434.36079    
  10590000   79.460653      98.973366      454.84265    
  10600000   62.324644      108.39227      498.12823    
  10610000   56.636871      116.64227      536.042      
  10620000   63.163959      105.86507      486.51419    
  10630000   68.762994      97.044808      445.97975    
  10640000   59.816336      92.072432      423.12867    
  10650000   69.365657      98.232789      451.43925    
  10660000   62.409324      103.33573      474.89038    
  10670000   76.133518      112.18714      515.56797    
  10680000   83.297651      90.077172      413.95924    
  10690000   61.856653      98.960273      454.78248    
  10700000   67.20121       85.647795      393.60356    
  10710000   65.146026      104.51279      480.29964    
  10720000   65.415025      136.13125      625.60567    
  10730000   67.432153      114.6375       526.82884    
  10740000   72.409897      110.09019      505.93121    
  10750000   61.000635      98.041993      450.56242    
  10760000   70.140961      96.486708      443.41495    
  10770000   60.117387      114.03616      524.0653     
  10780000   51.475761      104.01119      477.99449    
  10790000   76.463878      100.11255      460.07791    
  10800000   59.761745      111.57055      512.73435    
  10810000   78.546492      92.808282      426.51034    
  10820000   61.388072      96.399082      443.01225    
  10830000   61.248052      102.63997      471.6929     
  10840000   62.058413      91.849188      422.10273    
  10850000   57.231088      93.765372      430.90876    
  10860000   59.499988      101.43495      466.15511    
  10870000   72.231646      112.386        516.48184    
  10880000   60.451952      114.31083      525.32761    
  10890000   68.609428      93.862098      431.35327    
  10900000   40.856727      101.24334      465.27457    
  10910000   49.703894      115.6006       531.25489    
  10920000   42.916058      120.1126       551.99024    
  10930000   56.839343      85.959723      395.03706    
  10940000   56.811726      103.85283      477.26673    
  10950000   77.638517      97.551849      448.30992    
  10960000   57.347432      112.18497      515.55796    
  10970000   72.597312      102.94912      473.11367    
  10980000   56.27979       107.86409      495.70091    
  10990000   69.776047      100.98985      464.10962    
  11000000   65.085974      90.666765      416.66878    
  11010000   67.455045      108.23605      497.4103     
  11020000   53.078635      99.670299      458.04548    
  11030000   59.077568      111.27425      511.37267    
  11040000   61.996428      102.66871      471.825      
  11050000   79.692838      98.529336      452.80206    
  11060000   66.295229      112.65366      517.71189    
  11070000   61.889008      101.23659      465.24352    
  11080000   59.364023      83.753697      384.89903    
  11090000   65.106772      103.3751       475.07127    
  11100000   57.048442      116.13643      533.71735    
  11110000   60.666453      113.0366       519.47174    
  11120000   54.420091      114.89408      528.00796    
  11130000   46.554915      103.19361      474.23721    
  11140000   73.196732      118.10112      542.74627    
  11150000   66.022294      113.98911      523.84909    
  11160000   67.700955      112.66079      517.74464    
  11170000   57.448336      109.80254      504.60927    
  11180000   57.34517       95.883327      440.64204    
  11190000   63.553281      95.718115      439.88279    
  11200000   63.737089      115.51072      530.84182    
  11210000   69.55108       107.07965      492.09594    
  11220000   79.517487      124.40302      571.70733    
  11230000   72.692644      108.95987      500.73668    
  11240000   67.067836      111.47725      512.30558    
  11250000   75.640086      97.137705      446.40667    
  11260000   56.475736      92.588984      425.50254    
  11270000   65.626893      86.169749      396.00226    
  11280000   62.576648      107.65588      494.74408    
  11290000   59.623343      107.26493      492.94742    
  11300000   55.460827      97.712716      449.04919    
  11310000   63.74027       92.164306      423.55089    
  11320000   50.294092      106.75345      490.59686    
  11330000   58.606092      107.94891      496.09071    
  11340000   62.930171      97.778546      449.35173    
  11350000   57.542926      118.63206      545.18627    
  11360000   65.286369      94.749784      435.43273    
  11370000   64.339039      106.50452      489.45286    
  11380000   71.061777      137.6803       632.72447    
  11390000   58.505381      106.85879      491.08095    
  11400000   67.218901      100.42742      461.5249     
  11410000   72.289962      115.30565      529.89941    
  11420000   65.519445      105.48773      484.78009    
  11430000   53.812313      90.559292      416.17487    
  11440000   66.866904      90.929356      417.87554    
  11450000   67.733655      111.87394      514.12859    
  11460000   72.106072      112.81667      518.46105    
  11470000   67.198101      101.56694      466.7617     
  11480000   76.392082      93.5852        430.08076    
  11490000   62.462495      108.77581      499.89081    
  11500000   59.941911      104.01727      478.02245    
  11510000   69.185069      96.942538      445.50976    
  11520000   62.465944      105.80419      486.23441    
  11530000   68.471954      101.15412      464.86452    
  11540000   69.432227      117.93312      541.97423    
  11550000   65.263252      102.35278      470.37309    
  11560000   59.131677      93.569101      430.00677    
  11570000   66.886739      101.44319      466.19299    
  11580000   60.705252      131.46581      604.16515    
  11590000   73.947197      107.33564      493.27237    
  11600000   71.92642       114.42411      525.8482     
  11610000   61.141531      118.66781      545.35055    
  11620000   69.831826      107.23559      492.81258    
  11630000   70.303434      99.39598       456.78482    
  11640000   53.555747      107.4301       493.70648    
  11650000   60.678571      97.921621      450.00924    
  11660000   70.896999      105.82764      486.3422     
  11670000   60.884796      110.10828      506.01434    
  11680000   74.712523      107.57041      494.35127    
  11690000   67.213418      130.59749      600.1747     
  11700000   63.596203      125.45797      576.55546    
  11710000   72.24476       105.85208      486.45449    
  11720000   82.696686      112.0786       515.06916    
  11730000   61.073493      113.655        522.31368    
  11740000   93.887403      103.98622      477.87973    
  11750000   58.882342      126.3373       580.59651    
  11760000   68.944626      130.64728      600.4035     
  11770000   72.886937      104.93374      482.23418    
  11780000   59.23919       131.76904      605.55864    
  11790000   75.816672      126.49601      581.32587    
  11800000   72.047441      110.57654      508.16625    
  11810000   70.43649       108.40289      498.17703    
  11820000   69.99554       96.048131      441.39942    
  11830000   75.706648      106.27233      488.38582    
  11840000   82.95223       123.41487      567.16619    
  11850000   84.915543      102.65742      471.77311    
  11860000   56.855701      97.135357      446.39588    
  11870000   56.950964      117.12604      538.26521    
  11880000   64.518458      97.788756      449.39864    
  11890000   84.002537      126.13678      579.67499    
  11900000   86.250391      103.48392      475.57137    
  11910000   67.454296      105.50255      484.84823    
  11920000   60.536177      116.82109      536.86378    
  11930000   87.314599      96.072121      441.50967    
  11940000   81.645756      103.59651      476.08881    
  11950000   87.387789      88.57253       407.0445     
  11960000   68.766366      99.025549      455.08246    
  11970000   69.768841      108.81479      500.06997    
  11980000   71.206441      90.218782      414.61002    
  11990000   46.687567      117.6084       540.48192    
  12000000   66.499747      99.73362       458.33648    
Loop time of 363.832 on 1 procs for 8000000 steps with 74 atoms

Performance: 18997.755 ns/day, 0.001 hours/ns, 21988.142 timesteps/s, 1.627 Matom-step/s
99.6% CPU use with 1 MPI tasks x 1 OpenMP threads

MPI task timing breakdown:
Section |  min time  |  avg time  |  max time  |%varavg| %total
---------------------------------------------------------------
Pair    | 311.72     | 311.72     | 311.72     |   0.0 | 85.68
Bond    | 29.222     | 29.222     | 29.222     |   0.0 |  8.03
Neigh   | 3.2254     | 3.2254     | 3.2254     |   0.0 |  0.89
Comm    | 4.2583     | 4.2583     | 4.2583     |   0.0 |  1.17
Output  | 0.14101    | 0.14101    | 0.14101    |   0.0 |  0.04
Modify  | 13.667     | 13.667     | 13.667     |   0.0 |  3.76
Other   |            | 1.6        |            |       |  0.44

Nlocal:             74 ave          74 max          74 min
Histogram: 1 0 0 0 0 0 0 0 0 0
Nghost:              0 ave           0 max           0 min
Histogram: 1 0 0 0 0 0 0 0 0 0
Neighs:            211 ave         211 max         211 min
Histogram: 1 0 0 0 0 0 0 0 0 0

Total # of neighbors = 211
Ave neighs/atom = 2.8513514
Ave special neighs/atom = 5.8378378
Neighbor list builds = 21409
Dangerous builds = 0

  # Hold at 500
  variable seedHH equal 45000+${c}
  variable seedHH equal 45000+1
  unfix fxl
  fix fxl all langevin ${T_high} ${T_high} 100000.0 ${seedHH}
  fix fxl all langevin 500 ${T_high} 100000.0 ${seedHH}
  fix fxl all langevin 500 500 100000.0 ${seedHH}
  fix fxl all langevin 500 500 100000.0 45001
  run ${n_holdH}
  run 8000000
Generated 0 of 6 mixed pair_coeff terms from geometric mixing rule
Per MPI rank memory allocation (min/avg/max) = 9.63 | 9.63 | 9.63 Mbytes
   Step         PotEng         KinEng          Temp     
  12000000   66.499747      99.73362       458.33648    
  12010000   72.385102      107.42975      493.70486    
  12020000   73.360932      95.897952      440.70926    
  12030000   78.931706      122.00476      560.68588    
  12040000   71.541125      117.61008      540.48964    
  12050000   69.30882       132.18241      607.45836    
  12060000   63.071967      133.33351      612.74835    
  12070000   73.819153      106.12731      487.71938    
  12080000   71.478571      107.41494      493.63678    
  12090000   73.813636      116.82871      536.89878    
  12100000   75.612002      100.77394      463.11738    
  12110000   80.206531      102.55989      471.32489    
  12120000   73.017318      113.94956      523.66736    
  12130000   52.235411      102.73488      472.12907    
  12140000   58.714382      94.823179      435.77002    
  12150000   69.49157       96.442617      443.21232    
  12160000   62.80838       88.378686      406.15367    
  12170000   77.720195      108.50931      498.6661     
  12180000   75.245627      88.731094      407.77319    
  12190000   72.384985      113.58941      522.01224    
  12200000   84.54146       105.61262      485.35403    
  12210000   53.790931      113.70365      522.53724    
  12220000   71.491355      94.224319      433.01789    
  12230000   60.811476      109.83254      504.74715    
  12240000   54.371465      98.649053      453.35223    
  12250000   60.760547      106.75685      490.61248    
  12260000   68.338223      103.68883      476.51306    
  12270000   68.692596      93.716876      430.68589    
  12280000   73.345869      97.920408      450.00366    
  12290000   76.763249      101.94294      468.48964    
  12300000   77.52568       121.96727      560.51359    
  12310000   82.789128      102.45032      470.82137    
  12320000   72.551755      105.16201      483.28324    
  12330000   56.597797      115.78389      532.0972     
  12340000   76.550583      107.51785      494.10972    
  12350000   70.997383      121.168        556.84047    
  12360000   77.722804      126.51205      581.39961    
  12370000   70.324623      123.34253      566.83375    
  12380000   69.629484      115.39288      530.30028    
  12390000   79.722394      111.05458      510.36317    
  12400000   77.679769      99.309477      456.38728    
  12410000   70.926665      91.998136      422.78724    
  12420000   62.161199      110.4259       507.47398    
  12430000   72.124812      120.04989      551.70208    
  12440000   68.936459      135.16925      621.18468    
  12450000   65.143193      114.83248      527.7249     
  12460000   73.620532      112.77588      518.27356    
  12470000   89.735182      116.74426      536.5107     
  12480000   82.773221      113.08129      519.67712    
  12490000   66.792198      121.13981      556.71092    
  12500000   80.194442      102.25278      469.91354    
  12510000   72.993981      89.621954      411.86724    
  12520000   53.051173      88.900328      408.55093    
  12530000   61.099223      104.61791      480.78274    
  12540000   61.942696      110.20647      506.46558    
  12550000   57.304545      126.25277      580.20804    
  12560000   55.548011      119.11323      547.39753    
  12570000   84.598352      94.282072      433.2833     
  12580000   55.074336      96.215952      442.17066    
  12590000   48.290606      125.3726       576.16312    
  12600000   59.323212      99.368649      456.65921    
  12610000   62.928424      93.678991      430.51178    
[...]
 404760000  -62.366711      68.465328      314.63971    
 404770000  -55.534874      63.326388      291.02316    
 404780000  -54.960264      67.711981      311.17762    
 404790000  -42.473247      55.969493      257.21377    
 404800000  -40.185784      65.955979      303.10773    
 404810000  -37.151379      67.825482      311.69923    
 404820000  -38.387916      67.881867      311.95835    
 404830000  -48.23985       67.74776       311.34205    
 404840000  -46.554756      62.671348      288.01286    
 404850000  -59.774854      68.337876      314.05399    
 404860000  -48.976723      65.974467      303.19269    
 404870000  -48.698882      52.306519      240.38018    
 404880000  -41.281918      60.736004      279.11878    
 404890000  -40.128941      59.637476      274.07037    
 404900000  -55.392903      69.589246      319.80479    
 404910000  -51.201512      64.834683      297.95469    
 404920000  -55.911302      65.121578      299.27315    
 404930000  -49.842594      62.115966      285.46054    
 404940000  -45.545917      57.106262      262.43791    
 404950000  -51.806088      63.915029      293.72832    
 404960000  -57.782262      60.328421      277.24568    
 404970000  -47.163645      61.774557      283.89156    
 404980000  -44.892696      64.006929      294.15066    
 404990000  -45.768779      61.688212      283.49475    
 405000000  -59.037534      63.794415      293.17403    
 405010000  -40.441889      64.765765      297.63797    
 405020000  -50.16207       81.737016      375.63116    
 405030000  -35.340752      68.220307      313.51369    
 405040000  -39.385281      80.459351      369.75952    
 405050000  -42.796529      83.778367      385.01241    
 405060000  -30.557256      61.045967      280.54325    
 405070000  -34.647808      61.965926      284.77102    
 405080000  -50.242308      71.889246      330.37469    
 405090000  -59.911779      72.432302      332.87036    
 405100000  -43.194206      80.948027      372.00528    
 405110000  -52.231653      69.569129      319.71234    
 405120000  -44.887848      65.190176      299.5884     
 405130000  -37.838136      64.889544      298.20681    
 405140000  -36.920834      68.524282      314.91064    
 405150000  -41.496648      70.543882      324.19193    
 405160000  -49.932864      64.648646      297.09974    
 405170000  -42.571754      56.704351      260.59088    
 405180000  -40.287928      69.113559      317.61872    
 405190000  -56.165914      57.928914      266.21849    
 405200000  -41.48821       66.205295      304.25349    
 405210000  -58.227862      69.648018      320.07489    
 405220000  -47.71922       67.202666      308.83701    
 405230000  -43.494385      79.159577      363.78627    
 405240000  -47.463908      88.549745      406.93979    
 405250000  -48.308619      82.104159      377.31841    
 405260000  -56.684475      76.565326      351.86411    
 405270000  -53.724077      63.301028      290.90662    
 405280000  -58.836322      55.439154      254.77654    
 405290000  -53.726357      62.110526      285.43554    
 405300000  -60.051231      65.50307       301.02634    
 405310000  -53.334956      70.592507      324.41539    
 405320000  -50.279908      72.242537      331.99828    
 405330000  -46.735826      63.185656      290.37641    
 405340000  -40.653314      71.766049      329.80852    
 405350000  -31.54252       69.796075      320.7553     
 405360000  -40.661693      67.751177      311.35775    
 405370000  -44.402069      61.242912      281.44833    
 405380000  -35.121053      70.259814      322.88646    
 405390000  -26.946565      67.111707      308.419      
 405400000  -46.829609      74.099307      340.53126    
 405410000  -42.883475      72.634174      333.79809    
 405420000  -34.528043      69.498951      319.38983    
 405430000  -43.269869      77.339198      355.42052    
 405440000  -45.483707      58.242828      267.66112    
 405450000  -51.487875      55.604458      255.53621    
 405460000  -50.075371      53.853484      247.48942    
 405470000  -58.22763       72.536734      333.35029    
 405480000  -42.289674      59.958082      275.54375    
 405490000  -57.668368      68.9061        316.66532    
 405500000  -33.494305      70.455367      323.78514    
 405510000  -51.261445      69.776715      320.66633    
 405520000  -34.392114      61.698384      283.54149    
 405530000  -47.227191      63.453554      291.60757    
 405540000  -46.868878      69.175996      317.90566    
 405550000  -54.622389      67.878924      311.94483    
 405560000  -52.048177      63.708015      292.77697    
 405570000  -41.362772      55.772069      256.30648    
 405580000  -65.577797      81.954992      376.6329     
 405590000  -41.479614      65.587367      301.41373    
 405600000  -51.350165      65.282809      300.0141     
 405610000  -62.857589      61.180417      281.16112    
 405620000  -47.900931      64.4766        296.30908    
 405630000  -47.232514      66.935719      307.61023    
 405640000  -53.5115        64.689852      297.2891     
 405650000  -54.821612      61.892555      284.43383    
 405660000  -67.345155      73.009949      335.525      
 405670000  -64.910167      75.195008      345.56667    
 405680000  -54.624129      57.360496      263.60627    
 405690000  -48.873066      54.73719       251.55059    
 405700000  -43.572787      60.209246      276.698      
 405710000  -45.888799      70.414816      323.59879    
 405720000  -24.713632      68.299375      313.87706    
 405730000  -30.36922       72.102934      331.35671    
 405740000  -30.24858       60.863312      279.70384    
 405750000  -45.912177      72.263797      332.09598    
 405760000  -48.552592      67.201086      308.82975    
 405770000  -34.641439      78.037045      358.62755    
 405780000  -27.051845      73.005945      335.5066     
 405790000  -13.828389      61.387623      282.11336    
 405800000  -28.353995      75.787792      348.29087    
 405810000  -48.857593      69.527028      319.51886    
 405820000  -36.416782      69.77892       320.67646    
 405830000  -37.231989      64.968503      298.56968    
 405840000  -35.161106      59.522485      273.54192    
 405850000  -29.729935      66.40191       305.15705    
 405860000  -29.273004      67.366456      309.58972    
 405870000  -29.338323      73.241631      336.58972    
 405880000  -29.238486      61.147773      281.01111    
 405890000  -43.155448      72.96576       335.32192    
 405900000  -52.462884      66.974835      307.78999    
 405910000  -41.795536      75.46603       346.81218    
 405920000  -46.930661      75.662316      347.71424    
 405930000  -45.540688      68.001419      312.50777    
 405940000  -41.347556      63.224074      290.55297    
 405950000  -34.394134      70.462039      323.81581    
 405960000  -35.850253      65.135907      299.339      
 405970000  -38.080564      74.336204      341.61995    
 405980000  -24.142788      55.979637      257.26038    
 405990000  -38.439623      58.726488      269.88383    
 406000000  -32.072622      62.569001      287.54251    
 406010000  -49.719949      63.329937      291.03947    
 406020000  -26.107311      67.691833      311.08503    
 406030000  -49.768955      73.556632      338.03734    
 406040000  -53.893529      59.44962       273.20706    
 406050000  -55.013354      62.41758       286.84664    
 406060000  -46.988585      66.605468      306.09252    
 406070000  -41.656921      62.562838      287.51419    
 406080000  -52.805965      60.834928      279.57339    
 406090000  -57.130772      67.46953       310.06341    
 406100000  -53.599103      74.606872      342.86383    
 406110000  -48.076045      53.095682      244.00686    
 406120000  -47.767453      59.878852      275.17964    
 406130000  -52.999444      64.829051      297.92881    
 406140000  -51.556794      64.875448      298.14203    
 406150000  -46.394461      65.615135      301.54134    
 406160000  -45.639266      64.766671      297.64213    
 406170000  -45.381589      58.249025      267.6896     
 406180000  -52.683623      71.004029      326.30658    
 406190000  -50.614626      60.4279        277.70285    
 406200000  -39.61566       54.422501      250.1044     
 406210000  -39.256152      73.665166      338.53612    
 406220000  -27.694384      60.360722      277.39413    
 406230000  -43.476127      60.323234      277.22185    
 406240000  -26.435934      62.244455      286.05102    
 406250000  -36.25018       68.804487      316.19835    
 406260000  -34.962711      62.169802      285.70795    
 406270000  -49.555903      54.246924      249.29752    
 406280000  -53.04079       60.292261      277.07951    
 406290000  -61.974056      62.07624       285.27798    
 406300000  -48.661867      62.583017      287.60692    
 406310000  -40.805997      70.011716      321.7463     
 406320000  -39.772689      72.489871      333.13492    
 406330000  -43.902822      73.883934      339.54149    
 406340000  -54.394754      67.503243      310.21834    
 406350000  -46.261819      60.040038      275.92039    
 406360000  -53.480534      70.182126      322.52944    
 406370000  -47.509125      64.462222      296.24301    
 406380000  -59.870282      63.609056      292.32219    
 406390000  -55.476822      55.384758      254.52656    
 406400000  -52.908195      67.183713      308.74991    
 406410000  -58.224579      64.277312      295.39324    
 406420000  -55.14083       65.78051       302.30134    
 406430000  -54.488395      56.795335      261.00901    
 406440000  -60.440333      67.669713      310.98337    
 406450000  -51.356535      69.108167      317.59394    
 406460000  -51.893365      69.282624      318.39568    
 406470000  -63.739676      63.839468      293.38108    
 406480000  -52.017473      62.215768      285.91919    
 406490000  -56.694948      75.661987      347.71272    
 406500000  -53.254886      62.753344      288.38968    
 406510000  -54.806522      60.164263      276.49128    
 406520000  -55.904758      65.716234      302.00596    
 406530000  -41.542693      65.658656      301.74135    
 406540000  -50.034921      72.134774      331.50304    
 406550000  -44.348627      78.716019      361.74785    
 406560000  -39.983643      65.947856      303.0704     
 406570000  -40.981287      68.644108      315.46131    
 406580000  -44.62589       66.317769      304.77037    
 406590000  -38.457202      60.896872      279.85806    
 406600000  -52.493696      71.576635      328.93805    
 406610000  -39.889576      67.150589      308.59769    
 406620000  -41.920237      64.423287      296.06408    
 406630000  -30.897348      69.115461      317.62746    
 406640000  -44.980511      66.0511        303.54487    
 406650000  -48.177356      61.887522      284.4107     
 406660000  -57.654035      73.687274      338.63772    
 406670000  -51.571683      70.922004      325.92962    
 406680000  -41.560797      58.320142      268.01643    
 406690000  -45.118556      62.029017      285.06095    
 406700000  -42.630081      66.535694      305.77187    
 406710000  -50.831158      64.778542      297.69669    
 406720000  -54.359991      59.399644      272.97739    
 406730000  -47.860625      56.756905      260.8324     
 406740000  -56.691905      70.157115      322.4145     
 406750000  -47.511561      66.69983       306.52618    
 406760000  -45.803074      66.229325      304.36392    
 406770000  -54.869299      64.847942      298.01562    
 406780000  -49.366003      63.40565       291.38742    
 406790000  -47.311356      61.42108       282.26712    
 406800000  -59.782229      57.801003      265.63067    
 406810000  -60.711555      64.92788       298.38299    
 406820000  -46.28373       69.935701      321.39697    
 406830000  -57.277091      72.731381      334.24481    
 406840000  -41.402349      64.944422      298.45901    
 406850000  -60.173411      64.400534      295.95951    
 406860000  -58.617918      64.463468      296.24874    
 406870000  -57.793997      62.988037      289.46823    
 406880000  -58.285606      61.967196      284.77685    
 406890000  -47.079529      56.301675      258.74035    
 406900000  -53.724384      56.359638      259.00672    
 406910000  -41.818285      60.39388       277.54651    
 406920000  -36.856726      64.313958      295.56164    
 406930000  -48.871715      80.251624      368.80489    
 406940000  -42.444607      67.197578      308.81363    
 406950000  -45.912624      65.842036      302.58409    
 406960000  -27.913092      59.259964      272.33548    
 406970000  -31.796466      57.108522      262.44829    
 406980000  -57.562661      60.06386       276.02987    
 406990000  -52.089285      50.715422      233.06812    
 407000000  -53.664041      60.263245      276.94616    
 407010000  -60.794982      63.145316      290.19103    
 407020000  -54.203312      63.132365      290.13151    
 407030000  -53.976707      55.269419      253.9965     
 407040000  -50.356797      56.931125      261.63305    
 407050000  -48.210764      58.947046      270.89743    
 407060000  -48.562684      65.696861      301.91692    
 407070000  -53.852132      62.355881      286.56309    
 407080000  -53.896316      72.052338      331.1242     
 407090000  -42.338137      58.888207      270.62703    
 407100000  -42.619298      62.612826      287.74391    
 407110000  -58.264537      64.420393      296.05078    
 407120000  -61.183884      72.409619      332.76612    
 407130000  -41.207445      81.969946      376.70162    
 407140000  -42.953319      58.171288      267.33235    
 407150000  -43.288268      66.339665      304.871      
 407160000  -39.63928       54.984363      252.6865     
 407170000  -54.157214      62.085951      285.3226     
 407180000  -47.130069      61.47536       282.51657    
 407190000  -51.488003      71.922918      330.52943    
 407200000  -42.785741      77.130202      354.46006    
 407210000  -49.196578      71.370366      327.99012    
 407220000  -34.291518      68.88298       316.55907    
 407230000  -45.829056      68.305349      313.90451    
 407240000  -44.350966      64.089561      294.5304     
 407250000  -40.6867        66.020399      303.40378    
 407260000  -60.167046      77.142343      354.51586    
 407270000  -50.460967      68.90124       316.64299    
 407280000  -46.573052      65.038072      298.88939    
 407290000  -56.663141      71.20369       327.22414    
 407300000  -34.136635      67.940693      312.22869    
 407310000  -42.209702      80.358958      369.29815    
 407320000  -42.622056      76.695918      352.46426    
 407330000  -31.120212      73.935487      339.77841    
 407340000  -34.226285      78.964771      362.89102    
 407350000  -48.163845      71.707428      329.53912    
 407360000  -48.09638       62.169648      285.70724    
 407370000  -41.67716       58.01291       266.60451    
 407380000  -45.459556      64.762804      297.62436    
 407390000  -49.242017      66.813429      307.04823    
 407400000  -50.677762      55.528259      255.18603    
 407410000  -44.292889      68.799195      316.17403    
 407420000  -25.908324      78.176133      359.26675    
 407430000  -39.617501      63.938056      293.83415    
 407440000  -30.869842      63.239031      290.62171    
 407450000  -37.770636      67.152519      308.60655    
 407460000  -47.723224      71.044306      326.49168    
 407470000  -56.218241      69.711973      320.3688     
 407480000  -59.484823      72.036446      331.05116    
 407490000  -52.789142      61.191928      281.21403    
 407500000  -38.035729      64.360931      295.77751    
 407510000  -26.249048      66.034873      303.47029    
 407520000  -39.569273      79.526371      365.47191    
 407530000  -34.453305      66.354785      304.94048    
 407540000  -43.386773      57.102248      262.41946    
 407550000  -46.63255       71.613983      329.10969    
 407560000  -42.649835      66.050202      303.54074    
 407570000  -43.267984      56.62105       260.20807    
 407580000  -50.158223      62.015693      284.99973    
 407590000  -50.716655      64.743413      297.53525    
 407600000  -46.571052      75.222696      345.69391    
 407610000  -42.000336      64.13377       294.73357    
 407620000  -45.980538      81.908101      376.41741    
 407630000  -45.521449      69.277932      318.37412    
 407640000  -37.660917      69.483275      319.31779    
 407650000  -52.640919      69.812094      320.82892    
 407660000  -50.496533      77.672515      356.95232    
 407670000  -38.749477      62.304246      286.3258     
 407680000  -38.054964      69.277949      318.3742     
 407690000  -51.108063      69.608735      319.89436    
 407700000  -33.57759       58.965492      270.9822     
 407710000  -54.415033      57.879855      265.99304    
 407720000  -53.224228      67.512131      310.25919    
 407730000  -42.170365      61.064429      280.62809    
 407740000  -35.511138      67.07345       308.24318    
 407750000  -38.723582      67.874332      311.92372    
 407760000  -51.890986      66.721347      306.62506    
 407770000  -51.031535      66.755339      306.78127    
 407780000  -53.062685      65.894654      302.8259     
 407790000  -54.352424      71.255629      327.46283    
 407800000  -25.608471      56.021079      257.45084    
 407810000  -38.876547      78.514097      360.8199     
 407820000  -37.871097      63.842412      293.3946     
 407830000  -43.727369      77.760351      357.35598    
 407840000  -34.005494      60.232888      276.80665    
 407850000  -49.717884      67.309538      309.32815    
 407860000  -48.253703      65.640405      301.65748    
 407870000  -61.595583      74.323273      341.56052    
 407880000  -37.109962      61.333733      281.8657     
 407890000  -41.655243      63.562353      292.10757    
 407900000  -43.762632      65.093903      299.14597    
 407910000  -58.42978       58.077134      266.89966    
 407920000  -53.931746      69.41652       319.01101    
 407930000  -49.993356      66.070921      303.63596    
 407940000  -43.945522      67.251402      309.06098    
 407950000  -50.767606      61.334127      281.86751    
 407960000  -45.807672      62.802368      288.61497    
 407970000  -57.559275      67.414398      309.81005    
 407980000  -66.677404      52.755851      242.44513    
 407990000  -60.161478      52.655923      241.9859     
 408000000  -58.206673      55.448931      254.82147    
Loop time of 252.871 on 1 procs for 4000000 steps with 74 atoms

Performance: 13667.031 ns/day, 0.002 hours/ns, 15818.323 timesteps/s, 1.171 Matom-step/s
99.6% CPU use with 1 MPI tasks x 1 OpenMP threads

MPI task timing breakdown:
Section |  min time  |  avg time  |  max time  |%varavg| %total
---------------------------------------------------------------
Pair    | 226.22     | 226.22     | 226.22     |   0.0 | 89.46
Bond    | 15.028     | 15.028     | 15.028     |   0.0 |  5.94
Neigh   | 1.3718     | 1.3718     | 1.3718     |   0.0 |  0.54
Comm    | 1.9603     | 1.9603     | 1.9603     |   0.0 |  0.78
Output  | 0.11961    | 0.11961    | 0.11961    |   0.0 |  0.05
Modify  | 7.0731     | 7.0731     | 7.0731     |   0.0 |  2.80
Other   |            | 1.097      |            |       |  0.43

Nlocal:             74 ave          74 max          74 min
Histogram: 1 0 0 0 0 0 0 0 0 0
Nghost:              0 ave           0 max           0 min
Histogram: 1 0 0 0 0 0 0 0 0 0
Neighs:            615 ave         615 max         615 min
Histogram: 1 0 0 0 0 0 0 0 0 0

Total # of neighbors = 615
Ave neighs/atom = 8.3108108
Ave special neighs/atom = 5.8378378
Neighbor list builds = 7930
Dangerous builds = 0

write_data outputs/${tag}_final.data
write_data outputs/config_1_2DER_C.dat_final.data
System init for write_data ...
Generated 0 of 6 mixed pair_coeff terms from geometric mixing rule
Total wall time: 4:48:01
