
# ===============================
# FORCE FIELD
# ===============================
bond_style harmonic
bond_coeff 1 7.5 5.9

angle_style harmonic
angle_coeff 1 5.0 150.0

pair_style hybrid/overlay lj/cut 10.0 base/rna 18.0
pair_modify shift yes
pair_coeff * * lj/cut 2.0 8.9089871814

# Base-pair interactions
pair_coeff 1 1 base/rna 0.00000 3.0 13.8 1.5 0.5 1.8326 0.9425 1.8326 1.1345
pair_coeff 1 2 base/rna 0.00000 3.0 13.8 1.5 0.5 1.8326 0.9425 1.8326 1.1345
pair_coeff 1 3 base/rna 0.00000 3.0 13.8 1.5 0.5 1.8326 0.9425 1.8326 1.1345
pair_coeff 1 4 base/rna 3.33333 3.0 13.8 1.5 0.5 1.8326 0.9425 1.8326 1.1345
pair_coeff 2 2 base/rna 0.00000 3.0 13.8 1.5 0.5 1.8326 0.9425 1.8326 1.1345
pair_coeff 2 3 base/rna 5.00000 3.0 13.8 1.5 0.5 1.8326 0.9425 1.8326 1.1345
pair_coeff 2 4 base/rna 0.00000 3.0 13.8 1.5 0.5 1.8326 0.9425 1.8326 1.1345
pair_coeff 3 3 base/rna 0.00000 3.0 13.8 1.5 0.5 1.8326 0.9425 1.8326 1.1345
pair_coeff 3 4 base/rna 3.33333 3.0 13.8 1.5 0.5 1.8326 0.9425 1.8326 1.1345
pair_coeff 4 4 base/rna 0.00000 3.0 13.8 1.5 0.5 1.8326 0.9425 1.8326 1.1345

special_bonds lj 0.0 0.0 1.0
Finding 1-2 1-3 1-4 neighbors ...
  special bond factors lj:    0        0        1       
  special bond factors coul:  0        0        0       
     2 = max # of 1-2 neighbors
     2 = max # of 1-3 neighbors
     4 = max # of 1-4 neighbors
     6 = max # of special neighbors
  special bonds CPU = 0.000 seconds
neighbor 15.0 bin
neigh_modify every 10 delay 0
comm_style tiled
timestep 10

# ===============================
# DUMPS
# ===============================
dump d1 all custom ${dump_stride} outputs/${tag}.lammpstrj id mol type q xu yu zu
dump d1 all custom 50000 outputs/${tag}.lammpstrj id mol type q xu yu zu
dump d1 all custom 50000 outputs/config_8_4U7U_L.dat.lammpstrj id mol type q xu yu zu
dump_modify d1 sort id

# ===============================
# THERMO
# ===============================
thermo_style custom step pe ke temp
thermo ${thermo_stride}
thermo 10000
thermo_modify flush yes

variable vpe equal pe
variable vke equal ke
variable vT  equal temp

fix fa all ave/time ${thermo_stride} 10 ${stride10} v_vpe v_vke v_vT file outputs/thermo_${tag}_averaged.dat
fix fa all ave/time 10000 10 ${stride10} v_vpe v_vke v_vT file outputs/thermo_${tag}_averaged.dat
fix fa all ave/time 10000 10 100000 v_vpe v_vke v_vT file outputs/thermo_${tag}_averaged.dat
fix fa all ave/time 10000 10 100000 v_vpe v_vke v_vT file outputs/thermo_config_8_4U7U_L.dat_averaged.dat

# ===============================
# EQUILIBRATION (40 ns)
# ===============================
fix fxnve all nve
variable seed0 equal 43001
fix fxl all langevin ${T_eq} ${T_eq} 100000.0 ${seed0}
fix fxl all langevin 298 ${T_eq} 100000.0 ${seed0}
fix fxl all langevin 298 298 100000.0 ${seed0}
fix fxl all langevin 298 298 100000.0 43001

run ${n_eq}
run 4000000

CITE-CITE-CITE-CITE-CITE-CITE-CITE-CITE-CITE-CITE-CITE-CITE-CITE

Your simulation uses code contributions which should be cited:

- Type Label Framework: https://doi.org/10.1021/acs.jpcb.3c08419

@Article{Gissinger24,
 author = {Jacob R. Gissinger, Ilia Nikiforov, Yaser Afshar, Brendon Waters, Moon-ki Choi, Daniel S. Karls, Alexander Stukowski, Wonpil Im, Hendrik Heinz, Axel Kohlmeyer, and Ellad B. Tadmor},
 title = {Type Label Framework for Bonded Force Fields in LAMMPS},
 journal = {J. Phys. Chem. B},
 year =    2024,
 volume =  128,
 number =  13,
 pages =   {3282–-3297}
}

CITE-CITE-CITE-CITE-CITE-CITE-CITE-CITE-CITE-CITE-CITE-CITE-CITE

Generated 0 of 6 mixed pair_coeff terms from geometric mixing rule
Neighbor list info ...
  update: every = 10 steps, delay = 0 steps, check = yes
  max neighbors/atom: 2000, page size: 100000
  master list distance cutoff = 33
  ghost atom cutoff = 33
  binsize = 16.5, bins = 61 61 61
  2 neighbor lists, perpetual/occasional/extra = 2 0 0
  (1) pair lj/cut, perpetual, trim from (2)
      attributes: half, newton on, cut 25
      pair build: trim
      stencil: none
      bin: none
  (2) pair base/rna, perpetual
      attributes: half, newton on
      pair build: half/bin/newton
      stencil: half/bin/3d
      bin: standard
Per MPI rank memory allocation (min/avg/max) = 8.369 | 8.369 | 8.369 Mbytes
   Step         PotEng         KinEng          Temp     
         0   80.875924      0              0            
     10000   32.304438      54.107959      302.53498    
     20000   29.729414      62.502326      349.47058    
     30000   38.010697      51.730052      289.23934    
     40000   30.736323      56.109398      313.72567    
     50000   31.347346      61.667302      344.8017     
     60000   42.264624      53.037126      296.54761    
     70000   33.277161      52.085928      291.22916    
     80000   42.392463      53.290428      297.9639     
     90000   33.072719      59.430326      332.29405    
    100000   27.778514      52.006064      290.78261    
    110000   32.544837      56.114293      313.75304    
    120000   28.412076      51.614146      288.59127    
    130000   16.963351      52.564994      293.90777    
    140000   8.1456571      61.153982      341.93156    
    150000   13.33461       56.456894      315.66863    
    160000   18.558568      47.643051      266.3876     
    170000   12.233686      51.189963      286.21953    
    180000   9.9705511      51.985134      290.66559    
    190000   14.346128      49.004627      274.00062    
    200000   12.679412      45.379922      253.73372    
    210000   5.7809891      52.473714      293.39739    
    220000   19.997173      52.751439      294.95024    
    230000   22.978535      52.989212      296.27971    
    240000   20.316902      57.432179      321.12176    
    250000   25.903606      54.435437      304.36602    
    260000   17.197086      47.55066       265.87102    
    270000   14.450763      62.076333      347.08872    
    280000   19.977358      67.5207        377.52993    
    290000   12.480257      47.706493      266.74233    
    300000   13.327409      50.674606      283.338      
    310000   15.154711      48.106068      268.97648    
    320000   18.69679       60.237181      336.80543    
    330000   19.4697        55.610734      310.93748    
    340000   7.5697803      51.89689       290.17218    
    350000   13.82846       64.117904      358.5038     
    360000   4.57792        53.221267      297.5772     
    370000  -25.486006      66.904763      374.08603    
    380000  -11.677522      54.120743      302.60646    
    390000  -14.693558      48.427678      270.7747     
    400000  -26.276281      50.549352      282.63767    
    410000  -33.327888      58.022527      324.42259    
    420000  -15.345243      55.295266      309.1736     
    430000  -13.731455      51.400276      287.39546    
    440000  -13.651727      66.925999      374.20476    
    450000  -22.840551      68.613053      383.63762    
    460000  -20.275497      62.151726      347.51027    
    470000  -31.374838      59.140501      330.67354    
    480000  -16.228901      50.157024      280.44404    
    490000  -11.309724      60.913295      340.5858     
    500000  -16.352535      56.926122      318.29224    
    510000  -19.953575      50.39145       281.75479    
    520000  -24.053034      51.351487      287.12266    
    530000  -15.114408      45.89092       256.59088    
    540000  -29.327568      45.627841      255.11992    
    550000  -24.548462      53.158542      297.22649    
    560000  -25.015759      47.036742      262.99754    
    570000  -16.75632       53.102157      296.91122    
    580000  -10.328876      57.721887      322.74162    
    590000  -19.273954      60.405774      337.74809    
    600000  -18.118048      47.401145      265.03503    
    610000  -17.433669      63.176307      353.23903    
    620000  -15.06891       51.484535      287.86657    
    630000  -9.1611944      48.678395      272.17654    
    640000  -6.6260591      48.47741       271.05277    
    650000  -18.768948      59.848439      334.63185    
    660000  -5.2319171      49.762025      278.23547    
    670000  -2.4460394      65.247128      364.81766    
    680000  -2.7949043      51.190873      286.22462    
    690000  -12.478117      62.533412      349.64439    
    700000  -7.6474609      45.824955      256.22205    
    710000  -28.529715      58.077024      324.7273     
    720000  -16.025263      49.8928        278.96667    
    730000  -34.737482      54.117333      302.5874     
    740000  -22.442681      53.739223      300.47326    
    750000  -11.443229      54.31014       303.66544    
    760000  -18.295008      60.66262       339.1842     
    770000  -14.883447      49.177944      274.96968    
    780000  -21.464617      56.286659      314.7168     
    790000  -21.878956      56.763527      317.38311    
    800000  -27.686894      46.251743      258.60836    
    810000  -40.862315      57.595462      322.03473    
    820000  -37.175561      50.293311      281.20606    
    830000  -41.056611      54.151309      302.77736    
    840000  -37.126708      59.653427      333.54148    
    850000  -24.417707      47.274949      264.32943    
    860000  -25.701354      61.915437      346.1891     
    870000  -32.669163      51.40261       287.40851    
    880000  -27.884511      60.832092      340.13177    
    890000  -27.384793      64.382735      359.98455    
    900000  -31.628676      51.893347      290.15237    
    910000  -30.424499      54.303191      303.62659    
    920000  -16.084102      65.191084      364.50429    
    930000  -14.853281      62.138663      347.43723    
    940000  -4.5125395      55.101088      308.08789    
    950000  -12.825172      46.157526      258.08156    
    960000  -22.619334      56.339426      315.01183    
    970000  -31.930893      46.884924      262.14867    
    980000  -24.801224      59.425887      332.26923    
    990000  -20.787335      47.152042      263.64222    
   1000000  -30.789844      51.773986      289.48499    
   1010000  -22.233052      54.895612      306.93901    
   1020000  -22.276215      51.033578      285.34513    
   1030000  -22.778577      53.66361       300.05049    
   1040000  -24.875634      50.26967       281.07387    
   1050000  -25.697691      48.851336      273.14352    
   1060000  -28.791315      52.380329      292.87525    
   1070000  -26.861976      49.344278      275.89971    
   1080000  -26.459564      48.608057      271.78326    
   1090000  -35.650943      51.265068      286.63947    
   1100000  -11.803931      59.624007      333.37698    
   1110000  -32.691771      60.532928      338.45905    
   1120000  -36.598414      71.111852      397.60921    
   1130000  -23.353355      52.73818       294.87611    
   1140000  -27.482556      45.908501      256.68918    
   1150000  -19.187587      56.682481      316.92996    
   1160000  -16.159548      55.314112      309.27897    
   1170000  -32.648192      56.802545      317.60128    
   1180000  -35.822452      71.604252      400.36238    
   1190000  -26.825153      53.530726      299.30749    
   1200000  -23.211194      47.326268      264.61637    
   1210000  -36.014792      54.016617      302.02426    
   1220000  -39.718515      50.782756      283.9427     
   1230000  -30.213517      52.603164      294.12119    
   1240000  -36.44451       47.937255      268.03259    
   1250000  -30.078548      48.431936      270.79852    
   1260000  -19.812769      51.943557      290.43312    
   1270000  -20.267974      58.215992      325.50431    
   1280000  -17.681873      59.084117      330.35828    
   1290000  -33.974314      61.408428      343.35425    
   1300000  -29.205069      56.182765      314.13589    
   1310000  -23.037734      54.662069      305.63319    
   1320000  -23.054999      52.222502      291.99279    
   1330000  -14.611303      45.577645      254.83926    
   1340000  -18.973019      49.048373      274.24521    
   1350000  -19.241395      59.763155      334.155      
   1360000  -18.367652      58.102421      324.8693     
   1370000  -16.64294       56.367115      315.16665    
   1380000  -23.025242      59.329483      331.7302     
   1390000  -33.719825      54.599921      305.2857     
   1400000  -29.272609      47.075271      263.21297    
   1410000  -30.070012      51.02261       285.2838     
   1420000  -32.257921      64.733021      361.94312    
   1430000  -22.953277      49.132091      274.71331    
   1440000  -19.76956       48.735094      272.49357    
   1450000  -21.614131      60.599567      338.83165    
   1460000  -33.651461      54.751513      306.1333     
   1470000  -29.802761      60.808487      339.99979    
   1480000  -16.46204       66.614052      372.46056    
   1490000  -16.95471       52.274467      292.28334    
   1500000  -17.996787      51.354955      287.14205    
   1510000  -14.007976      52.457402      293.30619    
   1520000  -25.554129      45.709651      255.57735    
   1530000  -28.64159       54.381624      304.06513    
   1540000  -31.171902      48.185764      269.42209    
   1550000  -31.625631      58.31101       326.03559    
   1560000  -34.248238      53.189113      297.39742    
   1570000  -36.253124      55.913101      312.62811    
   1580000  -23.679746      47.856358      267.58027    
   1590000  -31.832951      54.912762      307.03489    
   1600000  -43.316216      61.150749      341.91348    
   1610000  -32.18706       54.679527      305.7308     
   1620000  -24.972605      51.295572      286.81002    
   1630000  -25.072964      54.13297       302.67483    
   1640000  -36.562153      56.019634      313.22377    
   1650000  -32.330738      46.318475      258.98148    
   1660000  -36.066035      44.127129      246.72895    
   1670000  -21.767427      49.652898      277.62531    
   1680000  -42.73132       54.48706       304.65466    
   1690000  -27.335589      60.499661      338.27304    
   1700000  -32.570817      53.227657      297.61293    
   1710000  -40.686494      49.729702      278.05474    
   1720000  -27.291206      52.255256      292.17593    
   1730000  -33.430711      63.487279      354.97778    
   1740000  -25.743506      64.600814      361.20391    
   1750000  -15.823474      69.217021      387.0146     
   1760000  -7.0456695      61.860673      345.8829     
   1770000  -8.6481943      55.099855      308.08099    
   1780000  -5.1558016      52.550612      293.82735    
   1790000  -22.934651      58.999512      329.88523    
   1800000  -24.443591      51.241959      286.51026    
   1810000  -22.240818      47.153033      263.64776    
   1820000  -27.398053      54.041467      302.16321    
   1830000  -12.791862      58.32777       326.1293     
   1840000  -19.534974      58.42871       326.69369    
   1850000  -31.242932      63.243341      353.61384    
   1860000  -31.246178      46.517075      260.09191    
   1870000  -24.735419      44.884467      250.96347    
   1880000  -31.151719      52.138027      291.52046    
   1890000  -39.282518      52.273027      292.27529    
   1900000  -34.961221      47.798096      267.25451    
   1910000  -35.826481      54.182864      302.9538     
   1920000  -30.850712      49.268257      275.47465    
   1930000  -25.251304      54.242848      303.28919    
   1940000  -12.319331      53.04858       296.61166    
   1950000  -28.022855      68.260134      381.66434    
   1960000  -15.429383      52.867437      295.59882    
   1970000  -24.807085      57.61759       322.15845    
   1980000  -32.428548      56.304165      314.81467    
   1990000  -32.683295      54.013952      302.00936    
   2000000  -29.821463      61.621359      344.54482    
   2010000  -30.894331      60.070829      335.87531    
   2020000  -15.648343      56.695507      317.0028     
   2030000  -8.6678708      54.491673      304.68045    
   2040000  -5.7733301      41.011097      229.30622    
   2050000  -12.261322      53.899573      301.36983    
   2060000  -5.7061795      54.189586      302.99139    
   2070000  -9.5571199      56.182017      314.13171    
   2080000  -1.231827       55.904881      312.58215    
   2090000  -3.8941842      56.336412      314.99498    
   2100000  -7.7811797      51.23012       286.44406    
   2110000   1.039975       60.248109      336.86653    
   2120000  -2.6078144      72.8774        407.48096    
   2130000  -5.5281681      48.544591      271.4284     
   2140000  -19.793969      66.544503      372.0717     
   2150000  -21.749482      46.080911      257.65318    
   2160000  -26.140136      53.853952      301.11475    
   2170000  -16.69812       53.98599       301.85301    
   2180000  -27.551906      60.144849      336.28917    
   2190000  -22.358452      51.017641      285.25602    
   2200000  -18.03832       57.796498      323.15879    
   2210000  -28.46286       50.227968      280.84071    
   2220000  -34.262654      53.754101      300.55645    
   2230000  -24.135106      60.882682      340.41464    
   2240000  -15.642904      52.617504      294.20137    
   2250000  -23.484736      54.557077      305.04614    
   2260000  -23.217044      53.874401      301.22909    
   2270000  -21.817599      53.908998      301.42253    
   2280000  -9.7142931      59.104442      330.47192    
   2290000  -24.782324      52.325826      292.57051    
   2300000  -23.241104      46.625128      260.69607    
   2310000  -27.839094      60.24473       336.84764    
   2320000  -10.720217      49.578837      277.2112     
   2330000  -14.994752      50.385969      281.72414    
   2340000  -14.748673      53.739339      300.47391    
   2350000  -20.815888      52.06348       291.10364    
   2360000  -5.5490863      39.280155      219.62797    
   2370000  -15.2088        57.614623      322.14187    
   2380000  -18.005027      69.972238      391.23726    
   2390000  -8.7840987      52.488548      293.48034    
   2400000  -13.316417      55.788839      311.93332    
   2410000  -21.512707      52.398186      292.97509    
   2420000  -15.643236      53.783482      300.72073    
   2430000  -20.964112      53.657768      300.01782    
   2440000  -22.700464      59.218016      331.10695    
   2450000  -23.53477       54.314006      303.68706    
   2460000  -28.964093      45.452945      254.14202    
   2470000  -21.806158      50.335978      281.44462    
   2480000  -24.686276      60.776521      339.82105    
   2490000  -22.931669      44.460192      248.59122    
   2500000  -18.842667      40.786021      228.04774    
   2510000  -13.36214       47.213224      263.9843     
   2520000  -19.764009      59.068361      330.27019    
   2530000  -18.84189       52.488438      293.47972    
   2540000  -19.579513      52.757479      294.98402    
   2550000  -19.26482       51.690774      289.01972    
   2560000  -15.031729      44.566433      249.18524    
   2570000  -13.010905      56.869959      317.97821    
   2580000  -16.384242      57.342435      320.61998    
   2590000  -9.1710448      53.72964       300.41968    
   2600000  -19.337322      63.789815      356.66935    
   2610000  -18.044036      56.047123      313.37747    
   2620000  -10.032294      59.369229      331.95243    
   2630000  -15.859533      53.442752      298.81559    
   2640000  -11.586374      46.577508      260.42981    
   2650000  -12.916128      42.573097      238.03986    
   2660000  -20.491456      45.459229      254.17715    
   2670000  -25.546395      57.292975      320.34343    
   2680000  -15.80924       49.809986      278.50364    
   2690000  -26.409271      53.884009      301.2828     
   2700000  -21.098471      49.327012      275.80317    
   2710000  -10.144633      53.190817      297.40694    
   2720000  -15.760236      50.577327      282.79409    
   2730000  -6.3854583      43.927244      245.61134    
   2740000  -7.9270802      56.948441      318.41703    
   2750000  -8.5068746      52.957997      296.10518    
   2760000  -22.809131      64.312685      359.59288    
   2770000  -22.898093      53.099994      296.89913    
   2780000  -15.71575       47.265334      264.27567    
   2790000  -37.057627      58.61215       327.71936    
   2800000  -19.875264      60.541654      338.50784    
   2810000  -20.983469      42.710084      238.8058     
   2820000  -21.010876      51.551181      288.23921    
   2830000  -32.485473      53.073211      296.74937    
   2840000  -25.300172      53.858492      301.14013    
   2850000  -38.476078      51.99167       290.70213    
   2860000  -41.439564      49.357555      275.97395    
   2870000  -41.440615      50.426358      281.94997    
   2880000  -33.050082      46.128389      257.91864    
   2890000  -19.959136      45.8162        256.17309    
   2900000  -22.926906      47.199935      263.91       
   2910000  -36.123519      50.692599      283.43861    
   2920000  -36.513228      57.111302      319.32764    
   2930000  -29.805382      46.802089      261.68552    
   2940000  -33.446213      38.520791      215.38212    
   2950000  -34.229443      45.400483      253.84869    
   2960000  -37.870571      50.882637      284.50117    
   2970000  -33.654633      55.213947      308.71892    
   2980000  -34.826517      56.240671      314.45966    
   2990000  -28.848727      46.949688      262.51079    
   3000000  -18.16018       54.180253      302.9392     
   3010000  -19.122654      63.310053      353.98685    
   3020000  -23.730846      62.992794      352.21295    
   3030000  -15.236293      54.761719      306.19037    
   3040000  -16.779826      60.162318      336.38685    
   3050000  -18.404244      61.820541      345.65851    
   3060000  -22.946761      57.777127      323.05048    
   3070000  -17.227815      46.082965      257.66466    
   3080000  -21.360292      54.43875       304.38454    
   3090000   4.1237464      52.972864      296.1883     
   3100000   0.97928913     60.523157      338.40441    
   3110000  -8.6781999      51.317085      286.93031    
   3120000  -5.1933457      60.439815      337.93842    
   3130000  -10.627453      61.601564      344.43413    
   3140000   4.5357714      56.212853      314.30412    
   3150000  -6.4038707      52.913745      295.85775    
   3160000  -20.162277      61.145866      341.88618    
   3170000  -15.023503      55.628223      311.03527    
   3180000  -14.428498      61.045421      341.32456    
   3190000  -20.614606      59.532546      332.86559    
   3200000  -18.44289       47.386067      264.95073    
   3210000  -17.418818      49.872577      278.8536     
   3220000  -14.134217      53.24344       297.70118    
   3230000  -18.933102      49.99829       279.5565     
   3240000  -20.660973      55.656996      311.19615    
   3250000  -31.020973      51.317252      286.93124    
   3260000  -19.894203      50.677871      283.35626    
   3270000  -29.623674      59.292599      331.52397    
   3280000  -24.571499      46.073168      257.60988    
   3290000  -34.933169      47.292412      264.42707    
   3300000  -47.76897       53.971604      301.77258    
   3310000  -35.628359      49.650681      277.61291    
   3320000  -33.923758      48.132834      269.12614    
   3330000  -31.028646      57.553011      321.79737    
   3340000  -31.788213      45.660444      255.30221    
   3350000  -31.824435      47.782831      267.16916    
   3360000  -35.973636      60.107022      336.07767    
   3370000  -40.335218      64.22886       359.12419    
   3380000  -12.053059      57.057586      319.02729    
   3390000  -23.639289      60.486514      338.19953    
   3400000  -18.911925      58.807532      328.81181    
   3410000  -15.660589      45.390872      253.79495    
   3420000  -22.807792      46.607364      260.59675    
   3430000  -22.237319      55.339271      309.41964    
   3440000  -16.597737      64.492072      360.5959     
   3450000  -23.838849      60.095363      336.01248    
   3460000  -22.697613      54.007839      301.97518    
   3470000  -17.246276      48.063106      268.73627    
   3480000  -17.330899      61.071423      341.46994    
   3490000  -8.3876568      56.346061      315.04893    
   3500000  -17.553404      55.238219      308.85463    
   3510000  -13.282926      44.646611      249.63355    
   3520000  -27.785057      51.950153      290.47       
   3530000  -11.085549      51.141004      285.94578    
   3540000  -18.320585      57.073881      319.11841    
   3550000  -17.757448      59.349462      331.84191    
   3560000  -23.81529       57.813568      323.25423    
   3570000  -34.577282      59.820336      334.47472    
   3580000  -32.347166      51.090982      285.6661     
   3590000  -32.052115      53.996092      301.9095     
   3600000  -31.762558      49.042542      274.21261    
   3610000  -33.165869      53.910861      301.43295    
   3620000  -29.781956      63.901658      357.2947     
   3630000  -23.879141      50.584016      282.83148    
   3640000  -37.154439      51.285779      286.75527    
   3650000  -32.010804      48.653224      272.03581    
   3660000  -28.384813      47.117916      263.4514     
   3670000  -20.819071      50.234829      280.87907    
   3680000  -22.771788      55.645704      311.13301    
   3690000  -6.9965427      49.319265      275.75986    
   3700000  -3.5076065      52.34058       292.653      
   3710000  -6.1506003      47.660237      266.4837     
   3720000  -16.489624      47.84339       267.50776    
   3730000  -26.364866      53.036278      296.54287    
   3740000  -38.925918      55.667858      311.25688    
   3750000  -37.375114      54.893878      306.92931    
   3760000  -33.907019      52.161421      291.65127    
   3770000  -21.496351      44.215097      247.22081    
   3780000  -19.691459      43.610211      243.8387     
   3790000  -22.3927        51.568538      288.33627    
   3800000  -19.93712       51.258072      286.60035    
   3810000  -23.267707      51.971012      290.58662    
   3820000  -30.828567      48.528123      271.33632    
   3830000  -17.520699      55.000205      307.52382    
   3840000  -29.246725      54.918864      307.06901    
   3850000  -27.223395      58.519638      327.20209    
   3860000  -10.360147      50.58692       282.84772    
   3870000  -19.717759      60.515526      338.36175    
   3880000  -24.606502      54.241687      303.2827     
   3890000  -45.670178      52.803492      295.24129    
   3900000  -14.851049      44.055922      246.33081    
   3910000  -18.660769      56.146194      313.93141    
   3920000  -17.482734      56.561979      316.2562     
   3930000  -19.49401       57.532121      321.68057    
   3940000  -35.705008      60.084984      335.95445    
   3950000  -16.280827      61.697711      344.97172    
   3960000  -24.735933      56.679027      316.91065    
   3970000  -9.5528595      49.85801       278.77215    
   3980000  -10.740701      55.242084      308.87624    
   3990000  -22.981859      61.602019      344.43668    
   4000000  -15.051803      52.957703      296.10353    
Loop time of 193.073 on 1 procs for 4000000 steps with 61 atoms

Performance: 17899.929 ns/day, 0.001 hours/ns, 20717.511 timesteps/s, 1.264 Matom-step/s
99.6% CPU use with 1 MPI tasks x 1 OpenMP threads

MPI task timing breakdown:
Section |  min time  |  avg time  |  max time  |%varavg| %total
---------------------------------------------------------------
Pair    | 171.16     | 171.16     | 171.16     |   0.0 | 88.65
Bond    | 12.033     | 12.033     | 12.033     |   0.0 |  6.23
Neigh   | 1.4468     | 1.4468     | 1.4468     |   0.0 |  0.75
Comm    | 1.968      | 1.968      | 1.968      |   0.0 |  1.02
Output  | 0.077351   | 0.077351   | 0.077351   |   0.0 |  0.04
Modify  | 5.735      | 5.735      | 5.735      |   0.0 |  2.97
Other   |            | 0.6527     |            |       |  0.34

Nlocal:             61 ave          61 max          61 min
Histogram: 1 0 0 0 0 0 0 0 0 0
Nghost:              0 ave           0 max           0 min
Histogram: 1 0 0 0 0 0 0 0 0 0
Neighs:            607 ave         607 max         607 min
Histogram: 1 0 0 0 0 0 0 0 0 0

Total # of neighbors = 607
Ave neighs/atom = 9.9508197
Ave special neighs/atom = 5.8032787
Neighbor list builds = 8093
Dangerous builds = 0

# ===============================
# MAIN SA LOOP — 10 cycles
# ===============================
variable c loop ${ncycle}
variable c loop 10
label cyc

  # Heat 298 → 500
  variable seedH equal 44000+${c}
  variable seedH equal 44000+1
  unfix fxl
  fix fxl all langevin ${T_eq} ${T_high} 100000.0 ${seedH}
  fix fxl all langevin 298 ${T_high} 100000.0 ${seedH}
  fix fxl all langevin 298 500 100000.0 ${seedH}
  fix fxl all langevin 298 500 100000.0 44001
  run ${n_heat}
  run 8000000
Generated 0 of 6 mixed pair_coeff terms from geometric mixing rule
Per MPI rank memory allocation (min/avg/max) = 9.627 | 9.627 | 9.627 Mbytes
   Step         PotEng         KinEng          Temp     
   4000000  -15.051803      52.957703      296.10353    
   4010000  -34.863017      61.435619      343.50628    
   4020000  -31.224206      64.018271      357.94672    
   4030000  -24.947567      58.503276      327.11061    
   4040000  -30.341235      54.217348      303.14661    
   4050000  -37.12517       52.779895      295.10935    
   4060000  -40.387627      51.745669      289.32666    
   4070000  -50.477719      49.162723      274.88458    
   4080000  -35.346621      47.177805      263.78627    
   4090000  -34.751802      63.413248      354.56384    
   4100000  -18.502994      52.776733      295.09167    
   4110000  -24.924112      62.303102      348.35666    
   4120000  -21.459438      63.707495      356.20907    
   4130000  -13.134435      57.069448      319.09362    
   4140000  -20.706568      58.802368      328.78293    
   4150000  -27.912945      61.310757      342.80814    
   4160000  -15.726319      50.649947      283.20013    
   4170000  -22.724034      53.725147      300.39456    
   4180000  -29.235302      58.619142      327.75846    
   4190000  -21.869744      53.993838      301.8969     
   4200000  -23.265452      48.985791      273.89529    
   4210000  -23.304459      58.825302      328.91116    
   4220000  -15.711244      49.913679      279.08341    
   4230000  -27.640197      49.763219      278.24215    
   4240000  -24.261243      56.629624      316.63442    
   4250000  -25.206482      54.914758      307.04605    
   4260000  -12.807635      53.117066      296.99458    
   4270000  -19.824963      53.689726      300.19651    
   4280000  -23.448884      62.946096      351.95185    
   4290000  -14.491566      55.67822       311.31481    
   4300000  -24.484955      53.215425      297.54454    
   4310000  -20.443489      49.626611      277.47833    
   4320000  -24.08643       53.764242      300.61315    
   4330000  -40.552266      51.787216      289.55896    
   4340000  -26.996473      59.448079      332.39331    
   4350000  -16.803534      56.736642      317.2328     
   4360000  -27.368815      55.149645      308.35938    
   4370000  -27.856216      63.132988      352.99682    
   4380000  -18.262212      56.899231      318.14188    
   4390000  -9.0769321      60.903181      340.52925    
   4400000   4.6700725      54.573883      305.14012    
   4410000   2.2360064      61.628818      344.58652    
   4420000  -12.498399      60.801356      339.95992    
   4430000  -13.709635      71.942111      402.25146    
   4440000  -15.682759      54.76227       306.19345    
   4450000  -13.550773      57.79075       323.12665    
   4460000  -18.127458      58.984902      329.80354    
   4470000  -29.484541      67.57756       377.84785    
   4480000  -18.559207      47.360111      264.8056     
   4490000  -26.23422       53.534809      299.33031    
   4500000  -18.831746      47.854348      267.56904    
   4510000  -17.485331      47.81036       267.32308    
   4520000  -12.142845      52.963094      296.13367    
   4530000  -26.078311      61.100442      341.6322     
   4540000  -20.915716      67.67928       378.4166     
   4550000  -22.012466      54.08499       302.40656    
   4560000  -11.051951      52.814682      295.30385    
   4570000  -18.446504      58.658425      327.9781     
   4580000  -4.966738       48.204749      269.52824    
   4590000  -11.408557      58.424182      326.66837    
   4600000  -21.926757      67.672514      378.37877    
   4610000  -15.643216      61.022191      341.19468    
   4620000  -12.083842      52.591762      294.05744    
   4630000  -2.0919226      55.213983      308.71912    
   4640000  -11.632544      53.164318      297.25878    
   4650000  -14.833806      56.756406      317.3433     
   4660000  -5.3450252      49.59212       277.28548    
   4670000  -19.389486      56.477858      315.78585    
   4680000  -21.499942      51.507709      287.99615    
   4690000  -25.487848      48.857564      273.17834    
   4700000  -10.80954       48.755902      272.60992    
   4710000  -14.141469      42.640135      238.41469    
   4720000  -26.721661      59.940555      335.1469     
   4730000  -19.141917      59.23232       331.18693    
   4740000  -12.126473      54.133191      302.67607    
   4750000  -22.115987      60.09692       336.02119    
   4760000  -19.528378      65.889526      368.40951    
   4770000  -25.097002      59.127415      330.60037    
   4780000  -12.193866      50.784171      283.95062    
   4790000  -24.324126      46.602752      260.57096    
   4800000  -22.15611       49.982799      279.46989    
   4810000  -16.718391      60.91134       340.57487    
   4820000  -7.4423649      54.73071       306.01698    
   4830000  -19.295779      49.185689      275.01299    
   4840000  -19.857163      55.187783      308.57263    
   4850000  -19.050532      50.23048       280.85475    
   4860000  -16.42006       62.013257      346.73604    
   4870000  -0.49192314     48.703561      272.31726    
   4880000  -16.655793      67.395784      376.83148    
   4890000  -11.203716      60.025247      335.62044    
   4900000  -6.2768973      49.52449       276.90733    
   4910000  -11.315664      56.75457       317.33303    
   4920000  -24.364489      68.319273      381.99501    
   4930000  -11.605963      66.266203      370.51563    
   4940000  -25.472008      66.282564      370.60711    
   4950000  -11.92009       51.237706      286.48647    
   4960000  -19.778323      63.81146       356.79038    
   4970000  -13.854494      62.955401      352.00387    
   4980000  -17.034922      64.589038      361.13806    
   4990000  -8.2082295      61.728205      345.14222    
   5000000  -25.445052      67.308802      376.34513    
   5010000  -5.0084166      60.746433      339.65283    
   5020000  -2.2298158      56.601157      316.47526    
   5030000  -7.299616       66.176053      370.01157    
   5040000  -6.5437163      66.56952       372.21157    
   5050000  -17.680409      75.943122      424.62239    
   5060000  -16.625156      65.173667      364.40691    
   5070000  -11.432527      52.565424      293.91017    
   5080000  -22.885898      67.297031      376.27932    
   5090000  -21.793383      60.654943      339.14127    
   5100000  -31.746166      53.20007       297.45869    
   5110000  -33.049128      62.665196      350.38124    
   5120000  -22.445228      56.876752      318.0162     
   5130000  -27.205228      50.02861       279.72603    
   5140000  -15.80275       57.017121      318.80104    
   5150000  -25.842121      62.622477      350.14239    
   5160000   3.3514254      53.906146      301.40658    
   5170000  -17.933793      59.818239      334.46299    
   5180000  -15.963733      51.58985       288.45543    
   5190000   3.9975407      64.000562      357.8477     
   5200000  -2.5345193      67.7333        378.71864    
   5210000  -9.1203389      61.283889      342.65791    
   5220000  -8.1669411      54.645583      305.54101    
   5230000  -0.83363631     71.607688      400.38159    
   5240000   0.92184552     46.096807      257.74206    
   5250000  -14.081228      64.812934      362.38994    
   5260000  -7.6357465      66.49557       371.7981     
   5270000  -2.2998805      55.778938      311.87796    
   5280000   8.8349328      56.717036      317.12317    
   5290000   1.2888469      61.755917      345.29717    
   5300000  -12.36305       58.279305      325.85832    
   5310000  -3.3539577      66.53212       372.00246    
   5320000  -15.35642       66.736615      373.14586    
   5330000  -21.002256      63.987059      357.77221    
   5340000  -29.192417      54.809533      306.45771    
   5350000  -18.803298      53.886396      301.29615    
   5360000  -25.881583      61.423415      343.43805    
   5370000  -20.809975      67.753023      378.82892    
   5380000  -6.3943556      55.019876      307.6338     
   5390000  -16.092527      57.431861      321.11998    
   5400000  -14.799007      61.302402      342.76143    
   5410000  -27.158061      54.787312      306.33346    
   5420000  -15.96185       56.727503      317.1817     
   5430000  -18.695093      58.492377      327.04967    
   5440000  -11.061446      58.588906      327.58939    
   5450000  -17.177247      61.215536      342.27573    
   5460000  -11.409035      59.416456      332.2165     
   5470000  -7.3781407      49.873203      278.8571     
   5480000   4.1151282      49.339133      275.87095    
   5490000  -10.172464      54.076171      302.35724    
   5500000  -4.6492055      49.01738       274.07192    
   5510000  -19.879629      66.176747      370.01546    
   5520000  -0.063144394    46.430291      259.60668    
   5530000  -11.788092      65.514143      366.31062    
   5540000  -7.9935917      61.380375      343.19739    
   5550000  -9.7607365      60.261517      336.9415     
   5560000   0.76782555     50.203776      280.70544    
   5570000  -5.6598214      50.940152      284.82276    
   5580000  -12.209345      57.118828      319.36972    
   5590000  -9.2919714      64.741584      361.991      
   5600000  -5.0311731      69.109583      386.41388    
   5610000  -8.2150021      61.272525      342.59437    
   5620000  -7.8915717      59.177469      330.88024    
   5630000  -8.735016       61.283514      342.65582    
   5640000  -1.0008962      56.884925      318.06189    
   5650000  -5.4235645      53.393003      298.53743    
   5660000   7.1493328      62.329874      348.50635    
   5670000   2.9259659      60.736501      339.59729    
   5680000   2.9679069      71.950377      402.29767    
   5690000  -2.2894012      57.635573      322.25901    
   5700000  -8.5382148      58.211626      325.47991    
   5710000   6.4965442      59.994654      335.44938    
   5720000  -8.8901496      76.181044      425.95269    
   5730000   0.79219429     64.384332      359.99349    
   5740000   2.4658823      64.77757       362.19221    
   5750000  -7.9801863      55.834818      312.1904     
   5760000  -11.253152      64.35709       359.84117    
   5770000  -16.134975      61.515616      343.95357    
   5780000  -12.615551      65.296748      365.09509    
   5790000  -1.3951294      47.31579       264.55778    
   5800000  -10.416613      60.799309      339.94847    
   5810000  -0.24487997     51.174137      286.13104    
   5820000  -14.577896      56.260199      314.56885    
   5830000  -2.5761134      58.083436      324.76315    
   5840000   1.1159495      63.71609       356.25713    
   5850000   1.4549541      59.740016      334.02562    
   5860000   6.1980937      70.844161      396.11247    
   5870000   20.202944      60.373598      337.56819    
   5880000   23.719563      69.238813      387.13645    
   5890000   9.9393469      67.076002      375.04348    
   5900000   12.91544       58.363257      326.32772    
   5910000   2.7861472      66.304961      370.73234    
   5920000   4.479161       60.05571       335.79077    
   5930000  -6.430609       58.97809       329.76545    
   5940000  -7.2940031      57.808595      323.22643    
   5950000   0.77756859     61.379449      343.19222    
   5960000  -0.43479646     59.207619      331.04882    
   5970000  -1.2902301      60.16697       336.41286    
   5980000   20.204834      52.80974       295.27622    
   5990000   4.086134       75.671489      423.10361    
   6000000   8.2180652      70.500341      394.19006    
   6010000  -3.3770632      50.91521       284.6833     
   6020000  -0.99469981     62.396362      348.87811    
   6030000   3.8587046      55.478068      310.1957     
   6040000   0.81638846     57.109286      319.31636    
   6050000   9.3727821      59.61017       333.29961    
   6060000   0.83172693     55.797951      311.98427    
   6070000  -5.482798       65.809707      367.96322    
   6080000   1.6767432      68.939464      385.46269    
   6090000  -1.139581       61.630552      344.59622    
   6100000   8.6140717      69.688594      389.65132    
   6110000   1.6330703      64.953232      363.17439    
   6120000  -5.7739058      72.235754      403.89331    
   6130000  -3.4584395      66.302632      370.71932    
   6140000  -12.708985      73.872173      413.04305    
   6150000  -1.6323719      58.960931      329.66951    
   6160000  -9.8945284      62.161926      347.5673     
   6170000  -11.422161      65.982163      368.92747    
   6180000  -13.411694      55.3326        309.38234    
   6190000  -24.187281      59.787719      334.29235    
   6200000  -17.603359      59.481675      332.58116    
   6210000  -16.03619       66.744383      373.18929    
   6220000  -12.188235      48.540238      271.40406    
   6230000  -23.49918       65.206811      364.59223    
   6240000  -8.9643237      70.448646      393.90101    
   6250000   3.9198469      63.220936      353.48856    
   6260000   2.8979148      63.750834      356.4514     
   6270000   8.9404416      64.701979      361.76955    
   6280000   3.5076494      64.084337      358.31612    
   6290000  -1.0327484      55.510851      310.379      
   6300000  -10.897991      58.362912      326.32579    
   6310000  -4.0379599      62.467297      349.27473    
   6320000  -5.8458116      62.367558      348.71705    
   6330000   3.4703442      73.935476      413.397      
   6340000   3.8813192      54.01599       302.02075    
   6350000   6.5092783      69.695472      389.68977    
   6360000   14.420517      68.466658      382.81908    
   6370000  -0.7159037      58.33477       326.16844    
   6380000   8.5287472      63.954112      357.58799    
   6390000   1.6519194      58.373369      326.38426    
   6400000  -6.8391557      78.648717      439.75025    
   6410000   5.8034837      65.190492      364.50099    
   6420000  -3.1854024      81.309701      454.62866    
   6430000   2.5429123      63.606388      355.64375    
   6440000   23.789216      63.463642      354.84561    
   6450000   7.3195661      77.700032      434.44584    
   6460000   22.676712      69.635365      389.3537     
   6470000  -1.8057882      60.101777      336.04835    
   6480000   2.2866314      68.4279        382.60237    
   6490000  -2.1264933      55.430894      309.93194    
   6500000  -3.4607135      59.179225      330.89006    
   6510000  -1.5908999      73.81307       412.71259    
   6520000   15.071451      65.16022       364.33173    
   6530000   8.1945887      69.025999      385.94654    
   6540000   9.3975173      64.198492      358.95439    
   6550000   7.0024533      68.751002      384.40894    
   6560000   10.038073      70.441565      393.86142    
   6570000   10.229487      69.329719      387.64473    
   6580000   17.588602      69.937456      391.04278    
   6590000   11.802201      72.850681      407.33156    
   6600000   15.597882      51.441531      287.62613    
   6610000   13.889769      62.528294      349.61578    
   6620000   11.267432      58.026225      324.44327    
   6630000   18.077934      57.047979      318.97358    
   6640000   22.134371      60.562591      338.6249     
   6650000   21.895384      59.950474      335.20236    
   6660000   27.168526      63.741151      356.39726    
   6670000   34.07382       69.70602       389.74875    
   6680000   36.488935      69.035305      385.99857    
   6690000   23.14356       86.995415      486.41932    
   6700000   20.067936      65.168825      364.37984    
   6710000   26.567093      65.171627      364.3955     
   6720000   13.205452      60.69447       339.36228    
   6730000   35.891011      58.791335      328.72124    
   6740000   22.748897      57.967033      324.11231    
   6750000   35.978678      62.301354      348.34688    
   6760000   27.383679      79.468996      444.33669    
   6770000   24.871144      64.100208      358.40486    
   6780000   22.301633      63.322233      354.05495    
   6790000   34.933525      66.459873      371.5985     
   6800000   22.978102      78.975613      441.57802    
   6810000   22.233292      73.9571        413.51791    
   6820000   28.041763      67.063991      374.97632    
   6830000   36.031687      62.017623      346.76046    
   6840000   21.986656      76.502176      427.74825    
   6850000   23.767231      72.436742      405.0171     
   6860000   24.97361       57.330549      320.55352    
   6870000   14.138439      70.15664       392.26831    
   6880000   18.648607      61.840697      345.7712     
   6890000   24.043955      62.601922      350.02746    
   6900000   29.467774      60.223273      336.72767    
   6910000   30.139957      62.474905      349.31726    
   6920000   20.785725      83.711577      468.05832    
   6930000   32.013628      72.477127      405.2429     
   6940000   37.137424      81.697739      456.79831    
   6950000   45.636422      63.596         355.58567    
   6960000   28.944298      78.239058      437.45971    
   6970000   33.944913      66.820362      373.61411    
   6980000   30.96015       56.109681      313.72726    
   6990000   19.194751      77.097404      431.07635    
   7000000   17.964249      89.710963      501.60282    
   7010000   42.197096      54.1502        302.77116    
   7020000   36.560532      62.801976      351.14602    
   7030000   34.465646      69.42198       388.16059    
   7040000   30.57289       64.711155      361.82086    
   7050000   27.775194      58.792269      328.72646    
   7060000   19.320143      71.976242      402.44229    
   7070000   34.195366      72.303071      404.2697     
   7080000   52.489752      68.506663      383.04276    
   7090000   41.28996       81.870478      457.76414    
   7100000   52.804728      77.735239      434.64269    
   7110000   40.108976      80.723095      451.34876    
   7120000   53.94032       68.036257      380.41257    
   7130000   47.346572      81.665124      456.61595    
   7140000   41.675673      61.604518      344.45065    
   7150000   26.65136       53.920535      301.48703    
   7160000   34.185147      66.010679      369.08691    
   7170000   25.815935      63.555214      355.35762    
   7180000   32.514684      69.418855      388.14312    
   7190000   31.704976      76.432944      427.36114    
   7200000   27.956466      71.582937      400.2432     
   7210000   27.473209      69.168593      386.74383    
   7220000   17.573881      79.742014      445.86322    
   7230000   41.746371      76.324361      426.75402    
   7240000   56.752674      62.183458      347.68769    
   7250000   45.031849      72.879005      407.48993    
   7260000   39.6491        70.479311      394.07247    
   7270000   39.675299      62.942905      351.93401    
   7280000   39.827453      62.57205       349.86043    
   7290000   43.625101      64.556422      360.9557     
   7300000   45.438115      65.265986      364.9231     
   7310000   44.053913      70.424401      393.76545    
   7320000   45.21124       79.183651      442.74123    
   7330000   60.715896      74.774072      418.08586    
   7340000   45.467428      68.429125      382.60922    
   7350000   46.421093      72.295842      404.22928    
   7360000   41.263458      73.184231      409.19655    
   7370000   57.260381      79.345668      443.64712    
   7380000   51.331511      63.957461      357.60671    
   7390000   50.51058       76.899932      429.97223    
   7400000   46.853319      86.768606      485.15115    
   7410000   51.871136      67.41868       376.9595     
   7420000   41.962204      79.912574      446.81687    
   7430000   44.012279      68.390646      382.39407    
   7440000   45.363985      70.750396      395.5882     
   7450000   45.926392      69.539093      388.81541    
   7460000   41.237701      72.012712      402.64621    
   7470000   48.833494      72.217566      403.79162    
   7480000   54.106991      66.390212      371.209      
   7490000   31.296034      82.73689       462.60853    
   7500000   45.113766      82.05289       458.78407    
   7510000   37.94122       64.684664      361.67274    
   7520000   38.01833       63.324227      354.0661     
   7530000   38.344802      73.517728      411.06123    
   7540000   35.468439      75.302348      421.03962    
   7550000   33.254194      85.657446      478.9383     
   7560000   45.282774      79.206367      442.86824    
   7570000   42.793054      76.428111      427.33412    
   7580000   54.57121       73.006647      408.20362    
   7590000   38.721418      66.201028      370.15122    
   7600000   47.048992      70.42576       393.77305    
   7610000   55.965066      59.256732      331.32342    
   7620000   43.042611      70.657245      395.06736    
   7630000   49.834007      64.994466      363.40494    
   7640000   37.958502      74.901183      418.79658    
   7650000   43.204068      84.260876      471.12963    
   7660000   51.688022      77.349765      432.48739    
   7670000   38.100839      77.949997      435.84348    
   7680000   32.748067      78.340647      438.02773    
   7690000   39.072372      59.169206      330.83404    
   7700000   42.290116      66.580595      372.2735     
   7710000   49.549816      57.66051       322.39844    
   7720000   31.784471      83.849083      468.82716    
   7730000   52.033107      77.712142      434.51355    
   7740000   53.455411      77.889825      435.50704    
   7750000   48.212749      75.584678      422.61822    
   7760000   45.676485      72.679503      406.37445    
   7770000   41.527255      72.072552      402.9808     
   7780000   37.545605      67.409298      376.90704    
   7790000   35.737237      71.6058        400.37103    
   7800000   47.543913      63.353747      354.23116    
   7810000   40.423855      68.327085      382.03869    
   7820000   46.375479      81.372823      454.9816     
   7830000   46.103804      59.880109      334.80893    
   7840000   39.40009       70.255404      392.82054    
   7850000   38.113202      64.55741       360.96122    
   7860000   31.809215      66.505487      371.85355    
   7870000   29.344556      67.201425      375.74476    
   7880000   24.97088       77.801726      435.01445    
   7890000   34.758573      60.159773      336.37262    
   7900000   37.142574      81.766623      457.18346    
   7910000   47.366889      69.195904      386.89653    
   7920000   50.438019      77.409061      432.81893    
   7930000   39.966073      80.239249      448.64342    
   7940000   39.363715      60.173251      336.44798    
   7950000   47.379116      68.111244      380.83185    
   7960000   39.349404      74.491201      416.50424    
   7970000   33.603427      70.007955      391.43697    
   7980000   50.451243      80.396134      449.52061    
   7990000   50.726736      78.942609      441.39349    
   8000000   52.517891      89.251577      499.03424    
   8010000   45.605867      99.362006      555.5649     
   8020000   43.207407      79.480536      444.40121    
   8030000   46.849845      74.270641      415.27102    
   8040000   46.028373      69.288617      387.41492    
   8050000   47.358411      74.631421      417.28825    
   8060000   59.42507       74.19664       414.85725    
   8070000   51.707317      89.446181      500.12233    
   8080000   42.180747      73.249008      409.55874    
   8090000   38.875736      78.724615      440.17461    
   8100000   43.847725      74.928604      418.9499     
   8110000   41.795234      65.464078      366.03069    
   8120000   47.19368       95.484778      533.88607    
   8130000   59.319382      80.346403      449.24255    
   8140000   47.655263      80.821972      451.90161    
   8150000   38.755556      76.891699      429.92619    
   8160000   51.737352      73.622551      411.64734    
   8170000   37.036881      69.038681      386.01745    
   8180000   32.623809      68.582916      383.46912    
   8190000   37.478792      79.765119      445.99241    
   8200000   44.017949      81.502463      455.70646    
   8210000   43.398021      71.399177      399.21574    
   8220000   50.079631      68.40667       382.48367    
   8230000   42.744577      68.745758      384.37962    
   8240000   56.210826      65.039257      363.65538    
   8250000   48.541024      67.581758      377.87132    
   8260000   45.039449      78.656755      439.79519    
   8270000   50.863861      70.50598       394.22159    
   8280000   43.612184      59.857678      334.68351    
   8290000   50.350172      77.446829      433.0301     
   8300000   43.735052      85.768949      479.56175    
   8310000   35.669008      83.188303      465.13253    
   8320000   28.254611      74.299721      415.43361    
   8330000   15.790915      83.81843       468.65577    
   8340000   19.036855      57.150045      319.54426    
   8350000   35.38228       67.825405      379.23363    
   8360000   35.89798       81.533101      455.87776    
   8370000   29.892812      78.357115      438.11981    
   8380000   35.434023      74.916245      418.88079    
   8390000   45.913706      78.299951      437.80018    
   8400000   33.765162      79.623339      445.19967    
   8410000   29.988227      76.073806      425.35309    
   8420000   37.867995      79.850299      446.46867    
   8430000   45.4653        77.050178      430.8123     
   8440000   36.52264       71.871336      401.85573    
   8450000   44.054808      74.003544      413.77759    
   8460000   33.707515      78.304824      437.82743    
   8470000   42.806968      74.625935      417.25758    
   8480000   35.179112      65.838764      368.12568    
   8490000   23.784192      69.191046      386.86937    
   8500000   35.92478       75.983958      424.85072    
   8510000   31.211074      74.989532      419.29057    
   8520000   13.016391      85.57707       478.48889    
   8530000   14.819564      70.424782      393.76758    
   8540000   9.916831       61.529173      344.02937    
   8550000   21.012227      75.205766      420.4996     
   8560000   15.991754      78.713567      440.11284    
   8570000   24.480665      72.894394      407.57598    
   8580000   36.292373      69.574737      389.01471    
   8590000   35.644247      78.360175      438.13691    
   8600000   50.203572      67.997692      380.19694    
   8610000   26.455323      73.898321      413.18925    
   8620000   25.829648      71.923734      402.14871    
   8630000   38.087463      65.815897      367.99782    
   8640000   16.21613       72.570522      405.76511    
   8650000   10.925974      63.864108      357.08474    
   8660000   4.3023851      62.493687      349.42228    
   8670000   15.755375      84.207414      470.83071    
   8680000   22.19358       69.626912      389.30644    
   8690000   7.5741225      81.576465      456.12022    
   8700000   29.202554      73.17364       409.13733    
   8710000   15.772241      86.616961      484.30326    
   8720000   15.107027      74.334794      415.62972    
   8730000   24.858219      77.533861      433.51673    
   8740000   43.954752      81.262167      454.36288    
   8750000   43.538537      91.164614      509.73065    
   8760000   35.106963      86.181428      481.86806    
   8770000   40.259405      70.144092      392.19815    
   8780000   30.662335      69.340819      387.7068     
   8790000   48.361355      84.369976      471.73964    
   8800000   42.56313       80.391643      449.49551    
   8810000   48.062207      69.110692      386.42009    
   8820000   40.367754      68.99255       385.75951    
   8830000   48.183545      79.490806      444.45863    
   8840000   44.88371       89.068122      498.00849    
   8850000   62.069341      70.339795      393.29239    
   8860000   49.968608      90.292976      504.85704    
   8870000   64.095087      83.765431      468.35944    
   8880000   49.180111      83.026293      464.22668    
   8890000   35.97018       61.78297       345.44844    
   8900000   51.028456      64.445217      360.33392    
   8910000   45.347021      88.529002      494.99409    
   8920000   55.856005      62.513366      349.53231    
   8930000   43.474874      72.531293      405.54576    
   8940000   39.479984      61.645065      344.67737    
   8950000   41.620939      76.251773      426.34816    
   8960000   55.272934      74.886568      418.71486    
   8970000   52.759252      100.42534      561.51032    
   8980000   52.331152      87.289093      488.06136    
   8990000   51.858912      89.300319      499.30678    
   9000000   36.425522      79.079832      442.16075    
   9010000   39.414881      75.226957      420.61809    
   9020000   52.625547      73.491043      410.91203    
   9030000   59.217515      76.414708      427.25918    
   9040000   46.65336       92.105822      514.99324    
   9050000   59.875887      85.282584      476.84233    
   9060000   46.328993      76.871147      429.81128    
   9070000   59.671408      76.996614      430.51281    
   9080000   50.320951      84.207225      470.82965    
   9090000   56.499847      79.138342      442.4879     
   9100000   41.962166      74.487753      416.48496    
   9110000   45.498753      69.972004      391.23596    
   9120000   58.344347      78.213179      437.31501    
   9130000   47.718205      80.785948      451.70019    
   9140000   62.348816      74.915515      418.87672    
   9150000   41.497895      83.304328      465.78126    
   9160000   44.792255      71.198801      398.09537    
   9170000   49.457159      67.515928      377.50324    
   9180000   40.211684      81.592029      456.20725    
   9190000   33.974594      77.674327      434.30212    
   9200000   49.002736      66.365417      371.07037    
   9210000   47.807333      84.390477      471.85427    
   9220000   30.012108      72.109476      403.18725    
   9230000   39.988653      68.673472      383.97544    
   9240000   36.811039      82.501524      461.29253    
   9250000   18.641771      74.74754       417.93751    
   9260000   26.238299      82.899512      463.51781    
   9270000   26.188505      84.835924      474.34491    
   9280000   21.267199      76.474381      427.59283    
   9290000   22.708025      98.456707      550.50308    
   9300000   29.432301      81.020161      453.00975    
   9310000   21.329535      75.935445      424.57947    
   9320000   27.358786      76.308409      426.66483    
   9330000   29.139325      78.21054       437.30026    
   9340000   32.424653      77.263688      432.0061     
   9350000   13.931557      71.062013      397.33055    
   9360000   21.948219      71.97745       402.44905    
   9370000   18.693972      67.046276      374.87727    
   9380000   24.387244      77.800362      435.00682    
   9390000   19.848565      83.881597      469.00896    
   9400000   44.067834      84.821794      474.2659     
   9410000   23.623358      90.578095      506.45123    
   9420000   33.270584      82.388615      460.66122    
   9430000   44.107147      76.687489      428.78439    
   9440000   54.387881      68.894888      385.21345    
   9450000   55.825448      71.313492      398.73664    
   9460000   55.1919        79.920982      446.86389    
   9470000   46.417034      67.239783      375.95923    
   9480000   58.068989      78.524037      439.05312    
   9490000   57.045193      78.229642      437.40706    
   9500000   46.832819      85.403743      477.51977    
   9510000   45.372944      77.029615      430.69732    
   9520000   51.688347      76.650708      428.57873    
   9530000   53.780789      80.509505      450.15451    
   9540000   45.592428      95.937905      536.41965    
   9550000   51.422894      78.270388      437.63488    
   9560000   41.359847      73.563906      411.31943    
   9570000   50.369871      69.036085      386.00293    
   9580000   55.159958      84.208507      470.83682    
   9590000   44.550424      82.995736      464.05582    
   9600000   49.90135       83.965873      469.48018    
   9610000   55.894245      73.095771      408.70194    
   9620000   50.410699      74.139213      414.53616    
   9630000   42.278201      74.625532      417.25532    
   9640000   44.436857      81.963958      458.28682    
   9650000   40.804476      80.032408      447.48691    
   9660000   58.915802      82.006948      458.52719    
   9670000   48.069562      83.3419        465.99134    
   9680000   37.96273       80.81427       451.85855    
   9690000   47.53618       80.146948      448.12734    
   9700000   51.945684      68.056191      380.52403    
   9710000   40.137802      75.283464      420.93404    
   9720000   41.056908      85.155434      476.13139    
   9730000   48.738278      73.894217      413.16631    
   9740000   44.811361      79.474656      444.36834    
   9750000   46.425619      76.16692       425.87372    
   9760000   51.628101      69.664506      389.51663    
   9770000   53.545284      76.814844      429.49647    
   9780000   53.601298      82.459327      461.05659    
   9790000   40.301407      89.636652      501.18732    
   9800000   48.333767      78.091637      436.63543    
   9810000   46.410328      92.319139      516.18597    
   9820000   42.048514      81.760953      457.15176    
   9830000   59.737156      69.032254      385.98151    
   9840000   38.477976      81.000619      452.90049    
   9850000   54.059331      69.619652      389.26584    
   9860000   51.405141      69.974099      391.24767    
   9870000   49.532476      76.268012      426.43896    
   9880000   49.559868      69.616325      389.24724    
   9890000   59.864792      86.874916      485.74557    
   9900000   51.42267       83.942453      469.34923    
   9910000   60.716865      90.960028      508.58674    
   9920000   41.207139      81.28297       454.4792     
   9930000   41.434954      95.51026       534.02855    
   9940000   67.750827      75.58178       422.60201    
   9950000   47.732904      81.082898      453.36053    
   9960000   50.72972       84.621275      473.14473    
   9970000   60.284069      80.448211      449.81179    
   9980000   46.614147      80.655422      450.97038    
   9990000   54.784235      81.869815      457.76044    
  10000000   45.476185      69.345544      387.73322    
  10010000   62.256455      72.724669      406.62699    
  10020000   56.978062      82.941697      463.75368    
  10030000   48.849779      80.10359       447.88491    
  10040000   46.361724      82.505741      461.31611    
  10050000   61.478622      71.614528      400.41984    
  10060000   48.898825      70.308676      393.11839    
  10070000   46.337137      75.548824      422.41775    
  10080000   47.047081      79.539407      444.73038    
  10090000   43.382313      76.205493      426.0894     
  10100000   45.981172      70.069808      391.78281    
  10110000   67.572317      86.099119      481.40784    
  10120000   58.77081       87.671898      490.20175    
  10130000   45.521302      85.052205      475.5542     
  10140000   43.590717      86.717076      484.86303    
  10150000   47.408247      81.614182      456.33111    
  10160000   57.529836      79.726514      445.77655    
  10170000   49.259893      90.439622      505.67699    
  10180000   60.774284      91.094174      509.33679    
  10190000   50.795517      88.319702      493.82383    
  10200000   54.063271      89.28453       499.21849    
  10210000   51.247261      79.2607        443.17204    
  10220000   61.443489      66.568338      372.20496    
  10230000   60.328413      81.863164      457.72325    
  10240000   57.427511      76.809369      429.46586    
  10250000   60.47097       99.004888      553.56814    
  10260000   54.38168       95.756383      535.4047     
  10270000   47.658734      86.858363      485.65301    
  10280000   54.387976      82.725702      462.54598    
  10290000   54.745386      86.987376      486.37437    
  10300000   41.789975      82.061639      458.83299    
  10310000   32.265126      97.180774      543.36893    
  10320000   35.9297        85.871365      480.13439    
  10330000   51.609769      67.161366      375.52077    
  10340000   47.581933      78.626199      439.62434    
  10350000   60.594046      82.701608      462.41126    
  10360000   53.919382      84.847981      474.41232    
  10370000   49.487055      79.617449      445.16674    
  10380000   48.364506      93.54942       523.06486    
  10390000   48.74861       79.923317      446.87694    
  10400000   60.258853      83.704332      468.01781    
  10410000   60.863674      72.680383      406.37937    
  10420000   51.559699      76.259641      426.39216    
  10430000   59.549174      82.799333      462.95767    
  10440000   49.285097      87.307538      488.1645     
  10450000   56.490918      82.300052      460.16603    
  10460000   64.393425      93.815856      524.55459    
  10470000   55.558186      90.153845      504.07911    
  10480000   47.389302      100.66358      562.84241    
  10490000   51.763117      88.875944      496.93396    
  10500000   40.4278        98.90597       553.01506    
  10510000   50.403091      78.352752      438.09541    
  10520000   64.872649      91.669157      512.55171    
  10530000   52.048483      99.003764      553.56185    
  10540000   52.203993      95.83026       535.81777    
  10550000   47.193418      93.027629      520.14736    
  10560000   53.421103      91.013051      508.88321    
  10570000   51.296225      104.6046       584.8779     
  10580000   61.605739      82.316914      460.26031    
  10590000   44.119848      90.020256      503.33217    
  10600000   61.126561      89.586997      500.90968    
  10610000   51.609771      78.806766      440.63395    
  10620000   56.161058      62.144076      347.46749    
  10630000   38.552888      80.127603      448.01917    
  10640000   48.774816      86.808856      485.3762     
  10650000   53.826766      100.05491      559.43917    
  10660000   63.719941      73.21921       409.39213    
  10670000   63.74347       89.178913      498.62795    
  10680000   51.991778      73.574225      411.37713    
  10690000   53.414759      71.670613      400.73342    
  10700000   49.809232      61.703608      345.0047     
  10710000   50.04154       73.547024      411.22504    
  10720000   51.362038      80.227795      448.57938    
  10730000   50.979738      90.431042      505.62901    
  10740000   45.247292      83.631279      467.60935    
  10750000   62.583113      91.075619      509.23304    
  10760000   56.40063       85.478663      477.93866    
  10770000   43.969438      95.632892      534.71422    
  10780000   68.637275      86.773056      485.17603    
  10790000   67.935738      94.241528      526.93466    
  10800000   54.187668      87.733596      490.54672    
  10810000   45.727107      85.207202      476.42084    
  10820000   41.005255      94.447557      528.08663    
  10830000   45.36077       76.203889      426.08043    
  10840000   49.822956      80.868303      452.16067    
  10850000   62.332793      78.723926      440.17076    
  10860000   53.023307      79.835706      446.38708    
  10870000   51.172204      91.87411       513.69766    
  10880000   56.407014      92.787415      518.80425    
  10890000   50.168781      93.884176      524.93659    
  10900000   45.399771      80.97264       452.74404    
  10910000   47.062285      75.975428      424.80303    
  10920000   48.53469       92.710627      518.3749     
  10930000   61.186261      90.093561      503.74204    
  10940000   65.039109      88.564088      495.19027    
  10950000   44.836958      79.218956      442.93864    
  10960000   51.301668      67.879417      379.53563    
  10970000   48.06499       84.027143      469.82275    
  10980000   58.888066      94.53072       528.55163    
  10990000   55.72096       80.202842      448.43986    
  11000000   46.969265      73.866312      413.01028    
  11010000   54.795392      88.267752      493.53336    
  11020000   54.102915      88.283482      493.62131    
  11030000   60.287186      78.828457      440.75523    
  11040000   44.714653      87.35684       488.44016    
  11050000   53.027979      73.632143      411.70097    
  11060000   51.32795       82.575389      461.70553    
  11070000   41.568757      73.065805      408.53439    
  11080000   46.730571      71.619139      400.44562    
  11090000   49.583331      73.336142      410.04593    
  11100000   51.878577      84.354855      471.6551     
  11110000   45.589998      83.643638      467.67845    
  11120000   52.518885      88.031529      492.21256    
  11130000   71.001334      91.838577      513.49899    
  11140000   67.572357      97.396732      544.57642    
  11150000   50.530506      85.821997      479.85836    
  11160000   54.224912      85.539376      478.27813    
  11170000   57.333575      81.141383      453.68754    
  11180000   43.843401      99.477         556.20787    
  11190000   61.723473      78.892307      441.11223    
  11200000   45.836027      82.245185      459.85925    
  11210000   47.592589      83.508478      466.92273    
  11220000   59.522604      91.733501      512.91148    
  11230000   49.24743       102.26638      571.80417    
  11240000   79.799535      77.608972      433.9367     
  11250000   57.877994      93.802092      524.47763    
  11260000   44.193221      77.106039      431.12464    
  11270000   42.23373       92.988553      519.92887    
  11280000   63.459599      69.73703       389.92214    
  11290000   45.971043      79.946759      447.00801    
  11300000   51.464141      87.450383      488.96319    
  11310000   54.724498      83.952397      469.40482    
  11320000   40.537234      98.453365      550.4844     
  11330000   49.347537      77.977505      435.99728    
  11340000   39.974304      90.935424      508.44917    
  11350000   65.888933      79.98545       447.22435    
  11360000   50.556032      91.818882      513.38887    
  11370000   55.253299      75.973092      424.78997    
  11380000   49.409908      92.549796      517.47564    
  11390000   60.194778      79.536082      444.71179    
  11400000   68.425499      88.62215       495.51491    
  11410000   55.561641      82.585024      461.7594     
  11420000   48.38999       85.427975      477.65525    
  11430000   51.68676       115.09174      643.51489    
  11440000   65.916492      100.47479      561.78682    
  11450000   65.965309      79.82287       446.31531    
  11460000   62.376594      91.238248      510.14236    
  11470000   57.281827      101.73488      568.83243    
  11480000   69.076252      93.653874      523.6489     
  11490000   68.327365      94.581447      528.83526    
  11500000   59.700114      73.182892      409.18906    
  11510000   48.471251      88.750613      496.23319    
  11520000   52.937079      92.396197      516.61682    
  11530000   49.009304      90.294961      504.86814    
  11540000   62.035832      91.303145      510.50522    
  11550000   55.752907      80.477334      449.97463    
  11560000   43.896319      88.129309      492.75928    
  11570000   53.140132      102.22464      571.57083    
  11580000   59.613029      75.098341      419.89895    
  11590000   60.712134      74.164633      414.67829    
  11600000   53.804431      92.076204      514.82764    
  11610000   54.432612      79.726255      445.7751     
  11620000   57.648127      72.081289      403.02964    
  11630000   59.178951      88.478706      494.71287    
  11640000   62.75733       84.554224      472.76983    
  11650000   47.214664      110.95397      620.37929    
  11660000   66.845361      75.032814      419.53257    
  11670000   59.862241      77.993985      436.08943    
  11680000   61.029471      88.685971      495.87176    
  11690000   52.975425      83.917803      469.2114     
  11700000   57.074705      88.187804      493.08635    
  11710000   59.259029      69.174529      386.77701    
  11720000   50.300077      84.673909      473.43903    
  11730000   52.448027      87.991879      491.99086    
  11740000   60.545037      95.928734      536.36837    
  11750000   37.687101      88.177573      493.02914    
  11760000   45.273559      74.406039      416.02807    
  11770000   56.660284      77.142868      431.33056    
  11780000   63.15829       81.253807      454.31614    
  11790000   54.176083      92.964491      519.79433    
  11800000   56.323329      91.127474      509.52298    
  11810000   56.205691      93.936169      525.2273     
  11820000   66.525649      92.190318      515.46569    
  11830000   54.608529      81.356962      454.89291    
  11840000   54.346983      82.258151      459.93175    
  11850000   57.336772      85.596597      478.59807    
  11860000   51.823824      85.816567      479.828      
  11870000   69.224121      91.991097      514.35178    
  11880000   61.187998      98.304645      549.65285    
  11890000   61.70281       90.618626      506.67785    
  11900000   58.940181      100.47724      561.80052    
  11910000   64.116245      86.212891      482.04397    
  11920000   56.023038      101.94829      570.02565    
  11930000   73.219999      92.020772      514.5177     
  11940000   55.168218      91.16757       509.74717    
  11950000   62.466144      82.79002       462.9056     
  11960000   63.441764      82.44011       460.94914    
  11970000   57.101312      97.942362      547.62721    
  11980000   69.045657      108.74748      608.04211    
  11990000   54.544608      100.30008      560.80996    
  12000000   72.483996      99.718819      557.55995    
Loop time of 214.405 on 1 procs for 8000000 steps with 61 atoms

Performance: 32238.113 ns/day, 0.001 hours/ns, 37312.631 timesteps/s, 2.276 Matom-step/s
99.6% CPU use with 1 MPI tasks x 1 OpenMP threads

MPI task timing breakdown:
Section |  min time  |  avg time  |  max time  |%varavg| %total
---------------------------------------------------------------
Pair    | 172.26     | 172.26     | 172.26     |   0.0 | 80.34
Bond    | 23.201     | 23.201     | 23.201     |   0.0 | 10.82
Neigh   | 3.2966     | 3.2966     | 3.2966     |   0.0 |  1.54
Comm    | 3.3371     | 3.3371     | 3.3371     |   0.0 |  1.56
Output  | 0.13459    | 0.13459    | 0.13459    |   0.0 |  0.06
Modify  | 11.006     | 11.006     | 11.006     |   0.0 |  5.13
Other   |            | 1.168      |            |       |  0.54

Nlocal:             61 ave          61 max          61 min
Histogram: 1 0 0 0 0 0 0 0 0 0
Nghost:              0 ave           0 max           0 min
Histogram: 1 0 0 0 0 0 0 0 0 0
Neighs:            227 ave         227 max         227 min
Histogram: 1 0 0 0 0 0 0 0 0 0

Total # of neighbors = 227
Ave neighs/atom = 3.7213115
Ave special neighs/atom = 5.8032787
Neighbor list builds = 21635
Dangerous builds = 0

  # Hold at 500
  variable seedHH equal 45000+${c}
  variable seedHH equal 45000+1
  unfix fxl
  fix fxl all langevin ${T_high} ${T_high} 100000.0 ${seedHH}
  fix fxl all langevin 500 ${T_high} 100000.0 ${seedHH}
  fix fxl all langevin 500 500 100000.0 ${seedHH}
  fix fxl all langevin 500 500 100000.0 45001
  run ${n_holdH}
  run 8000000
Generated 0 of 6 mixed pair_coeff terms from geometric mixing rule
Per MPI rank memory allocation (min/avg/max) = 9.627 | 9.627 | 9.627 Mbytes
   Step         PotEng         KinEng          Temp     
  12000000   72.483996      99.718819      557.55995    
  12010000   64.465335      93.195861      521.088      
  12020000   55.180095      85.761507      479.52014    
  12030000   67.133313      101.41739      567.0572     
  12040000   62.180167      86.318561      482.63481    
  12050000   56.258656      93.180251      521.00072    
  12060000   64.155241      91.541174      511.83611    
  12070000   51.066407      100.80346      563.62453    
  12080000   57.489154      100.73728      563.25451    
  12090000   51.444956      91.185333      509.84649    
  12100000   30.601692      97.616334      545.80428    
  12110000   63.31019       90.935795      508.45124    
  12120000   58.859188      98.520997      550.86255    
  12130000   57.498695      100.91186      564.23064    
  12140000   49.992722      89.252695      499.04049    
  12150000   53.08393       95.777866      535.52482    
  12160000   64.38835       84.376366      471.77537    
  12170000   77.121688      89.595502      500.95724    
  12180000   76.994105      101.58872      568.01518    
  12190000   63.858104      79.644299      445.31686    
  12200000   49.059388      86.287675      482.46211    
  12210000   55.105082      92.199947      515.51952    
  12220000   61.514016      88.78654       496.43407    
  12230000   68.650808      91.265779      510.29629    
  12240000   73.68516       82.12822       459.20527    
  12250000   54.268162      81.962093      458.27639    
  12260000   44.837993      97.766199      546.64223    
  12270000   44.791314      103.7691       580.20638    
  12280000   50.412341      90.404538      505.48082    
  12290000   52.798639      87.861591      491.26238    
  12300000   53.229866      100.00222      559.14455    
  12310000   65.574991      89.789973      502.04459    
  12320000   57.796602      89.539573      500.64452    
  12330000   58.648142      106.21559      593.8855     
  12340000   63.753391      87.466219      489.05173    
  12350000   59.955713      103.61151      579.32525    
  12360000   56.509957      95.323611      532.98494    
  12370000   58.528137      95.681375      534.98531    
  12380000   62.032225      100.55223      562.21985    
  12390000   67.581804      90.625253      506.7149     
  12400000   50.323939      82.517902      461.3841     
  12410000   74.153683      88.464053      494.63094    
  12420000   74.126642      95.070582      531.57017    
  12430000   63.356219      85.009035      475.31283    
  12440000   62.009401      104.324        583.30899    
  12450000   55.04367       93.051428      520.28043    
  12460000   63.925584      82.148549      459.31893    
  12470000   50.121101      88.379466      494.15799    
  12480000   46.354037      99.733608      557.64264    
  12490000   59.412582      108.53482      606.85303    
  12500000   62.752629      80.269936      448.815      
  12510000   61.704009      85.616984      478.71207    
  12520000   48.715583      95.43196       533.59075    
  12530000   47.168326      83.859901      468.88765    
  12540000   51.281383      89.875568      502.52318    
  12550000   55.278735      103.37406      577.99758    
  12560000   54.648734      96.790139      541.18476    
  12570000   69.978527      68.506518      383.04195    
  12580000   66.30039       71.310167      398.71806    
  12590000   51.082588      85.769142      479.56283    
  12600000   58.210721      93.46584       522.59754    
  12610000   47.361158      93.194565      521.08075    
[...]
 404760000  -29.152351      60.813262      340.02649    
 404770000  -10.760563      45.452356      254.13873    
 404780000  -31.156324      56.956839      318.46398    
 404790000  -35.784655      53.858135      301.13814    
 404800000  -36.446434      54.515264      304.81236    
 404810000  -36.904362      56.92483       318.28501    
 404820000  -17.413319      46.801691      261.68329    
 404830000  -27.073479      50.585052      282.83728    
 404840000  -32.476127      51.910379      290.24761    
 404850000  -18.024358      49.575834      277.19442    
 404860000  -31.607947      61.746345      345.24365    
 404870000  -17.745454      48.744641      272.54695    
 404880000  -19.899745      54.410786      304.22818    
 404890000  -10.64404       48.609375      271.79063    
 404900000  -27.146856      55.235968      308.84204    
 404910000  -23.403748      56.564331      316.26935    
 404920000  -26.750471      56.30274       314.80671    
 404930000  -41.283771      53.823798      300.94615    
 404940000  -34.892716      61.217812      342.28846    
 404950000  -19.350791      50.324307      281.37937    
 404960000  -34.59254       62.704146      350.59903    
 404970000  -25.350304      43.393479      242.62688    
 404980000  -25.613386      51.022466      285.283      
 404990000  -24.29786       49.185488      275.01186    
 405000000  -15.904096      42.482302      237.5322     
 405010000  -21.269485      47.671378      266.54599    
 405020000  -25.123478      55.773232      311.84606    
 405030000  -35.934818      65.617473      366.88837    
 405040000  -32.123895      60.53181       338.4528     
 405050000  -32.97511       42.457899      237.39575    
 405060000  -17.18532       49.611679      277.39483    
 405070000  -32.055924      52.809765      295.27636    
 405080000  -28.098605      51.913056      290.26258    
 405090000  -18.391915      55.607181      310.91762    
 405100000  -26.103031      48.52285       271.30684    
 405110000  -26.097646      51.388033      287.327      
 405120000  -31.213242      52.288265      292.36049    
 405130000  -24.540486      56.120861      313.78977    
 405140000  -39.43928       57.746138      322.87721    
 405150000  -36.218483      51.593318      288.47482    
 405160000  -31.737986      58.633725      327.83999    
 405170000  -26.304979      49.400182      276.21229    
 405180000  -23.349831      50.510429      282.42003    
 405190000  -14.666944      55.695748      311.41282    
 405200000  -28.68476       58.060889      324.63708    
 405210000  -26.772648      49.586965      277.25665    
 405220000  -21.338703      47.80731       267.30603    
 405230000  -26.923093      52.268645      292.25079    
 405240000  -17.430311      53.69071       300.20201    
 405250000  -27.958968      48.101441      268.95061    
 405260000  -36.119844      50.474708      282.22031    
 405270000  -27.60205       64.526404      360.78786    
 405280000  -17.791375      55.699321      311.4328     
 405290000  -13.495546      57.03561       318.90442    
 405300000  -18.881541      52.511142      293.60667    
 405310000  -31.851946      52.298079      292.41536    
 405320000  -39.292166      47.88618       267.74702    
 405330000  -30.67235       59.170658      330.84216    
 405340000  -32.084935      49.143795      274.77875    
 405350000  -40.618011      52.264702      292.22874    
 405360000  -51.591901      55.348071      309.46885    
 405370000  -26.615605      50.728608      283.63994    
 405380000  -29.73365       54.909478      307.01654    
 405390000  -29.471349      56.107785      313.71665    
 405400000  -24.745975      49.661387      277.67277    
 405410000  -21.713715      51.862168      289.97805    
 405420000  -27.003013      65.976586      368.89629    
 405430000  -22.581692      59.943408      335.16285    
 405440000  -22.271303      61.841742      345.77705    
 405450000  -34.559006      54.999629      307.5206     
 405460000  -14.959397      45.44689       254.10816    
 405470000  -28.999155      61.536232      344.06884    
 405480000  -15.577646      47.386417      264.95268    
 405490000  -22.627031      56.153411      313.97176    
 405500000  -31.767867      55.937671      312.76549    
 405510000  -23.193065      60.982321      340.97175    
 405520000  -22.678334      60.507137      338.31485    
 405530000  -23.07135       52.099735      291.30636    
 405540000  -18.277311      53.959758      301.70635    
 405550000  -41.610293      58.232164      325.59474    
 405560000  -26.767047      50.457986      282.12681    
 405570000  -24.532198      54.012065      301.99881    
 405580000  -37.775084      58.909186      329.38018    
 405590000  -29.865007      52.78817       295.15562    
 405600000  -28.284558      54.654058      305.5884     
 405610000  -39.712198      54.878561      306.84367    
 405620000  -21.545283      46.226507      258.46725    
 405630000  -10.244299      48.557168      271.49873    
 405640000  -20.059263      55.223848      308.77428    
 405650000  -20.36603       60.367818      337.53586    
 405660000  -7.1088819      48.619375      271.84654    
 405670000  -22.262712      47.624931      266.28629    
 405680000  -28.852442      64.168266      358.78539    
 405690000  -14.559759      54.278943      303.49101    
 405700000  -18.915378      58.386462      326.45747    
 405710000  -13.796178      59.993886      335.44509    
 405720000  -40.473703      57.04874       318.97784    
 405730000  -16.306495      48.387182      270.54828    
 405740000  -28.158347      59.821792      334.48286    
 405750000  -28.199672      59.508683      332.73217    
 405760000  -36.410996      54.520249      304.84023    
 405770000  -42.726729      62.399458      348.89542    
 405780000  -26.676793      53.006016      296.37367    
 405790000  -21.261242      59.990111      335.42398    
 405800000  -10.190403      49.844713      278.6978     
 405810000  -8.8169215      48.599408      271.73491    
 405820000  -19.585881      49.25734       275.41361    
 405830000  -25.1186        46.846301      261.93272    
 405840000  -17.043397      47.420032      265.14063    
 405850000  -24.688584      55.402885      309.77533    
 405860000  -38.03104       54.808384      306.45128    
 405870000  -27.062931      43.62535       243.92335    
 405880000  -33.205278      58.089749      324.79845    
 405890000  -23.712627      47.485553      265.50698    
 405900000  -18.485062      53.614437      299.77554    
 405910000  -30.224933      61.314181      342.82729    
 405920000  -27.092412      59.830894      334.53375    
 405930000  -35.941192      45.035658      251.80883    
 405940000  -34.978071      52.89388       295.74668    
 405950000  -21.226023      56.60064       316.47236    
 405960000  -16.313128      50.484851      282.27702    
 405970000  -25.293184      64.736585      361.96304    
 405980000  -14.343197      49.360371      275.98969    
 405990000  -22.50865       54.732125      306.02489    
 406000000  -19.049532      51.114424      285.79717    
 406010000  -16.939627      51.921403      290.30925    
 406020000  -8.5607072      51.334244      287.02625    
 406030000  -12.079264      55.559599      310.65157    
 406040000  -19.314275      51.778532      289.51041    
 406050000  -26.637731      53.489281      299.07576    
 406060000  -28.40007       51.36674       287.20795    
 406070000  -19.3685        55.813037      312.06862    
 406080000  -22.885224      54.856176      306.71851    
 406090000  -4.5463557      56.283118      314.69699    
 406100000  -14.287632      64.734139      361.94937    
 406110000  -12.915798      69.548611      388.86863    
 406120000  -21.258523      58.304624      325.99989    
 406130000  -20.968856      55.554779      310.62462    
 406140000  -16.770327      61.933158      346.28819    
 406150000  -5.2229482      55.955391      312.86457    
 406160000  -4.9387867      58.630211      327.82035    
 406170000  -17.501029      61.724092      345.11923    
 406180000  -26.984544      52.026556      290.89719    
 406190000  -25.642266      51.023794      285.29043    
 406200000  -13.438459      56.576022      316.33471    
 406210000  -1.8449609      50.698259      283.47025    
 406220000  -19.168639      57.261493      320.16741    
 406230000  -15.097382      57.451923      321.23216    
 406240000  -24.434857      46.539812      260.21904    
 406250000  -13.08189       49.56843       277.15302    
 406260000  -13.636018      65.083667      363.90369    
 406270000  -21.236217      55.465407      310.12491    
 406280000  -25.770398      59.871254      334.75942    
 406290000  -23.127593      61.103063      341.64686    
 406300000  -17.707663      59.245547      331.26089    
 406310000  -21.855141      49.647797      277.59679    
 406320000  -32.082376      52.010145      290.80543    
 406330000  -20.700156      59.328867      331.72676    
 406340000  -22.130648      60.03265       335.66183    
 406350000  -27.421465      52.132243      291.48812    
 406360000  -17.300376      58.821531      328.89008    
 406370000  -19.203896      54.365727      303.97625    
 406380000  -25.354658      61.818348      345.64625    
 406390000  -21.437131      50.457151      282.12214    
 406400000  -24.796191      51.275451      286.69752    
 406410000  -27.401256      51.976725      290.61857    
 406420000  -28.742672      59.947118      335.18359    
 406430000  -31.695007      57.362327      320.7312     
 406440000  -30.086005      50.159214      280.45628    
 406450000  -20.239711      52.040685      290.97619    
 406460000  -31.84781       64.351334      359.80898    
 406470000  -28.316853      52.883052      295.68613    
 406480000  -32.298922      60.35086       337.44105    
 406490000  -32.524493      58.588307      327.58605    
 406500000  -28.968768      54.799224      306.40007    
 406510000  -27.489673      50.202712      280.69949    
 406520000  -19.611361      54.864203      306.76339    
 406530000  -29.904671      45.81681       256.1765     
 406540000  -28.663557      49.78423       278.35963    
 406550000  -34.542748      49.450627      276.49434    
 406560000  -26.196717      57.693709      322.58406    
 406570000  -17.087561      55.251761      308.93035    
 406580000  -5.3591419      52.411154      293.0476     
 406590000  -18.309547      55.494558      310.2879     
 406600000  -21.90101       55.963006      312.90715    
 406610000  -27.310826      60.640834      339.06239    
 406620000  -22.402323      45.247828      252.99514    
 406630000  -31.056974      57.390042      320.88616    
 406640000  -21.113655      58.89324       329.29102    
 406650000  -15.717059      67.880866      379.54373    
 406660000  -10.064657      55.216561      308.73353    
 406670000  -10.678218      51.596888      288.49478    
 406680000  -20.18415       56.068294      313.49585    
 406690000  -27.048576      57.827659      323.33302    
 406700000  -25.936238      50.18529       280.60208    
 406710000  -28.273665      53.936083      301.57397    
 406720000  -27.261222      57.870354      323.57174    
 406730000  -17.404633      60.10706       336.07788    
 406740000  -11.84987       54.584225      305.19794    
 406750000  -18.521746      56.20252       314.24635    
 406760000  -24.921876      62.370953      348.73603    
 406770000  -9.8926257      56.328997      314.95352    
 406780000  -8.5248915      63.442797      354.72906    
 406790000  -4.8325585      55.577692      310.75273    
 406800000  -18.798647      52.960165      296.1173     
 406810000  -31.80764       63.243254      353.61335    
 406820000  -24.428647      49.650995      277.61466    
 406830000  -34.887554      56.450348      315.63203    
 406840000  -18.474283      55.796298      311.97503    
 406850000  -4.2150419      50.316076      281.33335    
 406860000  -14.210276      57.39476       320.91254    
 406870000  -12.637146      70.484408      394.10097    
 406880000  -10.524924      51.395773      287.37028    
 406890000  -9.7229257      60.989811      341.01363    
 406900000  -17.990238      57.69916       322.61454    
 406910000  -22.178553      52.947617      296.04714    
 406920000  -16.741623      55.063113      307.87555    
 406930000  -24.341812      59.811176      334.4235     
 406940000  -5.1607031      53.338404      298.23216    
 406950000  -12.83359       62.094898      347.19253    
 406960000  -19.956506      58.829653      328.93549    
 406970000  -29.437561      49.046618      274.2354     
 406980000  -30.385861      51.803812      289.65176    
 406990000  -38.00502       56.776707      317.45681    
 407000000  -34.517362      49.230851      275.2655     
 407010000  -36.994596      51.050663      285.44066    
 407020000  -34.174718      48.204831      269.5287     
 407030000  -36.535919      56.723915      317.16163    
 407040000  -15.550004      49.891857      278.9614     
 407050000  -27.787394      57.517983      321.60152    
 407060000  -35.04019       58.417089      326.62871    
 407070000  -24.368059      46.636953      260.76219    
 407080000  -23.175667      46.913846      262.31038    
 407090000  -27.522849      44.37639       248.12265    
 407100000  -29.110044      52.274426      292.28311    
 407110000  -20.916815      60.058735      335.80769    
 407120000  -25.769488      62.908408      351.74112    
 407130000  -16.173425      55.292316      309.1571     
 407140000  -29.176854      52.394992      292.95723    
 407150000  -42.753072      54.560878      305.0674     
 407160000  -32.148742      57.346246      320.64128    
 407170000  -22.217201      62.056883      346.97997    
 407180000  -14.088231      60.513487      338.35035    
 407190000  -17.923673      48.194702      269.47206    
 407200000  -23.987982      47.30628       264.50461    
 407210000  -41.816446      56.556231      316.22406    
 407220000  -29.116858      49.036349      274.17798    
 407230000  -29.621625      54.178152      302.92745    
 407240000  -38.671138      50.655626      283.23188    
 407250000  -25.982486      55.230201      308.8098     
 407260000  -19.697943      62.857655      351.45734    
 407270000  -30.985876      65.289138      365.05255    
 407280000  -18.344538      50.355272      281.5525     
 407290000  -17.875751      57.331222      320.55728    
 407300000  -37.974044      48.554164      271.48193    
 407310000  -17.587909      52.272181      292.27056    
 407320000  -15.790057      48.302997      270.07757    
 407330000  -27.220759      57.757466      322.94055    
 407340000  -20.186337      51.734519      289.26432    
 407350000  -19.850265      47.075414      263.21377    
 407360000  -14.366134      52.476454      293.41271    
 407370000  -19.459329      51.801612      289.63945    
 407380000  -21.197988      55.454568      310.06431    
 407390000  -17.26633       62.966174      352.06411    
 407400000  -16.989394      73.022309      408.29119    
 407410000  -27.643762      63.03076       352.42523    
 407420000  -18.28695       58.661421      327.99485    
 407430000  -24.373016      53.418091      298.67771    
 407440000  -30.061316      46.090432      257.70642    
 407450000  -24.710608      54.304446      303.6336     
 407460000  -36.218534      51.452884      287.68961    
 407470000  -34.374057      51.147042      285.97954    
 407480000  -29.98424       47.929566      267.9896     
 407490000  -34.938779      55.082608      307.98456    
 407500000  -29.884203      55.00888       307.57232    
 407510000  -25.325796      44.955843      251.36256    
 407520000  -27.471428      60.423728      337.84848    
 407530000  -23.882232      56.791602      317.54009    
 407540000  -17.21961       44.249044      247.41062    
 407550000  -9.1825572      49.657521      277.65115    
 407560000  -17.018662      59.108262      330.49328    
 407570000  -23.671219      64.776744      362.18759    
 407580000  -15.665483      53.833472      301.00024    
 407590000  -21.351332      50.881698      284.49592    
 407600000  -16.477984      52.136897      291.51414    
 407610000  -19.053168      55.487745      310.24981    
 407620000  -18.675614      55.890264      312.50042    
 407630000  -15.907128      54.939108      307.18221    
 407640000  -22.347117      51.676758      288.94135    
 407650000  -28.964394      52.455091      293.29327    
 407660000  -23.128197      54.049447      302.20782    
 407670000  -24.677149      57.321266      320.50162    
 407680000  -23.348241      48.436157      270.82211    
 407690000  -25.758667      55.517563      310.41653    
 407700000  -35.500897      54.759027      306.17531    
 407710000  -34.20071       50.507373      282.40295    
 407720000  -30.503643      46.988436      262.72744    
 407730000  -35.811488      43.824825      245.03868    
 407740000  -42.625995      52.670537      294.4979     
 407750000  -31.651281      45.062304      251.95782    
 407760000  -28.193857      46.273248      258.7286     
 407770000  -23.907715      52.436163      293.18743    
 407780000  -12.674137      44.956804      251.36793    
 407790000  -29.788265      55.845516      312.25022    
 407800000  -15.541326      49.290197      275.59733    
 407810000  -12.112542      41.913518      234.35194    
 407820000  -26.332942      57.068513      319.08839    
 407830000  -21.394317      58.752543      328.50435    
 407840000  -19.116542      52.896672      295.76229    
 407850000  -5.7588455      55.048269      307.79256    
 407860000  -10.34386       55.660781      311.21731    
 407870000  -26.151605      68.933833      385.43121    
 407880000  -32.582511      60.177203      336.47007    
 407890000  -20.8045        60.428321      337.87416    
 407900000  -22.33619       62.647466      350.28211    
 407910000  -23.262417      59.168398      330.82952    
 407920000  -20.627417      52.59637       294.0832     
 407930000  -24.395076      54.014703      302.01356    
 407940000  -19.624087      55.64515       311.12991    
 407950000  -10.905217      50.639727      283.14299    
 407960000  -13.325099      56.581437      316.36499    
 407970000  -4.003401       53.493649      299.10018    
 407980000  -17.604891      60.585858      338.755      
 407990000  -2.2856327      52.323674      292.55847    
 408000000  -9.005888       53.54253       299.37349    
Loop time of 169.903 on 1 procs for 4000000 steps with 61 atoms

Performance: 20341.077 ns/day, 0.001 hours/ns, 23542.913 timesteps/s, 1.436 Matom-step/s
99.6% CPU use with 1 MPI tasks x 1 OpenMP threads

MPI task timing breakdown:
Section |  min time  |  avg time  |  max time  |%varavg| %total
---------------------------------------------------------------
Pair    | 148.87     | 148.87     | 148.87     |   0.0 | 87.62
Bond    | 11.529     | 11.529     | 11.529     |   0.0 |  6.79
Neigh   | 1.5634     | 1.5634     | 1.5634     |   0.0 |  0.92
Comm    | 1.7483     | 1.7483     | 1.7483     |   0.0 |  1.03
Output  | 0.084416   | 0.084416   | 0.084416   |   0.0 |  0.05
Modify  | 5.4793     | 5.4793     | 5.4793     |   0.0 |  3.22
Other   |            | 0.6244     |            |       |  0.37

Nlocal:             61 ave          61 max          61 min
Histogram: 1 0 0 0 0 0 0 0 0 0
Nghost:              0 ave           0 max           0 min
Histogram: 1 0 0 0 0 0 0 0 0 0
Neighs:            379 ave         379 max         379 min
Histogram: 1 0 0 0 0 0 0 0 0 0

Total # of neighbors = 379
Ave neighs/atom = 6.2131148
Ave special neighs/atom = 5.8032787
Neighbor list builds = 7991
Dangerous builds = 0

write_data outputs/${tag}_final.data
write_data outputs/config_8_4U7U_L.dat_final.data
System init for write_data ...
Generated 0 of 6 mixed pair_coeff terms from geometric mixing rule
Total wall time: 3:20:48
