LAMMPS (29 Aug 2024)
  using 1 OpenMP thread(s) per MPI task
Reading data file ...
  orthogonal box = (-500.6 -500.6 -500.6) to (500.6 500.6 500.6)
  1 by 1 by 1 MPI processor grid
  reading atoms ...
  26 atoms
  scanning bonds ...
  1 = max bonds/atom
  scanning angles ...
  1 = max angles/atom
  orthogonal box = (-500.6 -500.6 -500.6) to (500.6 500.6 500.6)
  1 by 1 by 1 MPI processor grid
  reading bonds ...
  25 bonds
  reading angles ...
  24 angles
Finding 1-2 1-3 1-4 neighbors ...
  special bond factors lj:    0        0        0       
  special bond factors coul:  0        0        0       
     2 = max # of 1-2 neighbors
     2 = max # of 1-3 neighbors
     4 = max # of 1-4 neighbors
     6 = max # of special neighbors
  special bonds CPU = 0.000 seconds
  read_data CPU = 0.028 seconds
Finding 1-2 1-3 1-4 neighbors ...
  special bond factors lj:    0        0        1       
  special bond factors coul:  0        0        0       
     2 = max # of 1-2 neighbors
     2 = max # of 1-3 neighbors
     4 = max # of 1-4 neighbors
     6 = max # of special neighbors
  special bonds CPU = 0.000 seconds
New timer settings: style=normal  mode=nosync  timeout=00:15:00

CITE-CITE-CITE-CITE-CITE-CITE-CITE-CITE-CITE-CITE-CITE-CITE-CITE

Your simulation uses code contributions which should be cited:
- Type Label Framework: https://doi.org/10.1021/acs.jpcb.3c08419
The log file lists these citations in BibTeX format.

CITE-CITE-CITE-CITE-CITE-CITE-CITE-CITE-CITE-CITE-CITE-CITE-CITE

Generated 0 of 6 mixed pair_coeff terms from geometric mixing rule
Neighbor list info ...
  update: every = 10 steps, delay = 0 steps, check = yes
  max neighbors/atom: 2000, page size: 100000
  master list distance cutoff = 33
  ghost atom cutoff = 33
  binsize = 16.5, bins = 61 61 61
  2 neighbor lists, perpetual/occasional/extra = 2 0 0
  (1) pair lj/cut, perpetual, trim from (2)
      attributes: half, newton on, cut 25
      pair build: trim
      stencil: none
      bin: none
  (2) pair base/rna, perpetual
      attributes: half, newton on
      pair build: half/bin/newton
      stencil: half/bin/3d
      bin: standard
Setting up Verlet run ...
  Unit style    : real
  Current step  : 0
  Time step     : 10
  Walltime left : 0:14:59.99
Per MPI rank memory allocation (min/avg/max) = 8.383 | 8.383 | 8.383 Mbytes
   Step         PotEng         KinEng          Temp     
         0   32.898681      21.834434      293          
      1000   14.073282      35.90231       481.77923    
      2000   16.57594       36.164345      485.29554    
      3000   18.823698      34.247029      459.56673    
      4000   21.104365      33.248066      446.16148    
      5000   17.087419      34.766362      466.53575    
      6000   26.708363      28.073194      376.71899    
      7000   25.231147      30.196692      405.21458    
      8000   24.201933      31.998873      429.39835    
      9000   18.434042      39.041818      523.90884    
     10000   22.101347      29.993297      402.48519    
     11000   19.25631       26.704062      358.34637    
     12000   24.240338      19.84085       266.24776    
     13000   15.872211      25.497577      342.15634    
     14000   18.697303      21.541702      289.07178    
     15000   16.762553      22.294367      299.17192    
     16000   19.838666      17.580603      235.91712    
     17000   12.885132      24.941041      334.68809    
     18000   15.699131      24.57193       329.73494    
     19000   18.302099      20.494643      275.02112    
     20000   18.83075       20.855892      279.86878    
     21000   11.799656      23.574452      316.3496     
     22000   9.4248843      24.357935      326.86329    
     23000   13.439013      19.079112      256.02586    
     24000   10.854221      22.394767      300.5192     
     25000   12.335539      20.021877      268.67699    
     26000   10.983607      22.80089       305.96904    
     27000   14.326223      17.811272      239.0125     
     28000   13.215055      20.267265      271.9699     
     29000   10.296914      26.269351      352.51291    
     30000   13.067551      22.191039      297.78534    
     31000   15.002047      18.173341      243.87118    
     32000   12.521899      21.341196      286.38115    
     33000   11.946349      19.00466       255.02678    
     34000   7.5248522      23.411069      314.15714    
     35000   14.27848       17.215026      231.01137    
     36000   18.122712      16.726923      224.46145    
     37000   14.277562      20.431415      274.17265    
     38000   18.529211      17.693735      237.43526    
     39000   17.47131       19.569676      262.60883    
     40000   13.724722      24.338394      326.60107    
     41000   16.841201      19.986756      268.2057     
     42000   14.317181      21.890117      293.74722    
     43000   11.871499      24.865636      333.67622    
     44000   12.609663      26.030971      349.31406    
     45000   11.236426      25.496139      342.13705    
     46000   9.6864558      25.446397      341.46955    
     47000   14.105322      20.839163      279.64429    
     48000   13.352578      22.018265      295.46687    
     49000   14.44023       21.068021      282.71538    
     50000   17.977655      19.787358      265.52994    
     51000   14.693303      22.372327      300.21809    
     52000   16.412674      24.529393      329.16412    
     53000   15.966898      25.278098      339.21113    
     54000   12.935863      27.937882      374.90322    
     55000   16.991882      32.016994      429.64152    
     56000   18.550683      28.635024      384.25828    
     57000   13.164469      30.545286      409.89242    
     58000   14.564586      23.953159      321.43153    
     59000   14.569672      22.135693      297.04265    
     60000   8.859293       25.722455      345.17403    
     61000   14.959972      21.619129      290.11079    
     62000   15.15908       18.462097      247.74604    
     63000   10.247489      19.568983      262.59952    
     64000   10.797797      18.68725       250.7674     
     65000   12.557823      19.165381      257.18353    
     66000   13.453331      18.813277      252.45859    
     67000   13.86239       20.806753      279.20938    
     68000   14.376775      20.633584      276.88559    
     69000   16.056757      18.404071      246.96738    
     70000   8.6062478      29.842571      400.46256    
     71000   15.382457      21.978625      294.93493    
     72000   14.921834      22.757552      305.38748    
     73000   14.044149      23.583634      316.47282    
     74000   12.531573      26.467052      355.1659     
     75000   12.449361      26.042908      349.47424    
     76000   15.098404      22.545123      302.53686    
     77000   15.790169      20.62328       276.74733    
     78000   19.711425      17.082903      229.23839    
     79000   9.2882368      29.371086      394.13562    
     80000   12.27742       26.183418      351.35977    
     81000   12.10659       27.425633      368.02926    
     82000   12.562954      28.154432      377.80913    
     83000   13.214957      25.814641      346.41108    
     84000   15.726161      20.029923      268.78496    
     85000   10.973562      22.633886      303.72798    
     86000   14.117501      19.089772      256.16891    
     87000   13.349085      18.561118      249.07482    
     88000   13.672607      18.735083      251.40929    
     89000   12.527327      22.571484      302.8906     
     90000   14.993492      21.598051      289.82793    
     91000   14.436086      16.474091      221.06864    
     92000   11.933364      18.429662      247.31079    
     93000   9.189007       18.87224       253.24981    
     94000   12.983285      15.986778      214.52931    
     95000   11.463484      18.048092      242.19044    
     96000   14.405954      16.785224      225.2438     
     97000   13.065467      20.374221      273.40516    
     98000   15.952401      18.448621      247.56521    
     99000   15.338671      21.79069       292.413      
    100000   12.469563      26.499815      355.60555    
    101000   14.764565      24.440373      327.96955    
    102000   18.541656      20.074504      269.38321    
    103000   13.960239      22.465604      301.46978    
    104000   13.304626      20.194203      270.98947    
    105000   13.336928      19.844094      266.2913     
    106000   12.273871      23.07293       309.6196     
    107000   9.9419092      24.01373       322.24435    
    108000   10.261252      23.76735       318.93814    
    109000   15.659415      18.38843       246.75748    
    110000   13.060599      19.853514      266.4177     
    111000   14.791711      18.859785      253.08268    
    112000   10.086939      22.7325        305.0513     
    113000   10.19017       21.402039      287.19763    
    114000   9.1475017      26.854015      360.35862    
    115000   12.467089      23.904705      320.78133    
    116000   14.775814      16.740897      224.64896    
    117000   12.563079      21.015757      282.01404    
    118000   6.9633874      25.931323      347.97686    
    119000   12.639043      22.033619      295.67291    
    120000   12.556243      23.202649      311.36031    
    121000   13.816952      23.464959      314.8803     
    122000   15.549841      23.992234      321.95589    
    123000   14.254877      26.354279      353.65258    
    124000   15.651051      23.324355      312.99351    
    125000   15.308331      26.557799      356.38365    
    126000   10.169378      33.184129      445.3035     
    127000   14.613434      27.839327      373.58069    
    128000   18.374027      21.941333      294.43451    
    129000   18.230154      22.260088      298.71193    
    130000   14.831764      27.693232      371.62021    
    131000   14.623725      25.235835      338.64398    
    132000   7.7783148      34.975642      469.34413    
    133000   15.434264      20.483996      274.87825    
    134000   19.04604       20.98566       281.61017    
    135000   15.296871      25.727984      345.24822    
    136000   11.526553      27.056346      363.07373    
    137000   12.567102      25.14325       337.40157    
    138000   11.925909      25.034908      335.94772    
    139000   16.851583      20.561891      275.92354    
    140000   14.893014      25.624727      343.8626     
    141000   13.196365      21.649727      290.5214     
    142000   12.064041      22.61322       303.45067    
    143000   15.021837      21.258549      285.27211    
    144000   11.660299      22.772203      305.58409    
    145000   16.88242       18.894887      253.55372    
    146000   11.280597      24.531843      329.197      
    147000   11.766961      23.347926      313.30981    
    148000   13.132511      20.253522      271.78547    
    149000   12.853491      20.917588      280.69669    
    150000   15.533459      19.932813      267.48183    
    151000   14.919207      18.818079      252.52303    
    152000   10.719406      19.962083      267.87461    
    153000   14.023574      20.187285      270.89663    
    154000   10.139107      22.511408      302.08444    
    155000   13.390854      21.465336      288.04702    
    156000   11.637384      23.618067      316.93488    
    157000   12.460562      19.575928      262.69272    
    158000   13.924615      17.158079      230.24719    
    159000   11.928447      21.91783       294.11911    
    160000   8.1339966      24.371903      327.05074    
    161000   11.16641       18.11161       243.0428     
    162000   12.802769      18.618026      249.83848    
    163000   10.072194      19.069459      255.89634    
    164000   8.8057528      19.61851       263.26414    
    165000   8.6156168      21.887899      293.71746    
    166000   13.709601      15.681968      210.43902    
    167000   10.233415      20.569156      276.02103    
    168000   9.2682397      23.17028       310.92595    
    169000   12.357782      17.752079      238.21819    
    170000   12.525906      16.436349      220.56217    
    171000   11.527059      16.867387      226.34636    
    172000   10.606774      16.543901      222.00544    
    173000   14.005267      14.611603      196.0756     
    174000   14.114072      17.469523      234.42651    
    175000   10.525582      23.557577      316.12316    
    176000   13.546123      22.656159      304.02688    
    177000   19.466981      16.058959      215.49792    
    178000   11.017348      22.829526      306.35331    
    179000   9.1432933      24.215809      324.95609    
    180000   10.387874      19.761503      265.18299    
    181000   10.964486      25.426207      341.19862    
    182000   6.1523949      27.229089      365.39181    
    183000   8.1529238      23.701966      318.06073    
    184000   6.4109599      22.646329      303.89497    
    185000   6.9788955      20.659907      277.23883    
    186000   5.796967       25.629033      343.92038    
    187000   8.0457257      23.156879      310.74613    
    188000   8.175976       23.210725      311.46869    
    189000   2.5720262      26.764184      359.15316    
    190000   4.9099973      24.523146      329.08029    
    191000   4.9759323      23.574634      316.35205    
    192000   7.7804543      20.648479      277.08547    
    193000   7.866318       23.867335      320.27985    
    194000   4.3365319      33.257667      446.29032    
    195000   9.7199086      26.338441      353.44005    
    196000   10.465188      22.236259      298.39216    
    197000   8.7803161      23.001666      308.66328    
    198000   4.2552734      27.635302      370.84285    
    199000   10.928644      24.508553      328.88447    
    200000   13.867454      20.145433      270.33501    
    201000   9.0864104      23.429902      314.40986    
    202000   14.602661      17.022174      228.42347    
    203000   5.0911045      26.853746      360.35501    
    204000   8.0779965      25.2975        339.47149    
    205000   7.4153039      24.029221      322.45223    
    206000   5.0948268      25.326283      339.85773    
    207000   7.5033237      22.19242       297.80387    
    208000   7.0644197      22.371492      300.20688    
    209000   1.1557934      27.934608      374.85929    
    210000   5.9414528      22.255692      298.65293    
    211000   3.9727038      22.479572      301.65722    
    212000   1.9291335      21.887393      293.71068    
    213000   4.2690874      23.376218      313.68947    
    214000   13.960721      19.225342      257.98815    
    215000   12.976525      22.83106       306.37389    
    216000   8.1415109      25.180158      337.89685    
    217000   12.794546      20.749189      278.43692    
    218000   11.995301      25.254464      338.89398    
    219000   9.7389286      27.559506      369.82573    
    220000   11.595265      23.093413      309.89446    
    221000   13.798238      22.490315      301.80138    
    222000   9.749679       24.628615      330.4956     
    223000   7.3605648      27.014164      362.50768    
    224000   7.9483046      23.414154      314.19854    
    225000   10.016843      22.582971      303.04475    
    226000   11.383602      20.570972      276.04539    
    227000   13.347289      24.09162       323.28957    
    228000   9.5957469      22.927735      307.6712     
    229000   12.914255      18.982091      254.72393    
    230000   6.8449975      23.564664      316.21826    
    231000   13.065757      17.386572      233.31339    
    232000   3.4278225      28.016468      375.95778    
    233000   8.0885618      21.983343      294.99824    
    234000   4.3041791      24.48645       328.58786    
    235000   7.506268       20.467678      274.65928    
    236000   7.8436936      19.97649       268.06794    
    237000   9.9367301      22.120755      296.84219    
    238000   10.073619      22.333757      299.7005     
    239000   8.9681171      25.239834      338.69765    
    240000   8.7197921      25.854499      346.94595    
    241000   3.558903       30.779882      413.0405     
    242000   10.721822      25.072013      336.44563    
    243000   10.127193      22.504946      301.99772    
    244000   9.5847658      25.303045      339.54588    
    245000   5.6112088      25.907582      347.65828    
    246000   5.6895986      23.756114      318.78736    
    247000   6.3513086      21.048202      282.44943    
    248000   9.8549481      17.528628      235.21966    
    249000   7.9038824      21.026263      282.15502    
    250000   11.718475      17.900911      240.21539    
    251000   10.604104      16.583564      222.53769    
    252000   3.7094422      24.103007      323.44238    
    253000   6.925691       20.476671      274.77995    
    254000   9.520805       21.877082      293.57231    
    255000   8.7746722      27.817072      373.28205    
    256000   8.7109036      30.193568      405.17265    
    257000   9.4118328      27.524559      369.35676    
    258000   6.4299549      27.346256      366.96408    
    259000   7.79979        22.570399      302.87605    
    260000   4.9820679      22.523667      302.24894    
    261000   3.982834       21.739491      291.72595    
    262000   1.9066376      24.224539      325.07323    
    263000   4.6769197      23.706337      318.1194     
    264000   6.6544183      21.93287       294.32094    
    265000   3.6961135      24.284796      325.88183    
    266000   8.5620803      23.421481      314.29687    
    267000   6.5564539      24.38677       327.25023    
    268000   6.8019291      26.143416      350.82297    
    269000   8.6964831      24.482427      328.53388    
    270000   8.1882183      25.337091      340.00275    
    271000   9.7420158      25.453594      341.56613    
    272000   11.733359      22.738876      305.13687    
    273000   9.2348088      25.644088      344.12241    
    274000   8.6861791      22.160161      297.37099    
    275000   10.000582      19.97746       268.08095    
    276000   6.7699088      21.809269      292.66232    
    277000   8.2556986      20.447819      274.39278    
    278000   5.6875707      22.966557      308.19215    
    279000   3.639485       23.106262      310.06688    
    280000   2.4354928      22.507804      302.03607    
    281000   4.7179304      22.533743      302.38416    
    282000   5.9201085      22.29177       299.13707    
    283000   0.52200024     26.437945      354.77531    
    284000   5.8772055      18.887344      253.4525     
    285000   0.1790524      25.864617      347.08172    
    286000   7.4466124      20.889531      280.32019    
    287000   2.7236057      22.506338      302.0164     
    288000   9.7025879      17.838264      239.37471    
    289000   9.4547768      21.614505      290.04874    
    290000   9.1018312      23.782585      319.14257    
    291000   7.7008445      23.258492      312.10968    
    292000   9.4810152      23.273011      312.30452    
    293000   10.674407      22.523104      302.24139    
    294000   10.474689      21.391833      287.06066    
    295000   10.142857      19.810629      265.84222    
    296000   2.6126919      28.732974      385.57269    
    297000   10.066133      20.859961      279.92339    
    298000   7.8781258      21.547374      289.1479     
    299000   9.3273197      23.466591      314.9022     
    300000   9.3317976      20.674404      277.43337    
    301000   8.9592156      22.89691       307.25756    
    302000   13.8259        20.416087      273.96697    
    303000   6.216593       28.057197      376.50432    
    304000   14.737612      21.789654      292.3991     
    305000   8.8964034      28.593596      383.70236    
    306000   14.58226       21.959666      294.68051    
    307000   18.481673      21.194887      284.41782    
    308000   14.106417      25.437247      341.34677    
    309000   9.9128618      25.604414      343.59001    
    310000   6.8466322      29.874601      400.89239    
    311000   6.5007917      31.947735      428.71212    
    312000   9.2132277      26.921247      361.26082    
    313000   9.7699864      30.537477      409.78762    
    314000   10.32368       32.405305      434.85233    
    315000   7.0346878      33.16454       445.04063    
    316000   9.0886471      28.849763      387.13991    
    317000   11.483175      24.611351      330.26393    
    318000   9.563294       26.837119      360.13189    
    319000   4.9499587      27.835757      373.53279    
    320000   7.5651048      27.057872      363.09422    
    321000   8.0206139      22.238102      298.41689    
    322000   10.619326      25.597942      343.50317    
    323000   14.366925      25.186435      337.98108    
    324000   11.487453      27.441457      368.24161    
    325000   11.71852       26.832553      360.07062    
    326000   14.831674      26.393674      354.18122    
    327000   7.1444768      31.133152      417.78109    
    328000   11.376842      21.758791      291.98494    
    329000   9.8983134      22.841306      306.51139    
    330000   10.120079      26.822112      359.93051    
    331000   9.7359499      28.092818      376.98234    
    332000   14.039611      20.918169      280.70448    
    333000   8.8974933      25.140978      337.37109    
    334000   14.98012       18.713746      251.12296    
    335000   12.716764      21.800274      292.5416     
    336000   10.247559      26.919123      361.23232    
    337000   6.6637814      28.582397      383.55207    
    338000   6.2476953      31.238489      419.19462    
    339000   8.4593713      25.997194      348.86079    
    340000   6.9569607      23.350639      313.34622    
    341000   8.3234905      21.492191      288.40738    
    342000   2.4438609      31.055867      416.744      
    343000   8.8248721      25.253876      338.88608    
    344000   10.876804      24.800971      332.80848    
    345000   10.694651      23.131632      310.40732    
    346000   9.9957808      24.457896      328.2047     
    347000   6.4061914      21.700474      291.20237    
    348000   6.218661       23.238275      311.83839    
    349000   1.7381643      27.054464      363.04848    
    350000   7.0589553      22.008473      295.33546    
    351000   6.3344878      21.415167      287.37379    
    352000   6.0386404      19.34727       259.62433    
    353000   4.8002849      20.414808      273.94981    
    354000   3.7652182      19.137582      256.81049    
    355000   4.5117594      20.790311      278.98874    
    356000   7.275157       16.94351       227.36786    
    357000   2.2290644      21.731332      291.61647    
    358000   5.3520122      18.811688      252.43725    
    359000   5.9404552      17.579724      235.90532    
    360000   5.115872       19.386815      260.15498    
    361000   5.2619444      15.291597      205.20056    
    362000   1.4962409      19.485981      261.48571    
    363000   3.6198068      16.344969      219.33594    
    364000   6.541416       13.739433      184.3718     
    365000   3.3409862      18.251809      244.92415    
    366000   2.5677799      21.755215      291.93695    
    367000   4.4567888      21.404507      287.23074    
    368000   4.3157416      17.418414      233.74067    
    369000   1.4725587      17.81305       239.03637    
    370000  -0.4637937      21.925223      294.21832    
    371000   3.2880316      20.740631      278.32208    
    372000   2.9009119      18.573021      249.23455    
    373000   0.7734458      20.833921      279.57396    
    374000   6.2699708      14.25869       191.3398     
    375000   6.0474964      14.651806      196.61509    
    376000   4.8594718      19.228181      258.02625    
    377000   3.5335511      24.29919       326.07499    
    378000   8.7142104      20.731993      278.20617    
    379000   5.7975887      25.798667      346.19673    
    380000   8.2521541      21.698952      291.18195    
    381000   10.17199       18.501584      248.27592    
    382000   7.2628018      25.157301      337.59012    
    383000   8.9678267      26.30822       353.03451    
    384000   11.794699      22.811739      306.11462    
    385000   8.8864096      27.214902      365.20143    
    386000   12.305899      21.806584      292.62628    
    387000   3.8482511      27.961093      375.21469    
    388000   9.173165       20.469499      274.68372    
    389000   7.0458598      21.091375      283.02877    
    390000   5.8785358      23.174962      310.98878    
    391000   3.2211078      24.473643      328.416      
    392000   4.3075815      19.418889      260.5854     
    393000   2.5415789      21.070706      282.75141    
    394000   2.8343953      24.456758      328.18942    
    395000   1.2389212      27.545331      369.63551    
    396000   7.267906       22.6788        304.3307     
    397000   2.6380277      24.383328      327.20406    
    398000   3.5999173      24.703516      331.50071    
    399000   3.4542615      23.491364      315.23464    
    400000   6.2139727      20.87453       280.11889    
    401000   3.1484891      20.900609      280.46885    
    402000   7.9267404      16.671891      223.72296    
    403000   5.9705799      18.421809      247.2054     
    404000   5.7788901      19.074705      255.96673    
    405000   2.5309785      20.143093      270.30361    
    406000   6.2729966      15.614175      209.52929    
    407000   0.49151589     22.923525      307.6147     
    408000   0.93790455     19.531867      262.10146    
    409000  -0.36483808     18.993034      254.87077    
    410000   3.4736262      17.560095      235.64192    
    411000   3.5914399      19.67434       264.01334    
    412000   3.0195856      20.160688      270.53972    
    413000   1.6680073      20.559355      275.8895     
    414000   4.4263447      19.482623      261.44065    
    415000   7.7039712      19.004352      255.02265    
    416000   5.9233366      20.945699      281.07391    
    417000   9.7232859      21.919467      294.14107    
    418000   7.1392994      25.012027      335.64066    
    419000   7.9682462      26.539859      356.14291    
    420000   11.130136      25.800421      346.22026    
    421000   12.116519      22.235921      298.38763    
    422000   7.8447042      24.268477      325.66285    
    423000   11.17654       23.241791      311.88557    
    424000   5.3857462      29.366908      394.07956    
    425000   10.753886      23.894738      320.64758    
    426000   7.2047135      28.478888      382.16307    
    427000   10.67352       23.410216      314.14569    
    428000   6.5513236      26.944341      361.57072    
    429000   8.2558808      25.423909      341.16778    
    430000   12.513557      19.831892      266.12755    
    431000   12.973163      21.98394       295.00625    
    432000   14.401757      24.983472      335.25748    
    433000   8.7880887      27.577958      370.07334    
    434000   11.75036       23.088653      309.83058    
    435000   8.1879754      23.87501       320.38284    
    436000   5.6151246      26.977583      362.0168     
    437000   14.392564      20.000321      268.38773    
    438000   9.4451194      25.28049       339.24322    
    439000   8.2918445      23.001919      308.66669    
    440000   6.1869004      23.086058      309.79576    
    441000   7.6777233      21.960026      294.68535    
    442000   10.992597      18.55376       248.97608    
    443000   8.4538783      19.315996      259.20465    
    444000   9.8342032      22.159279      297.35915    
    445000   9.0043324      24.216235      324.96181    
    446000   11.645518      21.541681      289.0715     
    447000   7.4157196      27.095363      363.59731    
    448000   10.21257       21.421976      287.46516    
    449000   4.9953234      25.467687      341.75525    
    450000   11.840766      18.753173      251.65204    
    451000   4.3877221      26.47726       355.30288    
    452000   10.682668      19.847201      266.33299    
    453000   6.2305382      24.260462      325.55528    
    454000   6.615084       22.527877      302.30544    
    455000   9.8457282      18.59284       249.50051    
    456000   5.9489308      24.28498       325.8843     
    457000   6.9000969      24.070862      323.01102    
    458000   4.4673818      27.177989      364.70609    
    459000   5.0573422      30.104187      403.97323    
    460000   6.873955       25.20558       338.23799    
    461000   4.5655562      25.458775      341.63566    
    462000   3.0148791      24.026779      322.41946    
    463000   6.5508583      19.137097      256.80398    
    464000   3.6658105      23.006411      308.72697    
    465000   5.462233       21.239933      285.0223     
    466000   7.0715565      21.79776       292.50787    
    467000   10.878848      20.529294      275.4861     
    468000   6.9877018      25.227857      338.53694    
    469000   6.9550655      27.371315      367.30036    
    470000   3.2027697      27.762262      372.54655    
    471000   5.3899647      23.581738      316.44737    
    472000   5.42168        19.643288      263.59664    
    473000   4.2958272      23.253511      312.04284    
    474000   0.28317393     23.428919      314.39667    
    475000   6.3073654      18.689254      250.79429    
    476000   2.7084607      20.871083      280.07263    
    477000   3.9543218      18.93214       254.05363    
    478000   6.500422       18.241689      244.78835    
    479000   7.9397005      18.240818      244.77665    
    480000   2.6197589      28.573468      383.43225    
    481000   6.312203       25.63601       344.014      
    482000   7.917626       22.417769      300.82788    
    483000   5.1092403      22.381325      300.33883    
    484000   7.9783762      18.482017      248.01335    
    485000   4.1266615      24.570554      329.71646    
    486000   1.4506182      28.248701      379.07415    
    487000   9.6274706      18.358693      246.35844    
    488000   4.1953054      23.651109      317.37828    
    489000   5.5265611      24.484531      328.56211    
    490000   10.742291      19.813174      265.87637    
    491000   7.9634606      25.391413      340.73172    
    492000   4.4548148      27.764109      372.57133    
    493000   5.1093428      24.783155      332.5694     
    494000   2.9394685      22.431738      301.01533    
    495000   4.3430376      20.015376      268.58976    
    496000   2.5879781      21.114121      283.334      
    497000   2.438842       22.145027      297.16791    
    498000   3.4604895      21.51467       288.70904    
    499000   4.3592604      21.948646      294.53264    
    500000   8.0490161      18.407492      247.01328    
    501000   5.9683127      21.004863      281.86785    
    502000   5.2034098      26.430571      354.67635    
    503000   4.9594564      24.072708      323.03578    
    504000   8.0697865      15.950934      214.04832    
    505000   1.7006587      22.947087      307.93089    
    506000   5.2511098      18.210532      244.37025    
    507000   6.0549358      16.472123      221.04223    
    508000   6.2971909      17.430892      233.90813    
    509000   5.653856       18.198665      244.21099    
    510000   5.8098368      17.919728      240.4679     
    511000   5.3320176      19.745144      264.96346    
    512000   3.0606639      19.473296      261.31549    
    513000   2.6411334      20.075764      269.40011    
    514000   3.1341774      23.141534      310.54021    
    515000   2.8033872      22.424017      300.91172    
    516000   7.5909737      21.246355      285.10847    
    517000   2.8150189      26.349464      353.58796    
    518000   7.7669562      21.276669      285.51526    
    519000   6.7951835      21.999215      295.21123    
    520000   2.3098194      27.449883      368.35467    
    521000   8.232081       21.679003      290.91425    
    522000   7.8154744      21.0184        282.0495     
    523000   4.2332956      24.659117      330.90491    
    524000   5.7669522      23.672108      317.66007    
    525000   6.2579199      25.978795      348.6139     
    526000   2.7590098      25.635429      344.0062     
    527000   4.3225179      22.970952      308.25114    
    528000   6.995098       19.181326      257.39749    
    529000   6.3435452      19.977505      268.08156    
    530000   4.8245668      20.983561      281.58199    
    531000   2.4741133      22.036571      295.71251    
    532000   8.758756       19.307572      259.09161    
    533000   8.439666       19.728081      264.7345     
    534000   6.938251       21.785853      292.34808    
    535000   7.2106713      19.707526      264.45866    
    536000   7.8782503      21.836871      293.03271    
    537000   7.1192562      24.702864      331.49196    
    538000   12.607142      20.517245      275.32442    
    539000   10.512017      20.162612      270.56554    
    540000   12.219222      22.43079       301.00261    
    541000   7.737534       25.647502      344.16822    
    542000   9.8892477      20.244486      271.66422    
    543000   9.943734       21.203385      284.53185    
    544000   5.9835671      24.323992      326.40781    
    545000   7.3492579      21.85119       293.22486    
    546000   8.6986941      20.873727      280.10812    
    547000   8.1698931      19.823128      266.00995    
    548000   8.1994039      17.875754      239.8778     
    549000   3.9824074      21.492422      288.41049    
    550000   8.0838531      17.20267       230.84557    
    551000   8.873801       19.416018      260.54687    
    552000   8.0501423      20.503214      275.13614    
    553000   4.2530953      26.297046      352.88456    
    554000   6.2376425      24.881603      333.89049    
    555000   6.6518622      21.943189      294.45941    
    556000   5.2005497      23.736691      318.52672    
    557000   6.3589103      24.536531      329.2599     
    558000   6.6697485      19.93281       267.48178    
    559000   8.2299126      21.084321      282.93411    
    560000   1.7633751      26.423139      354.57662    
    561000   6.7410322      19.218739      257.89954    
    562000   3.6034287      22.316551      299.46961    
    563000   3.2274089      22.908431      307.41215    
    564000   3.8161188      22.711952      304.77557    
    565000   0.67063995     23.052408      309.34421    
    566000   4.8186811      18.107921      242.99329    
    567000   5.4874538      17.424554      233.82307    
    568000   9.0230319      14.351845      192.58986    
    569000   5.8424412      16.630696      223.17016    
    570000   4.6951954      17.938725      240.72282    
    571000   1.1070445      16.581464      222.5095     
    572000   2.6060169      19.071322      255.92133    
    573000   7.5808142      16.470516      221.02068    
    574000   2.9350004      23.056049      309.39306    
    575000   3.8534602      20.973517      281.44721    
    576000   5.527806       18.006792      241.63622    
    577000   3.2133604      23.654968      317.43006    
    578000   1.1445959      22.771824      305.579      
    579000   4.9954407      17.254546      231.5417     
    580000   3.591244       19.033428      255.41282    
    581000   3.6609162      18.247847      244.87098    
    582000   9.7054446      13.521309      181.44476    
    583000   6.362393       17.683012      237.29136    
    584000   5.7542565      20.390189      273.61943    
    585000   6.6382952      15.677419      210.37797    
    586000   5.4996052      17.323961      232.47319    
    587000   3.6361         17.588382      236.02151    
    588000   4.9312381      18.111986      243.04783    
    589000   8.2157405      15.45859       207.44146    
    590000   4.2848865      16.94229       227.35149    
    591000   5.8421311      15.152282      203.33106    
    592000   1.0969429      23.194183      311.24671    
    593000   2.2363701      19.746922      264.98733    
    594000  -1.8429567      22.431119      301.00702    
    595000   4.6613426      19.123323      256.61914    
    596000   5.4063035      20.43679       274.24478    
    597000   4.2357109      21.317733      286.06631    
    598000   2.6438173      24.834147      333.25367    
    599000   9.9472129      16.921146      227.06775    
    600000   3.8947873      23.768243      318.95012    
    601000   9.4536485      17.564931      235.70681    
    602000   5.6950818      21.75192       291.89274    
    603000   6.1236277      23.409941      314.142      
    604000   4.713987       23.102133      310.01148    
    605000   5.7670227      23.638544      317.20966    
    606000   4.7190175      27.024039      362.6402     
    607000   4.6059334      24.263153      325.59139    
    608000   6.6366285      21.797022      292.49796    
    609000   4.2282738      22.878306      307.0079     
    610000   1.5145011      26.420714      354.54408    
    611000   4.4886375      22.48403       301.71704    
    612000   9.4634344      22.993271      308.55064    
    613000   8.3436549      21.5323        288.94562    
    614000   5.2023193      23.620724      316.97054    
    615000   4.9715741      21.749046      291.85417    
    616000   5.1370178      18.037187      242.04409    
    617000   5.616668       21.458924      287.96097    
    618000   2.7744563      23.930346      321.1254     
    619000   6.974084       22.173312      297.54747    
    620000   10.459249      18.538058      248.76537    
    621000   8.4617376      20.574975      276.09911    
    622000   9.4842622      17.910064      240.33822    
    623000   7.8117715      20.25358       271.78625    
    624000   5.6796073      19.457467      261.10307    
    625000   5.6366001      21.019331      282.062      
    626000   5.9556688      20.690402      277.64804    
    627000   7.8646096      21.830014      292.94069    
    628000   11.407065      22.676679      304.30223    
    629000   8.6179581      24.144056      323.99322    
    630000   3.3701706      26.880921      360.71968    
    631000   6.5107169      24.375543      327.09958    
    632000   3.8308904      25.651243      344.21842    
    633000   2.5023518      23.903452      320.76451    
    634000   0.47561607     20.12151       270.01399    
    635000  -1.3862219      20.889034      280.31352    
    636000   0.96580558     15.537596      208.50166    
    637000  -1.68369        21.115146      283.34776    
    638000  -2.1319556      23.653319      317.40793    
    639000  -0.89122057     21.799175      292.52685    
    640000  -2.6667389      25.149235      337.48189    
    641000  -1.36416        21.89743       293.84536    
    642000  -4.8263904      23.698676      318.01659    
    643000  -3.9974211      21.370535      286.77486    
    644000  -2.345076       20.796011      279.06524    
    645000  -1.8801624      20.930212      280.8661     
    646000  -0.97730177     20.250904      271.75035    
    647000  -4.6516701      24.202606      324.77892    
    648000  -7.3611311      28.67122       384.744      
    649000   0.91722608     15.914313      213.55689    
    650000  -1.5443709      20.616779      276.66009    
    651000  -6.8348646      22.31452       299.44237    
    652000  -8.3046206      22.835202      306.42949    
    653000  -3.4178218      20.94628       281.08171    
    654000  -4.1659084      19.077521      256.00452    
    655000  -7.3066247      20.507255      275.19036    
    656000  -5.0630896      21.899321      293.87073    
    657000  -5.1142772      23.330871      313.08095    
    658000   0.3031272      17.720633      237.7962     
    659000  -3.0333069      20.923006      280.7694     
    660000  -2.5449923      22.634272      303.73316    
    661000  -0.1434994      18.987025      254.79014    
    662000  -4.3784992      24.525187      329.10768    
    663000  -0.73121922     22.920731      307.57721    
    664000  -3.356309       21.858594      293.32421    
    665000  -5.7552848      22.519281      302.19008    
    666000  -2.7142707      21.09991       283.1433     
    667000  -3.5250936      21.683536      290.97508    
    668000  -3.4105465      21.380355      286.90664    
    669000  -3.9241535      22.298136      299.2225     
    670000  -2.3709943      23.530624      315.76146    
    671000   1.8088801      21.604145      289.90972    
    672000  -4.4793667      31.476365      422.38673    
    673000  -9.2044097      31.53781       423.21127    
    674000   1.1269052      19.065322      255.84082    
    675000  -8.6670395      28.256385      379.17727    
    676000  -4.5813193      24.182685      324.51159    
    677000  -2.9094903      22.497195      301.89371    
    678000  -2.3430589      17.387553      233.32655    
    679000  -1.460891       16.785486      225.24731    
    680000  -8.1768012      24.983979      335.26429    
    681000  -6.0860837      22.876773      306.98733    
    682000  -7.832874       23.492326      315.24755    
    683000  -4.7583113      21.962534      294.71899    
    684000  -4.7348031      24.337658      326.5912     
    685000  -6.368149       22.775365      305.62651    
    686000  -7.932977       22.879595      307.0252     
    687000  -7.7385596      22.758383      305.39864    
    688000  -14.309598      25.431973      341.27599    
    689000  -10.923567      20.383886      273.53486    
    690000  -13.855787      24.247911      325.38687    
    691000  -10.560952      23.131516      310.40578    
    692000  -14.879606      29.039314      389.68352    
    693000  -11.508287      28.143668      377.6647     
    694000  -14.421044      28.184991      378.21922    
    695000  -7.3558519      22.325031      299.58341    
    696000  -7.278004       24.056045      322.81219    
    697000  -5.9421477      24.48207       328.52908    
    698000  -11.467376      28.369993      380.70179    
    699000  -8.100495       25.626706      343.88915    
    700000  -12.939075      26.35734       353.69366    
    701000  -10.970511      23.971358      321.67575    
    702000  -14.669421      25.696895      344.83103    
    703000  -14.652274      26.628636      357.33422    
    704000  -10.462089      21.27193       285.45167    
    705000  -10.65338       23.249245      311.98559    
    706000  -15.631226      27.483549      368.80645    
    707000  -19.396007      26.549272      356.26923    
    708000  -13.016208      20.429627      274.14866    
    709000  -8.6560333      19.01154       255.11911    
    710000  -15.204504      29.735707      399.02854    
    711000  -12.351761      26.967093      361.87604    
    712000  -13.708667      27.468612      368.60601    
    713000  -12.153835      29.026942      389.5175     
    714000  -12.272668      27.864687      373.921      
    715000  -5.7162315      26.388805      354.11589    
    716000  -7.4891623      27.783526      372.83189    
    717000  -0.67964701     24.287744      325.92139    
    718000  -2.6463116      28.135236      377.55155    
    719000  -1.0340712      25.390913      340.725      
    720000   1.0172914      18.872079      253.24766    
    721000  -2.7327586      26.962154      361.80976    
    722000  -4.6916246      28.791556      386.35882    
    723000  -2.5584375      23.46552       314.88783    
    724000   2.9260431      20.211333      271.21934    
    725000  -2.1129073      23.044902      309.24349    
    726000  -7.8724031      30.915474      414.86004    
    727000   0.63758278     27.105765      363.7369     
    728000  -6.2603442      33.368592      447.77885    
    729000  -11.710044      39.789515      533.94231    
    730000  -4.8419301      25.77493       345.8782     
    731000  -9.8582622      29.079255      390.21949    
    732000  -1.7681327      22.201955      297.93183    
    733000  -2.3781227      24.157315      324.17114    
    734000  -10.171165      25.696487      344.82556    
    735000  -5.8362402      23.788035      319.21571    
    736000  -7.8480964      22.23462       298.37017    
    737000  -6.2345634      18.14315       243.46604    
    738000  -13.573927      25.065693      336.36082    
    739000  -14.739374      27.346273      366.96432    
    740000  -7.3317516      18.746105      251.55719    
    741000  -4.9924137      20.715531      277.98525    
    742000  -7.7989341      23.623559      317.00858    
    743000  -10.358145      27.705861      371.78969    
    744000  -8.1297871      28.951468      388.5047     
    745000  -1.9687885      24.103794      323.45294    
    746000  -3.6915526      24.853389      333.51188    
    747000  -0.2929296      22.303982      299.30095    
    748000   0.29748935     18.365386      246.44825    
    749000  -7.7535644      25.700891      344.88465    
    750000  -0.51076429     16.971914      227.74902    
    751000  -3.8549628      20.258773      271.85594    
    752000  -1.2866558      17.310958      232.29871    
    753000  -7.7482333      20.676661      277.46365    
    754000  -9.412187       20.610724      276.57884    
    755000  -5.8736506      23.136097      310.46724    
    756000  -5.144105       23.178659      311.03839    
    757000  -10.13113       22.836045      306.44079    
    758000  -8.317731       22.684607      304.40863    
    759000  -2.0414571      18.12352       243.20261    
    760000  -6.3924782      21.813301      292.71641    
    761000  -8.5962337      23.374225      313.66272    
    762000  -5.7489312      19.939007      267.56495    
    763000  -4.7516926      18.352838      246.27988    
    764000  -7.0375962      25.315032      339.70675    
    765000  -9.2379162      28.255716      379.16828    
    766000  -5.7874165      25.596232      343.48021    
    767000  -14.09853       33.710813      452.37116    
    768000  -5.9836647      25.133809      337.27489    
    769000  -9.6243873      27.017552      362.55316    
    770000  -11.093615      31.485544      422.5099     
    771000  -5.262951       27.032759      362.75722    
    772000  -5.6270362      27.215084      365.20387    
    773000  -9.5649281      27.473585      368.67274    
    774000  -9.7043411      24.312523      326.25391    
    775000  -11.104928      26.769572      359.22547    
    776000  -6.5207695      20.504195      275.14929    
    777000  -3.3873118      18.678776      250.65368    
    778000  -14.830881      31.167892      418.24727    
    779000  -15.218792      27.005402      362.39011    
    780000  -10.076708      18.754165      251.66535    
    781000  -13.83385       24.017691      322.29751    
    782000  -17.347986      31.87334       427.7138     
    783000  -13.919753      26.074712      349.90102    
    784000  -8.8823316      21.614101      290.04331    
    785000  -9.4559         24.540849      329.31785    
    786000  -10.569806      26.75756       359.06428    
    787000  -6.1157626      26.06611       349.78559    
    788000  -1.4660343      23.072376      309.61216    
    789000  -9.0287191      25.566727      343.08429    
    790000  -9.8916689      20.735405      278.25194    
    791000  -11.936304      21.663189      290.70204    
    792000  -10.768791      20.06557       269.26332    
    793000  -7.6260209      16.635919      223.24024    
    794000  -10.220119      19.173158      257.28789    
    795000  -10.607413      20.336989      272.90553    
    796000  -8.2033121      21.275486      285.49938    
    797000  -8.5956163      22.54659       302.55655    
    798000  -9.118655       22.162552      297.40308    
    799000  -6.7918518      20.251783      271.76214    
    800000  -8.1017634      20.735571      278.25418    
    801000  -4.6764897      21.092614      283.04539    
    802000  -10.437223      25.332656      339.94325    
    803000  -5.3331635      21.162261      283.98       
    804000  -2.8290307      19.868629      266.62053    
    805000  -13.092026      28.492706      382.34849    
    806000  -8.6614851      24.882493      333.90242    
    807000  -11.018579      26.249373      352.24482    
    808000  -6.4745658      24.511667      328.92626    
    809000  -10.597842      30.597004      410.58642    
    810000  -5.7324165      28.23364       378.87205    
    811000  -9.9613753      29.740006      399.08623    
    812000  -0.12821145     20.38016       273.48486    
    813000  -7.6370542      21.101651      283.16667    
    814000  -7.0366321      20.096463      269.67788    
    815000  -11.569626      22.333636      299.69888    
    816000  -11.283724      23.911118      320.86738    
    817000  -16.366468      30.055621      403.32151    
    818000  -14.819781      26.881448      360.72674    
    819000  -10.594712      21.006231      281.88621    
    820000  -14.702003      24.800971      332.80848    
    821000  -10.882518      20.221915      271.36134    
    822000  -7.8250289      17.872008      239.82753    
    823000  -11.856234      23.265146      312.19897    
    824000  -13.531591      23.493652      315.26534    
    825000  -12.505482      22.213238      298.08324    
    826000  -11.890937      24.560609      329.58301    
    827000  -9.5135472      23.092315      309.87972    
    828000  -7.0806684      20.156279      270.48056    
    829000  -13.443887      28.270588      379.36786    
    830000  -8.3761597      24.295576      326.02649    
    831000  -9.0249118      25.296237      339.45453    
    832000  -12.756563      28.111474      377.23268    
    833000  -15.63918       30.477444      408.98203    
    834000  -14.46643       27.767095      372.6114     
    835000  -8.2119595      22.690592      304.48894    
    836000  -10.306894      22.277223      298.94186    
    837000  -12.939093      22.345342      299.85597    
    838000  -11.458502      22.595581      303.21396    
    839000  -10.680775      22.905869      307.37778    
    840000  -9.2651144      22.79695       305.91618    
    841000  -7.1755955      21.764397      292.06017    
    842000  -6.0112632      23.346583      313.2918     
    843000  -1.8423519      17.325816      232.49809    
    844000  -9.5048788      23.132277      310.41598    
    845000  -9.9801064      24.125294      323.74144    
    846000  -12.74575       22.770219      305.55746    
    847000  -17.371659      28.499385      382.43812    
    848000  -11.849497      20.310274      272.54704    
    849000  -12.339824      25.585601      343.33756    
    850000  -3.2016979      19.086417      256.12389    
    851000  -14.061796      29.035612      389.63384    
    852000  -13.387039      24.782762      332.56413    
    853000  -7.7135685      17.658847      236.9671     
    854000  -15.262062      24.692621      331.3545     
    855000  -19.220815      30.657249      411.39487    
    856000  -12.807579      24.213917      324.9307     
    857000  -7.1678592      18.018816      241.79757    
    858000  -12.030423      18.573407      249.23973    
    859000  -16.63789       17.156824      230.23036    
    860000  -19.531477      22.895195      307.23454    
    861000  -15.051309      19.133664      256.75791    
    862000  -19.722276      21.835148      293.00959    
    863000  -13.003114      13.955026      187.26488    
    864000  -18.057866      17.080778      229.20988    
    865000  -20.976         18.062624      242.38544    
    866000  -21.443522      20.316628      272.63231    
    867000  -19.504477      18.453222      247.62695    
    868000  -19.375592      19.348431      259.63991    
    869000  -15.511014      18.719002      251.19349    
    870000  -16.116813      17.238826      231.33076    
    871000  -14.901545      17.901302      240.22064    
    872000  -12.643096      15.99645       214.65909    
    873000  -11.453007      15.125399      202.97032    
    874000  -15.096501      17.357774      232.92694    
    875000  -15.126886      17.512501      235.00324    
    876000  -15.512811      22.121657      296.8543     
    877000  -12.586866      21.683741      290.97783    
    878000  -10.540164      19.971138      267.99611    
    879000  -13.606929      26.717699      358.52938    
    880000  -10.563002      22.959065      308.09162    
    881000  -6.2606462      17.619537      236.43959    
    882000  -7.8947546      20.003231      268.42678    
    883000  -5.6593402      18.689563      250.79844    
    884000  -8.3016565      21.898708      293.86251    
    885000  -8.7095411      21.020729      282.08075    
    886000  -12.096844      24.710972      331.60076    
    887000  -10.067543      26.181487      351.33385    
    888000  -12.363746      24.418462      327.67552    
    889000  -8.9155552      24.553966      329.49386    
    890000  -15.907506      34.729915      466.04667    
    891000  -11.876125      27.817509      373.28791    
    892000  -7.419625       24.284095      325.87243    
    893000  -13.153439      26.987132      362.14494    
    894000  -11.723411      23.529107      315.74111    
    895000  -5.8009949      21.003813      281.85376    
    896000  -12.472257      28.326648      380.12013    
    897000  -10.9752        26.569922      356.54633    
    898000  -8.4813349      24.481522      328.52173    
    899000  -9.5852286      25.012876      335.65206    
    900000  -11.904307      24.341321      326.64035    
    901000  -3.4446081      18.679525      250.66374    
    902000  -2.5963436      18.251224      244.9163     
    903000  -7.738044       22.485249      301.7334     
    904000  -10.819932      25.503665      342.23804    
    905000  -11.62655       25.40208       340.87486    
    906000  -5.2799317      24.258553      325.52967    
    907000  -9.6489072      25.669669      344.46568    
    908000  -7.1501077      22.627171      303.63787    
    909000  -5.6565808      23.516336      315.56973    
    910000  -8.4358962      22.986213      308.45592    
    911000  -6.6797557      22.799828      305.95479    
    912000  -10.244569      25.429676      341.24517    
    913000  -5.7347607      19.614662      263.21251    
    914000  -8.8526861      20.392462      273.64994    
    915000  -11.599233      23.593189      316.60104    
    916000  -16.29376       25.194941      338.09522    
    917000  -10.136688      18.790066      252.14711    
    918000  -9.1443856      20.415083      273.95349    
    919000  -10.130826      21.320668      286.1057     
    920000  -15.163542      25.828262      346.59387    
    921000  -15.884882      26.127808      350.61352    
    922000  -12.186835      24.063599      322.91356    
    923000  -13.703139      21.980969      294.96639    
    924000  -16.084154      23.103132      310.02489    
    925000  -19.94099       24.016167      322.27705    
    926000  -17.555026      18.455143      247.65272    
    927000  -17.48687       19.933728      267.4941     
    928000  -18.403148      17.83316       239.30623    
    929000  -13.775259      16.081032      215.79412    
    930000  -16.931205      22.31942       299.50812    
    931000  -11.495966      17.545364      235.44424    
    932000  -14.961144      20.200194      271.06986    
    933000  -16.089322      23.591678      316.58077    
    934000  -14.575642      25.710201      345.00959    
    935000  -15.132191      24.75858       332.23962    
    936000  -10.302339      17.206962      230.90316    
    937000  -16.984016      23.861447      320.20084    
    938000  -15.539428      24.899527      334.13101    
    939000  -12.29112       21.052281      282.50416    
    940000  -12.031858      23.072226      309.61015    
    941000  -6.9165977      18.794376      252.20494    
    942000  -8.0724096      22.910689      307.44245    
    943000  -9.3183179      25.6274        343.89847    
    944000  -3.5088839      20.785652      278.92622    
    945000  -4.6174382      17.947508      240.84068    
    946000  -13.974987      24.255862      325.49356    
    947000  -9.9472382      20.569373      276.02394    
    948000  -14.144694      23.728524      318.41713    
    949000  -7.3099534      17.90215       240.23202    
    950000  -10.212975      18.33785       246.07875    
    951000  -10.82049       21.167084      284.04472    
    952000  -8.6774569      21.331951      286.2571     
    953000  -6.849605       19.994653      268.31167    
    954000  -15.202473      21.706558      291.28401    
    955000  -5.9686639      14.93797       200.45517    
    956000  -9.7472319      17.507935      234.94197    
    957000  -17.382778      25.374762      340.50828    
    958000  -9.1444178      17.141764      230.02826    
    959000  -9.2484282      20.393882      273.66899    
    960000  -13.074031      23.524429      315.67834    
    961000  -12.342015      23.007589      308.74277    
    962000  -13.06208       19.758061      265.1368     
    963000  -15.436614      24.926466      334.49251    
    964000  -9.5681329      24.048512      322.7111     
    965000  -7.7991164      23.557139      316.11728    
    966000  -7.585879       23.871551      320.33642    
    967000  -4.195456       18.952464      254.32636    
    968000  -1.9665428      20.489412      274.95092    
    969000  -5.4119066      22.050859      295.90425    
    970000  -7.2154469      21.253859      285.20917    
    971000  -11.06173       21.244644      285.08552    
    972000  -7.0825856      17.923911      240.52402    
    973000  -7.8475152      23.906856      320.81019    
    974000  -12.145628      24.793686      332.71071    
    975000  -13.611475      23.987213      321.88852    
    976000  -8.8486918      19.914157      267.23148    
    977000  -8.1384606      20.276492      272.09371    
    978000  -15.566684      25.52097       342.47026    
    979000  -8.8422907      18.1348        243.35399    
    980000  -8.781729       18.438099      247.424      
    981000  -5.1467051      18.040496      242.08851    
    982000  -13.108188      22.412544      300.75777    
    983000  -15.994566      23.879191      320.43895    
    984000  -14.037999      22.941286      307.85304    
    985000  -15.049337      21.362054      286.66106    
    986000  -11.017143      20.373944      273.40144    
    987000  -13.146293      19.76802       265.27044    
    988000  -17.847957      22.565891      302.81555    
    989000  -15.719872      18.99835       254.94211    
    990000  -12.512106      13.986442      187.68646    
    991000  -14.846453      18.344713      246.17085    
    992000  -17.485201      21.276707      285.51577    
    993000  -20.588534      20.397415      273.7164     
    994000  -20.558047      17.640613      236.7224     
    995000  -23.289801      19.623422      263.33006    
    996000  -18.158422      14.834505      199.06675    
    997000  -20.859028      19.235345      258.12238    
    998000  -24.439904      24.894611      334.06504    
    999000  -18.146511      20.010561      268.52515    
   1000000  -17.105009      22.367468      300.15288    
   1001000  -12.385925      20.485042      274.89228    
   1002000  -9.6867927      18.203129      244.2709     
   1003000  -13.823218      23.556653      316.11076    
   1004000  -12.71796       28.282557      379.52847    
   1005000  -6.6684875      20.762207      278.61161    
   1006000  -8.6434443      21.984867      295.01869    
   1007000  -6.6488162      20.829075      279.50892    
   1008000  -9.0934568      19.409247      260.456      
   1009000  -10.574525      20.445999      274.36836    
   1010000  -9.0105857      20.857635      279.89218    
   1011000  -15.535655      26.566754      356.50382    
   1012000  -10.509075      21.335853      286.30946    
   1013000  -8.9844991      20.393198      273.65981    
   1014000  -9.1220625      18.255753      244.97708    
   1015000  -16.425149      27.946316      375.0164     
   1016000  -16.007131      29.204284      391.89728    
   1017000  -10.663444      26.599855      356.948      
   1018000  -9.8307065      24.417786      327.66645    
   1019000  -6.822001       19.988076      268.22342    
   1020000  -17.361972      28.726833      385.49028    
   1021000  -12.937264      26.370363      353.86841    
   1022000  -11.763816      25.066263      336.36847    
   1023000  -8.9146445      25.017717      335.71703    
   1024000  -5.9089408      23.337678      313.17229    
   1025000  -6.2883333      21.438968      287.69318    
   1026000  -4.0756972      18.826845      252.64066    
   1027000  -2.9857063      21.54001       289.04908    
   1028000  -5.6616409      27.555537      369.77247    
   1029000  -2.0712897      19.758691      265.14526    
   1030000  -3.7005958      20.961026      281.2796     
   1031000  -5.236525       21.778784      292.25322    
   1032000  -11.89665       28.299566      379.75672    
   1033000  -7.0892564      20.514515      275.28778    
   1034000  -10.626134      24.439421      327.95677    
   1035000  -9.6415309      21.961768      294.70872    
   1036000  -13.078535      25.41673       341.07145    
   1037000  -12.795288      27.265192      365.87627    
   1038000  -11.564266      20.686214      277.59185    
   1039000  -11.180106      21.078747      282.85931    
   1040000  -17.540347      28.113         377.25315    
   1041000  -11.148751      21.811276      292.68924    
   1042000  -13.245412      25.258505      338.9482     
   1043000  -14.509522      24.116747      323.62675    
   1044000  -15.604099      25.306511      339.59239    
   1045000  -8.4750363      20.592183      276.33002    
   1046000  -9.5432814      23.658827      317.48185    
   1047000  -9.599035       23.484274      315.13949    
   1048000  -4.2135828      18.020883      241.82531    
   1049000  -12.047799      27.420528      367.96076    
   1050000  -9.4215819      25.611833      343.68957    
   1051000  -13.277781      27.568126      369.9414     
   1052000  -7.8993507      19.774366      265.3556     
   1053000  -11.284655      24.60652       330.1991     
   1054000  -9.4150839      21.439638      287.70217    
   1055000  -10.677562      23.767992      318.94675    
   1056000  -11.616995      24.256114      325.49695    
   1057000  -6.9819302      21.319693      286.0926     
   1058000  -8.8469243      16.290344      218.60292    
   1059000  -10.448304      18.720068      251.20779    
   1060000  -9.4149128      21.397469      287.1363     
   1061000  -10.747465      20.619432      276.69568    
   1062000  -18.282875      24.852937      333.50582    
   1063000  -11.48295       21.050946      282.48624    
   1064000  -11.766408      24.476827      328.45873    
   1065000  -10.097553      24.328507      326.4684     
   1066000  -7.9145749      22.206543      297.9934     
   1067000  -10.463992      23.119499      310.24452    
   1068000  -12.300975      24.781424      332.54616    
   1069000  -9.0764384      21.684807      290.99214    
   1070000  -11.800022      25.728977      345.26154    
   1071000  -5.7970759      17.565315      235.71196    
   1072000  -9.9027051      23.423029      314.31763    
   1073000  -10.097188      22.812748      306.12817    
   1074000  -8.5852555      24.801097      332.81017    
   1075000  -11.288525      21.892432      293.77829    
   1076000  -12.609623      25.860753      347.02987    
   1077000  -14.24694       27.554825      369.76291    
   1078000  -11.468212      26.004649      348.96083    
   1079000  -8.0207523      27.623584      370.6856     
   1080000  -3.7255422      24.018384      322.3068     
   1081000  -12.520783      29.292028      393.07474    
   1082000  -6.2631733      23.881714      320.47281    
   1083000  -10.988818      28.420931      381.38534    
   1084000  -7.0427         22.37503       300.25435    
   1085000  -3.5965677      15.750706      211.36141    
   1086000  -10.733364      24.816533      333.0173     
   1087000  -13.052737      29.603483      397.2542     
   1088000  -16.120863      30.158467      404.70162    
   1089000  -15.03958       27.085326      363.46262    
   1090000  -10.631025      20.578532      276.14684    
   1091000  -13.018078      25.054126      336.2056     
   1092000  -16.299247      26.041317      349.45288    
   1093000  -9.2558002      18.169844      243.82425    
   1094000  -13.340931      21.913236      294.05746    
   1095000  -13.187198      23.032575      309.07806    
   1096000  -12.121869      23.65492       317.42942    
   1097000  -8.1483305      20.735945      278.2592     
   1098000  -11.217887      23.449742      314.6761     
   1099000  -5.8102695      17.191722      230.69866    
   1100000  -9.8173977      22.554661      302.66485    
   1101000  -9.872065       21.775045      292.20305    
   1102000  -13.249019      22.667669      304.18133    
   1103000  -10.101658      19.177746      257.34946    
   1104000  -13.553479      21.956655      294.64011    
   1105000  -14.537361      21.462722      288.01193    
   1106000  -9.5250066      18.41027       247.05056    
   1107000  -13.589857      20.749547      278.44172    
   1108000  -15.808121      21.272351      285.45732    
   1109000  -17.568082      22.452912      301.29946    
   1110000  -15.566735      22.829649      306.35496    
   1111000  -12.582634      23.483449      315.12842    
   1112000  -6.2704744      17.9202        240.47423    
   1113000  -11.259137      21.557278      289.2808     
   1114000  -11.364128      19.566198      262.56216    
   1115000  -15.063217      23.130477      310.39182    
   1116000  -14.004589      22.730209      305.02056    
   1117000  -13.478498      23.716355      318.25382    
   1118000  -13.675397      24.895343      334.07487    
   1119000  -16.396207      28.828234      386.85101    
   1120000  -12.10748       26.738138      358.80365    
   1121000  -10.350235      23.913786      320.90318    
   1122000  -7.6498552      20.908045      280.56863    
   1123000  -13.1932        29.489234      395.72108    
   1124000  -12.264223      27.261809      365.83087    
   1125000  -3.9559297      19.449555      260.9969     
   1126000  -10.350998      24.44112       327.97958    
   1127000  -7.5781165      19.830692      266.11145    
   1128000  -8.0319527      19.316138      259.20656    
   1129000  -15.563451      22.893831      307.21624    
   1130000  -15.784397      23.138656      310.50158    
   1131000  -8.5125465      19.070554      255.91103    
   1132000  -13.286374      25.829571      346.61143    
   1133000  -8.737693       24.57895       329.82914    
   1134000  -11.524447      26.269721      352.51788    
   1135000  -9.0563381      30.238268      405.77249    
   1136000  -8.1719923      26.369655      353.85892    
   1137000  -8.3941916      27.89037       374.26564    
   1138000  -8.3120546      29.034317      389.61647    
   1139000  -12.81543       31.227809      419.05131    
   1140000  -12.293252      31.266772      419.57416    
   1141000  -5.4475301      24.488937      328.62124    
   1142000  -9.5056252      29.133813      390.95162    
   1143000  -7.8906659      24.153064      324.1141     
   1144000  -13.147275      25.876106      347.2359     
   1145000  -6.3016648      17.030575      228.5362     
   1146000  -16.483224      23.638703      317.2118     
   1147000  -10.03302       20.25803       271.84597    
   1148000  -11.4986        24.119578      323.66475    
   1149000  -11.449811      27.554907      369.76401    
   1150000  -7.9159326      26.039959      349.43466    
   1151000  -6.7977486      24.751205      332.14066    
   1152000  -4.4234094      23.045908      309.25698    
   1153000  -4.4886425      24.732239      331.88615    
   1154000  -5.1584202      26.321019      353.20625    
   1155000   1.3124527      23.937339      321.21924    
   1156000  -1.4111795      23.643229      317.27254    
   1157000  -1.0078597      26.546797      356.23601    
   1158000   2.6426612      20.545708      275.70637    
   1159000   4.4658266      19.399389      260.32372    
   1160000  -8.9805156      31.409467      421.48901    
   1161000  -11.251254      31.446878      421.99104    
   1162000  -8.5841676      30.148184      404.56363    
   1163000  -3.7832818      24.747317      332.08848    
   1164000   4.222252       21.590077      289.72094    
   1165000   2.4825966      23.137732      310.48918    
   1166000  -2.4858573      24.379374      327.15099    
   1167000  -1.3168414      20.731432      278.19864    
   1168000  -5.2517116      27.943863      374.98348    
   1169000  -5.1881577      27.197943      364.97385    
   1170000  -10.127919      31.994478      429.33937    
   1171000  -3.3563803      24.385718      327.23612    
   1172000  -3.053879       24.081204      323.14979    
   1173000  -8.4379246      27.819304      373.312      
   1174000  -5.44677        23.410763      314.15303    
   1175000  -2.2901528      23.516553      315.57265    
   1176000  -8.4861946      33.470413      449.14519    
   1177000  -0.14272519     24.069895      322.99804    
   1178000  -4.2853302      26.67673       357.9796     
   1179000   1.0679967      22.207074      298.00053    
   1180000  -2.3471793      22.715084      304.81759    
   1181000  -5.3742855      25.936266      348.04319    
   1182000  -9.5502349      29.963211      402.08145    
   1183000  -9.000393       25.070786      336.42917    
   1184000  -10.23906       27.819053      373.30862    
   1185000  -1.4880068      16.301473      218.75226    
   1186000  -8.8020805      24.792994      332.70143    
   1187000  -6.1575849      22.119038      296.81915    
   1188000  -9.5724999      29.319478      393.44309    
   1189000  -4.3116619      23.140239      310.52283    
   1190000  -6.3602967      23.615524      316.90075    
   1191000  -9.8111038      27.125524      364.00205    
   1192000  -10.514207      26.777789      359.33573    
   1193000  -9.387336       26.779204      359.35472    
   1194000  -6.5371261      22.669069      304.20012    
   1195000  -2.1344276      18.715439      251.14568    
   1196000  -8.5227374      27.338961      366.86619    
   1197000  -5.6606274      29.551306      396.55404    
   1198000  -6.3261924      27.560395      369.83766    
   1199000  -5.7830201      27.07511       363.32554    
   1200000  -7.0792421      27.190607      364.8754     
   1201000  -5.4854508      28.226053      378.77024    
   1202000  -0.78610175     27.382541      367.451      
   1203000  -3.8887363      30.648521      411.27774    
   1204000  -9.1506585      34.513752      463.14595    
   1205000  -1.1750502      29.280013      392.9135     
   1206000  -6.5898067      35.598192      477.69823    
   1207000  -5.4687175      31.014813      416.19308    
   1208000   1.2926618      22.294203      299.16973    
   1209000  -1.6812777      20.260984      271.88561    
   1210000  -0.42197913     20.58264       276.20197    
   1211000  -4.8667043      23.537045      315.84764    
   1212000  -5.7381017      23.449586      314.67401    
   1213000  -9.4226644      26.424871      354.59986    
   1214000  -8.4627419      22.442893      301.16502    
   1215000  -10.512129      24.343348      326.66755    
   1216000  -9.6139646      21.346161      286.44778    
   1217000  -9.6543576      20.344822      273.01065    
   1218000  -9.8348855      22.545995      302.54856    
   1219000  -10.408561      23.149477      310.64679    
   1220000  -18.841774      29.813247      400.06906    
   1221000  -14.619457      29.145743      391.11172    
   1222000  -13.159213      24.91064       334.28014    
   1223000  -9.2537037      22.237421      298.40775    
   1224000  -11.218959      21.066617      282.69654    
   1225000  -15.885902      25.037323      335.98012    
   1226000  -9.7399904      20.410802      273.89604    
   1227000  -10.615759      22.279049      298.96637    
   1228000  -10.013169      24.023768      322.37906    
   1229000  -16.790303      32.619167      437.72218    
   1230000  -11.341693      26.406492      354.35323    
   1231000  -11.148904      25.839419      346.74358    
   1232000  -9.3113328      24.334982      326.55529    
   1233000  -12.577747      28.005534      375.81105    
   1234000  -13.35888       26.611079      357.09862    
   1235000  -8.6949461      26.478597      355.32082    
   1236000  -13.238675      30.740187      412.50783    
   1237000  -11.068669      25.234713      338.62893    
   1238000  -9.4761256      28.129379      377.47295    
   1239000  -5.4383586      22.588048      303.11289    
   1240000  -4.6343461      23.878043      320.42355    
   1241000  -4.7240762      26.200422      351.58795    
   1242000  -2.4491584      23.085052      309.78226    
   1243000  -10.233547      29.587645      397.04167    
   1244000  -2.7040154      20.99652       281.7559     
   1245000  -13.297418      29.77341       399.53448    
   1246000  -11.380077      27.843946      373.64268    
   1247000  -3.5137119      20.661853      277.26494    
   1248000  -5.3671721      21.750279      291.87071    
   1249000  -7.1937579      21.174336      284.14204    
   1250000  -12.361266      23.783337      319.15267    
   1251000  -14.754235      25.918495      347.80471    
   1252000  -15.044918      25.982755      348.66703    
   1253000  -12.109863      22.667655      304.18114    
   1254000  -10.482143      19.732095      264.78837    
   1255000  -8.7771949      19.260861      258.46479    
   1256000  -13.118958      23.609479      316.81964    
   1257000  -10.909712      20.703591      277.82502    
   1258000  -12.198799      19.940187      267.58078    
   1259000  -11.280773      18.919681      253.88644    
   1260000  -12.135693      19.644412      263.61172    
   1261000  -8.350187       20.68285       277.5467     
   1262000  -9.8394427      21.492492      288.41143    
   1263000  -10.60598       20.213385      271.24688    
   1264000  -11.691995      23.335088      313.13754    
   1265000  -11.205822      24.300576      326.09359    
   1266000  -9.38           23.680515      317.77288    
   1267000  -5.6542398      23.904005      320.77193    
   1268000  -7.3852244      27.133705      364.11183    
   1269000  -4.0752559      23.386878      313.83251    
   1270000  -8.2851841      24.985529      335.28508    
   1271000  -11.244323      27.513342      369.20624    
   1272000  -8.3134072      20.899102      280.44862    
   1273000  -11.528552      25.387489      340.67905    
   1274000  -11.980582      25.92493       347.89107    
   1275000  -6.7364929      22.406345      300.67458    
   1276000  -10.69763       26.74663       358.91761    
   1277000  -17.443692      32.812535      440.31702    
   1278000  -3.7930279      22.456621      301.34924    
   1279000  -11.609104      25.809738      346.34529    
   1280000  -10.319281      23.943162      321.29739    
   1281000  -12.579687      22.570035      302.87116    
   1282000  -15.680493      28.179623      378.14718    
   1283000  -3.4165472      17.143371      230.04983    
   1284000  -5.0974613      20.938834      280.9818     
   1285000  -13.633264      26.515314      355.81354    
   1286000  -7.6545332      24.424139      327.7517     
   1287000  -6.3238821      23.853644      320.09613    
   1288000  -5.653612       24.358005      326.86424    
   1289000  -12.95121       27.592753      370.27187    
   1290000  -6.530959       18.082983      242.65864    
   1291000  -11.512573      25.445821      341.46183    
   1292000  -11.853865      25.297181      339.4672     
   1293000  -12.834939      26.570276      356.55108    
   1294000  -12.170459      25.145873      337.43677    
   1295000  -13.935802      30.158246      404.69866    
   1296000  -7.0888788      24.076733      323.0898     
   1297000  -10.329234      23.65213       317.39198    
   1298000  -7.931101       21.509061      288.63378    
   1299000  -9.9236848      22.819339      306.21662    
   1300000  -4.5634958      18.778603      251.99328    
   1301000  -10.406586      22.488471      301.77664    
   1302000  -10.693495      21.749105      291.85496    
   1303000  -11.887875      20.705512      277.85081    
   1304000  -12.655496      19.097327      256.27029    
   1305000  -15.859666      19.444167      260.92461    
   1306000  -16.476567      19.348415      259.6397     
   1307000  -13.056167      18.566801      249.15108    
   1308000  -12.128584      21.026697      282.16084    
   1309000  -14.058612      23.28753       312.49935    
   1310000  -15.411926      25.28046       339.24282    
   1311000  -12.337652      23.238469      311.84099    
   1312000  -11.603721      24.459913      328.23175    
   1313000  -6.5388684      21.124185      283.46905    
   1314000  -9.3258999      21.790704      292.41319    
   1315000  -7.2999838      21.594856      289.78507    
   1316000  -9.2085277      19.239879      258.18323    
   1317000  -18.16324       25.632683      343.96936    
   1318000  -14.655185      21.137969      283.65402    
   1319000  -8.6991045      18.204734      244.29244    
   1320000  -11.676413      20.827445      279.48704    
   1321000  -8.3550633      16.691706      223.98886    
   1322000  -8.6509891      16.368874      219.65672    
   1323000  -15.599758      23.16722       310.88489    
   1324000  -10.301716      19.044467      255.56095    
   1325000  -11.200322      20.17668       270.75432    
   1326000  -19.2374        24.103677      323.45137    
   1327000  -15.584547      23.047677      309.28072    
   1328000  -14.486789      19.466805      261.22839    
   1329000  -15.888719      20.27204       272.03397    
   1330000  -10.703958      16.879295      226.50615    
   1331000  -19.253897      24.484376      328.56003    
   1332000  -19.73946       26.841689      360.19321    
   1333000  -14.09914       18.165789      243.76983    
   1334000  -15.609993      20.774876      278.78161    
   1335000  -13.629282      21.153933      283.86824    
   1336000  -11.512994      21.740823      291.74382    
   1337000  -14.039407      22.589935      303.1382     
   1338000  -13.10596       25.129848      337.22173    
   1339000  -10.52016       21.043871      282.39131    
   1340000  -15.882867      24.742579      332.02491    
   1341000  -8.2665962      18.361555      246.39684    
   1342000  -13.334522      21.701616      291.2177     
   1343000  -14.660852      27.226484      365.35685    
   1344000  -12.394233      23.618565      316.94156    
   1345000  -8.9475221      22.155658      297.31056    
   1346000  -14.488304      24.324231      326.41101    
   1347000  -9.2720392      21.188248      284.32873    
   1348000  -11.148645      21.386959      286.99527    
   1349000  -13.249286      23.516593      315.57319    
   1350000  -13.488649      24.82515       333.13293    
   1351000  -7.6255445      21.083032      282.91682    
   1352000  -9.3980302      21.97748       294.91957    
   1353000  -12.929291      28.996714      389.11186    
   1354000  -13.116657      29.244346      392.43488    
   1355000  -12.76314       27.476478      368.71157    
   1356000  -11.181993      26.256465      352.33999    
   1357000  -11.092798      26.838944      360.15639    
   1358000  -7.1995318      24.832982      333.23803    
   1359000  -9.2995635      22.012119      295.38439    
   1360000  -11.945901      23.726551      318.39065    
[...]
  31736000  -10.879987      23.733744      318.48717    
  31737000  -8.5214748      20.553899      275.81628    
  31738000  -8.4755928      21.23587       284.96777    
  31739000  -9.3597103      25.291274      339.38793    
  31740000  -5.1212267      26.421038      354.54843    
  31741000  -6.5606578      27.330943      366.7586     
  31742000  -7.4298612      27.179898      364.73171    
  31743000  -8.4275483      23.014657      308.83761    
  31744000  -6.1127864      21.928126      294.25727    
  31745000  -6.0232223      17.925184      240.54111    
  31746000  -10.92344       22.763836      305.47181    
  31747000  -12.224404      20.760229      278.58507    
  31748000  -5.8655737      17.236219      231.29578    
  31749000  -7.5406633      23.28971       312.5286     
  31750000  -6.5282721      23.480285      315.08596    
  31751000  -10.709805      24.187662      324.57838    
  31752000  -7.4919944      21.293148      285.7364     
  31753000  -7.528214       23.723842      318.35429    
  31754000  -12.243345      26.016106      349.11458    
  31755000  -11.533088      25.135416      337.29645    
  31756000  -11.853212      23.132012      310.41242    
  31757000  -7.4504306      17.727337      237.88617    
  31758000  -5.4873103      17.818997      239.11617    
  31759000  -12.676587      22.590834      303.15027    
  31760000  -7.7872736      17.841658      239.42026    
  31761000  -12.925182      23.733062      318.47802    
  31762000  -8.9354374      19.810657      265.8426     
  31763000  -14.114783      24.516113      328.98592    
  31764000  -9.0143164      16.037965      215.21619    
  31765000  -11.848668      20.9914        281.68718    
  31766000  -12.656615      22.876407      306.98242    
  31767000  -12.262489      20.430399      274.15902    
  31768000  -7.5819723      17.774432      238.51814    
  31769000  -14.058397      23.351289      313.35494    
  31770000  -9.8902464      19.436605      260.82313    
  31771000  -12.797019      20.881781      280.21619    
  31772000  -12.738987      19.287935      258.82809    
  31773000  -15.081817      20.93921       280.98684    
  31774000  -16.771112      20.823088      279.42858    
  31775000  -18.425197      24.69144       331.33866    
  31776000  -18.251238      24.875006      333.80196    
  31777000  -7.3079996      13.333644      178.92645    
  31778000  -10.219113      19.790968      265.57839    
  31779000  -9.6521069      18.724738      251.27046    
  31780000  -12.633987      20.92214       280.75777    
  31781000  -12.156719      22.818139      306.20051    
  31782000  -11.816798      21.582728      289.62232    
  31783000  -4.7720804      17.870734      239.81044    
  31784000  -14.070643      26.186865      351.40601    
  31785000  -16.382166      30.15486       404.65323    
  31786000  -10.679139      24.342893      326.66145    
  31787000  -8.4766961      25.060787      336.29498    
  31788000  -11.157857      25.954676      348.29024    
  31789000  -8.4274032      24.102309      323.43301    
  31790000  -8.7798445      23.070856      309.59177    
  31791000  -13.889005      22.899949      307.29833    
  31792000  -14.196277      23.741117      318.58611    
  31793000  -16.467576      25.472808      341.82397    
  31794000  -13.464843      22.608315      303.38484    
  31795000  -10.378599      20.29487       272.34034    
  31796000  -11.511231      19.610421      263.15559    
  31797000  -11.705619      19.826583      266.05631    
  31798000  -15.163682      23.412073      314.17062    
  31799000  -16.134851      24.562494      329.6083     
  31800000  -10.711989      21.788079      292.37796    
  31801000  -15.642479      25.077252      336.51594    
  31802000  -9.5922577      20.801813      279.14308    
  31803000  -16.582218      30.937416      415.15447    
  31804000  -11.871531      22.616011      303.48812    
  31805000  -8.672157       23.677408      317.73119    
  31806000  -7.724649       25.271265      339.11943    
  31807000  -13.476374      29.614376      397.40038    
  31808000  -10.336988      24.300559      326.09336    
  31809000  -9.5422814      24.908219      334.24765    
  31810000  -7.8233247      22.613318      303.45199    
  31811000  -6.7909129      20.389131      273.60523    
  31812000  -9.2119482      24.844258      333.38935    
  31813000  -11.83707       23.205898      311.40392    
  31814000  -12.700338      22.126125      296.91425    
  31815000  -14.275741      20.750636      278.45633    
  31816000  -15.699464      23.883631      320.49853    
  31817000  -14.76605       18.726947      251.3001     
  31818000  -17.9535        22.864212      306.81877    
  31819000  -18.63405       25.294125      339.42618    
  31820000  -12.809937      19.807692      265.80281    
  31821000  -22.509666      31.677192      425.08166    
  31822000  -11.433604      20.84056       279.66304    
  31823000  -14.525181      24.479124      328.48955    
  31824000  -8.9563479      19.754033      265.08275    
  31825000  -9.623          23.305261      312.73729    
  31826000  -13.089505      24.398126      327.40263    
  31827000  -7.522402       16.070448      215.6521     
  31828000  -9.2277215      21.028199      282.181      
  31829000  -15.70331       24.000506      322.06689    
  31830000  -12.922019      25.09541       336.7596     
  31831000  -11.444157      26.103479      350.28705    
  31832000  -9.3262317      24.455311      328.17       
  31833000  -4.8625969      19.247984      258.29199    
  31834000  -6.1116851      21.155222      283.88555    
  31835000  -12.938115      27.308188      366.45324    
  31836000  -8.4943512      25.801843      346.23935    
  31837000  -12.136258      23.337337      313.16772    
  31838000  -9.2266596      20.417609      273.98739    
  31839000  -9.3163573      21.013493      281.98366    
  31840000  -6.2483012      16.827015      225.80459    
  31841000  -10.309664      22.68714       304.44261    
  31842000  -5.0276685      19.027003      255.32661    
  31843000  -12.249463      24.349506      326.75018    
  31844000  -11.318645      21.348589      286.48036    
  31845000  -14.442493      23.012466      308.80822    
  31846000  -12.510162      20.186109      270.88085    
  31847000  -11.968196      18.565008      249.12702    
  31848000  -12.093419      20.289351      272.26628    
  31849000  -13.205497      24.661684      330.93936    
  31850000  -7.7749818      19.922089      267.33792    
  31851000  -10.197958      23.549719      316.01771    
  31852000  -9.1540921      23.875837      320.39394    
  31853000  -9.6684173      22.506262      302.01538    
  31854000  -17.565874      31.707367      425.48659    
  31855000  -5.6064825      24.167269      324.30471    
  31856000  -9.1783754      25.926252      347.90881    
  31857000  -3.7626546      19.711139      264.50715    
  31858000  -14.157523      30.864066      414.17018    
  31859000  -11.080193      28.972212      388.78307    
  31860000  -10.279643      26.38348       354.04443    
  31861000  -3.4226856      23.532555      315.78738    
  31862000  -3.2601572      24.014714      322.25756    
  31863000  -5.3191918      27.336373      366.83147    
  31864000  -7.8531892      30.340108      407.1391     
  31865000  -6.1286622      28.625318      384.12803    
  31866000  -5.5508399      23.676471      317.71862    
  31867000  -6.5026955      21.111906      283.30427    
  31868000  -7.0935932      19.172438      257.27822    
  31869000  -10.184211      25.567899      343.10001    
  31870000  -12.247849      27.704181      371.76715    
  31871000  -8.1868707      23.245263      311.93216    
  31872000  -6.0882793      19.367595      259.89707    
  31873000   3.2814615      16.241518      217.94771    
  31874000  -6.0276259      26.887611      360.80945    
  31875000  -6.944855       31.915302      428.2769     
  31876000  -4.3125556      27.942491      374.96507    
  31877000  -5.7036389      31.479144      422.42402    
  31878000  -0.78956333     24.923071      334.44695    
  31879000  -4.4939973      25.394677      340.77551    
  31880000  -4.5869392      24.900972      334.1504     
  31881000  -2.6692642      21.936725      294.37267    
  31882000  -6.0932665      24.350763      326.76705    
  31883000  -1.4936988      20.355374      273.15224    
  31884000  -6.5797464      22.515772      302.143      
  31885000  -3.4786256      21.148125      283.79031    
  31886000  -5.3301845      20.978457      281.51351    
  31887000  -5.3131285      22.76487       305.48569    
  31888000  -2.4606469      23.558009      316.12895    
  31889000  -7.1661422      24.894932      334.06935    
  31890000  -9.8926328      26.786855      359.45739    
  31891000  -6.3926492      22.579799      303.00218    
  31892000  -4.0431155      22.266228      298.79433    
  31893000  -6.6502987      24.329273      326.47867    
  31894000  -2.9917343      22.42343       300.90384    
  31895000  -2.0992424      21.201487      284.50638    
  31896000  -4.1292584      25.298365      339.48309    
  31897000  -9.8591956      28.783288      386.24787    
  31898000  -2.9024829      23.030449      309.04954    
  31899000  -11.648678      33.999609      456.24656    
  31900000  -3.1063347      23.265589      312.20491    
  31901000  -7.3977095      30.211347      405.41123    
  31902000  -1.752817       26.369185      353.85261    
  31903000   0.10084833     25.123549      337.1372     
  31904000   6.4561598      23.880046      320.45043    
  31905000   1.9675015      28.287956      379.60092    
  31906000  -4.2166716      31.048849      416.64981    
  31907000  -2.2359972      23.850824      320.05829    
  31908000  -2.4106253      24.600062      330.11243    
  31909000  -1.5948948      22.178354      297.61512    
  31910000  -3.8089482      22.049213      295.88217    
  31911000  -6.0567881      26.301345      352.94224    
  31912000  -1.8981048      23.476679      315.03757    
  31913000  -5.9458301      26.060285      349.70742    
  31914000  -7.3644476      22.468801      301.51268    
  31915000  -7.293004       21.99125       295.10435    
  31916000  -6.4219633      22.952372      308.00181    
  31917000  -3.1028403      20.875566      280.13279    
  31918000  -7.2188588      25.867773      347.12407    
  31919000  -5.6512238      25.534907      342.65728    
  31920000  -8.6987966      26.585822      356.7597     
  31921000  -13.282219      29.505945      395.94532    
  31922000  -9.321533       24.945183      334.74368    
  31923000  -5.077805       21.810069      292.67304    
  31924000  -11.977037      25.66961       344.46488    
  31925000  -10.932249      22.711709      304.7723     
  31926000  -17.088505      29.756161      399.30301    
  31927000  -13.397355      25.86371       347.06955    
  31928000  -14.371218      27.646874      370.99813    
  31929000  -3.6871156      19.096378      256.25757    
  31930000  -9.5975555      25.840808      346.76223    
  31931000  -13.052857      29.760993      399.36786    
  31932000  -5.5034309      21.65633       290.61       
  31933000  -12.808085      27.990774      375.61299    
  31934000  -13.428962      24.776438      332.47927    
  31935000  -10.962132      20.918667      280.71117    
  31936000  -14.212367      24.461         328.24635    
  31937000  -11.440321      25.02691       335.84039    
  31938000  -16.94642       27.592621      370.27011    
  31939000  -9.3924682      19.728899      264.74547    
  31940000  -10.827767      18.166937      243.78523    
  31941000  -9.9451434      19.261251      258.47002    
  31942000  -8.4101769      17.782261      238.6232     
  31943000  -15.622649      28.876611      387.50019    
  31944000  -11.656606      26.229873      351.98315    
  31945000  -13.111221      26.910482      361.11636    
  31946000  -10.856901      19.673105      263.99677    
  31947000  -13.037623      20.158581      270.51145    
  31948000  -12.203182      19.361168      259.81082    
  31949000  -16.316529      20.5722        276.06187    
  31950000  -18.986344      28.286251      379.57804    
  31951000  -18.534503      23.950595      321.39714    
  31952000  -10.27829       15.581079      209.08516    
  31953000  -14.620883      20.866249      280.00777    
  31954000  -16.950646      23.988831      321.91022    
  31955000  -16.811391      21.662706      290.69555    
  31956000  -14.490072      21.135853      283.62563    
  31957000  -18.181605      22.084252      296.35236    
  31958000  -17.202322      17.01882       228.37846    
  31959000  -16.114795      20.164333      270.58863    
  31960000  -13.890306      17.3795        233.21848    
  31961000  -21.556616      21.196804      284.44354    
  31962000  -20.905785      20.077314      269.42091    
  31963000  -25.646765      25.249637      338.82919    
  31964000  -18.324808      20.109246      269.84941    
  31965000  -15.565985      18.340825      246.11867    
  31966000  -15.441841      18.763982      251.79708    
  31967000  -16.832687      21.275266      285.49643    
  31968000  -14.313692      18.660523      250.40875    
  31969000  -21.621446      25.031671      335.90428    
  31970000  -14.417812      21.749774      291.86394    
  31971000  -11.271515      20.613379      276.61446    
  31972000  -13.680812      23.874198      320.37195    
  31973000  -10.75078       24.582277      329.87378    
  31974000  -15.255571      27.261037      365.82052    
  31975000  -16.045724      30.261045      406.07814    
  31976000  -8.0096721      19.804504      265.76003    
  31977000  -9.9260078      22.50311       301.97308    
  31978000  -11.749178      21.391651      287.05822    
  31979000  -9.3286534      19.857647      266.47317    
  31980000  -10.430198      21.775331      292.2069     
  31981000  -13.025989      25.067555      336.38581    
  31982000  -14.845062      23.002559      308.67527    
  31983000  -13.030553      22.069368      296.15262    
  31984000  -7.605684       19.354018      259.71488    
  31985000  -12.631892      26.014824      349.09737    
  31986000  -11.404034      27.11826       363.90458    
  31987000  -6.3230117      21.113697      283.32831    
  31988000  -12.085402      27.04644       362.94081    
  31989000  -10.611248      27.31682       366.56908    
  31990000  -5.719778       22.405776      300.66694    
  31991000  -5.8708535      21.507099      288.60744    
  31992000  -9.4481948      22.656787      304.03531    
  31993000  -13.813311      26.983761      362.0997     
  31994000  -5.4347434      21.860676      293.35215    
  31995000  -2.4095037      19.363035      259.83589    
  31996000  -9.0964529      25.92979       347.95629    
  31997000  -6.0299551      22.78325       305.73232    
  31998000  -10.462626      24.050329      322.73548    
  31999000  -14.34471       27.822988      373.36143    
  32000000  -10.426725      20.951981      281.15821    
  32001000  -5.5895001      20.047163      269.01631    
  32002000  -9.6022013      23.489246      315.20621    
  32003000  -4.941371       20.316593      272.63184    
  32004000  -7.3296775      24.824933      333.13003    
  32005000  -4.192923       25.125288      337.16054    
  32006000  -8.0873704      30.091623      403.80464    
  32007000  -6.0657535      30.023318      402.88804    
  32008000  -6.7689713      27.440932      368.23456    
  32009000  -4.859696       28.584387      383.57878    
  32010000  -4.9128323      24.151303      324.09046    
  32011000  -5.4214082      23.297645      312.63509    
  32012000  -4.4332808      17.042991      228.70281    
  32013000  -5.5783141      21.558181      289.29291    
  32014000  -12.254655      30.675551      411.64047    
  32015000  -8.0594648      24.824253      333.1209     
  32016000  -12.214464      25.958411      348.34036    
  32017000  -6.775579       23.480713      315.0917     
  32018000  -5.8603417      18.855362      253.02332    
  32019000  -14.737152      27.502229      369.05712    
  32020000  -7.261903       22.572438      302.90341    
  32021000  -11.686764      25.345688      340.11812    
  32022000  -10.975849      26.165807      351.12345    
  32023000  -7.7247023      22.235878      298.38705    
  32024000  -11.29718       26.722846      358.59844    
  32025000  -12.833454      25.396712      340.80282    
  32026000  -8.5283031      18.64432       250.19132    
  32027000  -16.165799      26.574094      356.60231    
  32028000  -13.087348      21.773972      292.18865    
  32029000  -9.7393089      20.929079      280.8509     
  32030000  -9.1933509      20.866337      280.00895    
  32031000  -17.695907      27.567495      369.93293    
  32032000  -12.827771      21.821955      292.83255    
  32033000  -22.168507      29.26846       392.75847    
  32034000  -10.521026      17.377916      233.19723    
  32035000  -10.158288      18.940136      254.16093    
  32036000  -10.51427       17.568662      235.75688    
  32037000  -13.622374      24.136687      323.89433    
  32038000  -16.980216      24.785647      332.60283    
  32039000  -15.144181      21.714628      291.39231    
  32040000  -10.611148      19.235463      258.12397    
  32041000  -10.739737      19.73157       264.78131    
  32042000  -13.900613      22.756565      305.37423    
  32043000  -6.7728843      14.285417      191.69845    
  32044000  -15.300397      20.265827      271.95061    
  32045000  -16.520141      20.961208      281.28204    
  32046000  -18.213269      21.875979      293.55751    
  32047000  -15.887398      20.059946      269.18785    
  32048000  -19.073471      23.484691      315.14508    
  32049000  -24.161473      28.277404      379.45932    
  32050000  -18.989073      23.404646      314.07094    
  32051000  -16.875701      20.080014      269.45714    
  32052000  -10.794418      17.211522      230.96436    
  32053000  -6.8503429      17.984816      241.34133    
  32054000  -16.666424      26.603849      357.00161    
  32055000  -15.349814      24.737569      331.95768    
  32056000  -13.011077      22.23366       298.35729    
  32057000  -16.22597       23.549899      316.02012    
  32058000  -13.184644      23.834775      319.84293    
  32059000  -14.550801      22.553641      302.65116    
  32060000  -12.299991      19.878206      266.74905    
  32061000  -11.551299      20.034912      268.85191    
  32062000  -20.487113      26.47517       355.27484    
  32063000  -16.262864      21.156355      283.90075    
  32064000  -15.78434       21.475583      288.18452    
  32065000  -11.688273      18.360436      246.38183    
  32066000  -13.156868      20.317549      272.64467    
  32067000  -13.362831      21.035881      282.28409    
  32068000  -13.248537      19.600278      263.01949    
  32069000  -7.4888759      18.06058       242.35801    
  32070000  -13.403705      23.179061      311.04379    
  32071000  -14.23124       23.772336      319.00504    
  32072000  -18.233713      26.71798       358.53315    
  32073000  -11.975154      21.848233      293.18517    
  32074000  -11.583476      25.419294      341.10585    
  32075000  -7.6518507      21.895162      293.81493    
  32076000  -6.9748441      19.05076       255.64541    
  32077000  -12.229184      23.839617      319.9079     
  32078000  -13.265901      22.571038      302.88462    
  32079000  -16.454026      23.046154      309.26028    
  32080000  -16.471237      23.242724      311.89809    
srun: Job step aborted: Waiting up to 47 seconds for job step to finish.
slurmstepd: error: *** JOB 1106305 ON della-i13n25 CANCELLED AT 2025-10-01T15:21:40 DUE TO TIME LIMIT ***
slurmstepd: error: *** STEP 1106305.0 ON della-i13n25 CANCELLED AT 2025-10-01T15:21:40 DUE TO TIME LIMIT ***
