LAMMPS (29 Aug 2024)
  using 1 OpenMP thread(s) per MPI task
Reading data file ...
  orthogonal box = (-300 -300 -300) to (300 300 300)
  2 by 2 by 2 MPI processor grid
  reading atoms ...
  577 atoms
  scanning bonds ...
  1 = max bonds/atom
  scanning angles ...
  1 = max angles/atom
  orthogonal box = (-300 -300 -300) to (300 300 300)
  2 by 2 by 2 MPI processor grid
  reading bonds ...
  526 bonds
  reading angles ...
  475 angles
Finding 1-2 1-3 1-4 neighbors ...
  special bond factors lj:    0        0        1       
  special bond factors coul:  0        0        0       
     2 = max # of 1-2 neighbors
     2 = max # of 1-3 neighbors
     4 = max # of 1-4 neighbors
     6 = max # of special neighbors
  special bonds CPU = 0.000 seconds
  read_data CPU = 0.007 seconds

CITE-CITE-CITE-CITE-CITE-CITE-CITE-CITE-CITE-CITE-CITE-CITE-CITE

Your simulation uses code contributions which should be cited:
- Type Label Framework: https://doi.org/10.1021/acs.jpcb.3c08419
The log file lists these citations in BibTeX format.

CITE-CITE-CITE-CITE-CITE-CITE-CITE-CITE-CITE-CITE-CITE-CITE-CITE

Switching to 'neigh_modify every 1 delay 0 check yes' setting during minimization
Generated 0 of 6 mixed pair_coeff terms from geometric mixing rule
Neighbor list info ...
  update: every = 1 steps, delay = 0 steps, check = yes
  max neighbors/atom: 2000, page size: 100000
  master list distance cutoff = 33
  ghost atom cutoff = 33
  binsize = 16.5, bins = 37 37 37
  2 neighbor lists, perpetual/occasional/extra = 2 0 0
  (1) pair lj/cut, perpetual, trim from (2)
      attributes: half, newton on, cut 25
      pair build: trim
      stencil: none
      bin: none
  (2) pair base/rna, perpetual
      attributes: half, newton on
      pair build: half/bin/newton
      stencil: half/bin/3d
      bin: standard
Setting up cg style minimization ...
  Unit style    : real
  Current step  : 0
Per MPI rank memory allocation (min/avg/max) = 8.453 | 8.487 | 8.721 Mbytes
   Step          Temp          E_pair         E_mol          TotEng         Press     
         0   0              9402236.6      690.12822      9402926.7      11944.957    
       204   0             -126.40292      546.06798      419.66506      0.0015705412 
Loop time of 0.0148359 on 8 procs for 204 steps with 577 atoms

89.1% CPU use with 8 MPI tasks x 1 OpenMP threads

Minimization stats:
  Stopping criterion = energy tolerance
  Energy initial, next-to-last, final = 
      9402926.70736835   419.699638024901   419.665064498987
  Force two-norm initial, final = 57391218 1.423598
  Force max component initial, final = 32914479 0.29636226
  Final line search alpha, max atom move = 0.12979971 0.038467734
  Iterations, force evaluations = 204 274

MPI task timing breakdown:
Section |  min time  |  avg time  |  max time  |%varavg| %total
---------------------------------------------------------------
Pair    | 0.0036059  | 0.0049014  | 0.0062337  |   1.3 | 33.04
Bond    | 0.00031333 | 0.00067926 | 0.0010783  |   0.0 |  4.58
Neigh   | 2.734e-05  | 3.9836e-05 | 5.267e-05  |   0.0 |  0.27
Comm    | 0.0056207  | 0.0069243  | 0.0085845  |   1.2 | 46.67
Output  | 0          | 0          | 0          |   0.0 |  0.00
Modify  | 0          | 0          | 0          |   0.0 |  0.00
Other   |            | 0.002291   |            |       | 15.44

Nlocal:         72.125 ave         122 max          30 min
Histogram: 1 0 0 1 4 0 1 0 0 1
Nghost:            105 ave         132 max          86 min
Histogram: 2 1 1 1 0 0 0 1 1 1
Neighs:        200.125 ave         343 max          98 min
Histogram: 1 2 1 1 0 1 0 0 1 1

Total # of neighbors = 1601
Ave neighs/atom = 2.7746967
Ave special neighs/atom = 4.9393414
Neighbor list builds = 1
Dangerous builds = 0
Generated 0 of 6 mixed pair_coeff terms from geometric mixing rule
Setting up Verlet run ...
  Unit style    : real
  Current step  : 0
  Time step     : 10
Per MPI rank memory allocation (min/avg/max) = 7.344 | 7.378 | 7.612 Mbytes
   Step         PotEng         KinEng         TotEng          Temp          Press         Density    
         0   419.66506      515.08398      934.74904      300            0.11057823     0.0014446873 
     10000   182.69744      527.29556      709.99299      307.11238      0.059184269    0.0014446873 
     20000   226.97026      492.11272      719.08297      286.62086      0.040924457    0.0014446873 
     30000   217.61487      535.85551      753.47037      312.09795      0.0049262655   0.0014446873 
     40000   204.77043      512.88414      717.65456      298.71875      3.9556979e-05  0.0014446873 
     50000   235.38474      492.79445      728.17919      287.01793      0.0025522788   0.0014446873 
     60000   231.16977      498.08833      729.2581       290.10124      0.0012676498   0.0014446873 
     70000   198.66746      523.64132      722.30878      304.98405      0.065387148    0.0014446873 
     80000   233.35455      514.08477      747.43933      299.41803      0.079428134    0.0014446873 
     90000   228.64575      503.90054      732.54629      293.48644      0.086350459    0.0014446873 
    100000   211.47022      537.62798      749.0982       313.13029      0.021858686    0.0014446873 
    110000   215.54638      531.75132      747.2977       309.70755     -0.027276104    0.0014446873 
    120000   217.84958      512.20263      730.05221      298.32182      0.03145167     0.0014446873 
    130000   212.5894       508.06143      720.65083      295.90986     -0.09939419     0.0014446873 
    140000   223.04541      521.48049      744.5259       303.72552      0.052430368    0.0014446873 
    150000   226.72499      517.78193      744.50692      301.57137      0.0082601176   0.0014446873 
    160000   213.5648       509.48235      723.04715      296.73745     -0.039487818    0.0014446873 
    170000   203.93493      503.99391      707.92883      293.54082     -0.024747404    0.0014446873 
    180000   201.85706      508.11935      709.97641      295.9436      -0.027092596    0.0014446873 
    190000   228.18649      486.51206      714.69855      283.35888      0.025696268    0.0014446873 
    200000   206.64697      512.2397       718.88668      298.34341     -0.049184047    0.0014446873 
    210000   184.66518      524.4316       709.09678      305.44433      0.071439937    0.0014446873 
    220000   215.14094      511.467        726.60794      297.89337     -0.0072200554   0.0014446873 
    230000   189.04106      512.89201      701.93307      298.72333     -0.085221473    0.0014446873 
    240000   206.80383      518.43692      725.24075      301.95285      0.052172191    0.0014446873 
    250000   226.9854       496.20093      723.18633      289.00196     -0.022969954    0.0014446873 
    260000   205.80886      519.6922       725.50105      302.68396      0.046666312    0.0014446873 
    270000   220.62962      539.06961      759.69923      313.96994      0.018921561    0.0014446873 
    280000   193.55783      529.7078       723.26563      308.51735      0.0082628869   0.0014446873 
    290000   251.53031      500.63459      752.16491      291.58426     -0.0005692906   0.0014446873 
    300000   233.58978      500.51539      734.10517      291.51483     -0.085957321    0.0014446873 
    310000   198.47723      498.6323       697.10954      290.41806      0.059944383    0.0014446873 
    320000   230.65969      512.92454      743.58423      298.74228      0.078433067    0.0014446873 
    330000   211.4731       499.11273      710.58583      290.69788     -0.00074885155  0.0014446873 
    340000   193.44355      521.11313      714.55667      303.51155     -0.002461871    0.0014446873 
    350000   213.12199      496.12349      709.24548      288.95686      0.051410948    0.0014446873 
    360000   215.74254      534.98835      750.73089      311.59289     -0.060135799    0.0014446873 
    370000   221.29687      542.09852      763.39539      315.73406      0.068836063    0.0014446873 
    380000   191.97336      526.92004      718.89339      306.89367      0.15812325     0.0014446873 
    390000   221.0423       525.80435      746.84666      306.24386     -0.022678619    0.0014446873 
    400000   191.47148      506.68405      698.15554      295.10764     -0.033080046    0.0014446873 
    410000   191.15769      515.76047      706.91816      300.39401      0.0037122568   0.0014446873 
    420000   202.0662       522.98563      725.05184      304.60216      0.029468753    0.0014446873 
    430000   230.42986      539.18054      769.6104       314.03454      0.0337365      0.0014446873 
    440000   178.45479      474.4053       652.86009      276.30755     -0.044230967    0.0014446873 
    450000   212.84655      497.31134      710.15789      289.6487       0.025484643    0.0014446873 
    460000   181.17754      524.20051      705.37805      305.30974     -0.03642654     0.0014446873 
    470000   185.99558      522.17742      708.17299      304.13143     -0.085391257    0.0014446873 
    480000   206.3011       522.21169      728.51279      304.15139      0.060051795    0.0014446873 
    490000   206.04167      489.57097      695.61264      285.14048     -0.035509798    0.0014446873 
    500000   222.52815      503.69247      726.22062      293.36526      0.031655144    0.0014446873 
    510000   212.86391      515.54032      728.40423      300.26579      0.0058264213   0.0014446873 
    520000   208.98097      525.62067      734.60164      306.13688      0.079671992    0.0014446873 
    530000   201.1446       551.51753      752.66213      321.21997     -0.0046836093   0.0014446873 
    540000   196.47274      510.02226      706.495        297.05191     -0.0058144103   0.0014446873 
    550000   227.33163      544.01601      771.34764      316.85086     -0.0049174614   0.0014446873 
    560000   192.33477      551.8924       744.22717      321.4383       0.040538134    0.0014446873 
    570000   239.18957      494.15618      733.34575      287.81104     -0.012888395    0.0014446873 
    580000   208.69198      527.82155      736.51353      307.41874      0.086622496    0.0014446873 
    590000   207.69242      510.12177      717.81419      297.10987      0.018967874    0.0014446873 
    600000   202.05628      494.05067      696.10694      287.74958      0.081353065    0.0014446873 
    610000   193.48709      548.77924      742.26633      319.62511      0.0019453304   0.0014446873 
    620000   190.76296      487.79266      678.55562      284.10474      0.001720225    0.0014446873 
    630000   219.56056      537.87139      757.43194      313.27205     -0.026563663    0.0014446873 
    640000   192.90939      512.45632      705.3657       298.46957     -0.0016173292   0.0014446873 
    650000   212.63916      523.92598      736.56513      305.14984     -0.013866512    0.0014446873 
    660000   188.03289      496.73548      684.76838      289.3133      -0.017974051    0.0014446873 
    670000   191.28827      547.55923      738.8475       318.91454      0.084119274    0.0014446873 
    680000   198.68239      520.97685      719.65924      303.43218      0.022767559    0.0014446873 
    690000   202.39133      517.23632      719.62765      301.25359     -0.030049412    0.0014446873 
    700000   184.92702      520.72817      705.65519      303.28734      0.018548779    0.0014446873 
    710000   223.46592      497.00266      720.46858      289.46891     -0.05581791     0.0014446873 
    720000   177.12394      530.99726      708.1212       309.26836     -0.014941581    0.0014446873 
    730000   210.45309      523.47882      733.93192      304.8894       0.052759967    0.0014446873 
    740000   199.05342      502.269        701.32241      292.53618     -0.025030124    0.0014446873 
    750000   201.44491      550.47864      751.92355      320.61489     -0.026030011    0.0014446873 
    760000   221.2391       520.64878      741.88788      303.2411       0.0044214585   0.0014446873 
    770000   233.78051      501.1133       734.89381      291.86307     -0.032043876    0.0014446873 
    780000   229.11904      489.97024      719.08929      285.37303      0.10405632     0.0014446873 
    790000   201.26009      528.38191      729.642        307.74511     -0.087018139    0.0014446873 
    800000   188.1205       509.15309      697.27359      296.54568      0.0028804604   0.0014446873 
    810000   227.45611      475.69756      703.15367      277.06019      0.004154479    0.0014446873 
    820000   233.9097       496.15646      730.06616      288.97606      0.038236017    0.0014446873 
    830000   250.72887      532.01409      782.74296      309.8606       0.11742931     0.0014446873 
    840000   228.04752      521.81473      749.86226      303.92019      0.0018232511   0.0014446873 
    850000   192.75285      521.03914      713.792        303.46846     -0.0030971614   0.0014446873 
    860000   203.88265      521.08916      724.97181      303.4976      -0.034444599    0.0014446873 
    870000   214.07138      503.49458      717.56596      293.24999      0.057938883    0.0014446873 
    880000   192.36736      541.23759      733.60494      315.23263      0.051692275    0.0014446873 
    890000   221.68067      539.87318      761.55385      314.43796     -0.0032809188   0.0014446873 
    900000   204.5325       504.02914      708.56164      293.56134     -0.0096601277   0.0014446873 
    910000   206.17662      489.08059      695.25721      284.85487     -0.016384806    0.0014446873 
    920000   204.26044      484.91904      689.17948      282.43106     -0.0041112353   0.0014446873 
    930000   222.86118      519.43456      742.29574      302.5339       0.012105898    0.0014446873 
    940000   185.89646      505.52329      691.41975      294.43158      0.052998614    0.0014446873 
    950000   197.82686      524.60165      722.42851      305.54337      0.028327126    0.0014446873 
    960000   205.10021      500.09052      705.19073      291.26737     -0.052777423    0.0014446873 
    970000   223.52043      510.47246      733.99288      297.31411     -0.0047060825   0.0014446873 
    980000   216.91845      482.13995      699.0584       280.81243      0.022006153    0.0014446873 
    990000   215.90159      508.61003      724.51162      296.22938     -0.028826344    0.0014446873 
   1000000   224.26548      526.19496      750.46043      306.47136      0.010422188    0.0014446873 
   1010000   203.79144      522.60183      726.39327      304.37862      0.030621557    0.0014446873 
   1020000   212.0738       485.87285      697.94665      282.98658      0.0075716603   0.0014446873 
   1030000   209.41697      560.20602      769.62299      326.2804       0.13111143     0.0014446873 
   1040000   198.7178       507.78044      706.49824      295.74621      0.023667925    0.0014446873 
   1050000   195.81607      559.34547      755.16154      325.77919      0.014224821    0.0014446873 
   1060000   227.77672      488.6043       716.38103      284.57746      0.03479358     0.0014446873 
   1070000   184.61841      532.74014      717.35855      310.28347     -0.016476344    0.0014446873 
   1080000   210.70086      506.86542      717.56628      295.21327      0.03449171     0.0014446873 
   1090000   212.8547       526.53865      739.39335      306.67154      0.079873811    0.0014446873 
   1100000   198.72578      510.19903      708.92481      297.15486      0.029416963    0.0014446873 
   1110000   216.72344      532.3464       749.06984      310.05414      0.06661801     0.0014446873 
   1120000   213.94205      519.78969      733.73174      302.74074      0.05889997     0.0014446873 
   1130000   208.41905      494.70873      703.12778      288.13286      0.039365487    0.0014446873 
   1140000   198.25069      542.70231      740.953        316.08572      0.10905637     0.0014446873 
   1150000   193.85973      484.84638      678.70611      282.38874      0.017927016    0.0014446873 
   1160000   193.95598      552.87219      746.82817      322.00896      0.11290753     0.0014446873 
   1170000   215.29702      514.28755      729.58457      299.53614      0.0028514886   0.0014446873 
   1180000   193.30941      498.00014      691.30954      290.04987     -0.022903121    0.0014446873 
   1190000   197.57118      504.66973      702.24091      293.93444     -0.054565061    0.0014446873 
   1200000   213.8204       513.1627       726.9831       298.88099     -0.030994783    0.0014446873 
   1210000   228.25728      505.52142      733.7787       294.43049     -0.055691172    0.0014446873 
   1220000   228.37341      496.27456      724.64797      289.04484      0.023461015    0.0014446873 
   1230000   196.8944       553.5746       750.469        322.41807     -0.017279786    0.0014446873 
   1240000   194.82966      536.08224      730.91189      312.23         0.034126564    0.0014446873 
   1250000   204.60509      511.37588      715.98097      297.8403       0.014484266    0.0014446873 
   1260000   224.69107      510.29252      734.98359      297.20932     -0.072052582    0.0014446873 
   1270000   221.61275      492.73904      714.35179      286.98565     -0.043241063    0.0014446873 
   1280000   201.74424      518.79082      720.53506      302.15898      0.098125568    0.0014446873 
   1290000   216.29405      527.09315      743.3872       306.9945       0.080280033    0.0014446873 
   1300000   233.57582      550.79258      784.3684       320.79774      0.085755355    0.0014446873 
   1310000   225.08523      565.84244      790.92767      329.56321      0.063367863    0.0014446873 
   1320000   225.99587      510.24396      736.23983      297.18103      0.0015647527   0.0014446873 
   1330000   194.78632      497.17755      691.96386      289.57077      0.02515587     0.0014446873 
   1340000   194.21161      512.39401      706.60562      298.43329      0.022199673    0.0014446873 
   1350000   229.85533      535.03935      764.89468      311.62259     -0.025274487    0.0014446873 
   1360000   194.55541      489.59367      684.14908      285.1537       0.022250553    0.0014446873 
   1370000   202.35246      488.44051      690.79297      284.48206     -0.039421586    0.0014446873 
   1380000   220.415        535.04865      755.46365      311.62801      0.013365357    0.0014446873 
   1390000   220.64479      508.95736      729.60216      296.43168      0.0062231279   0.0014446873 
   1400000   208.74038      516.57011      725.31049      300.86557      0.058152848    0.0014446873 
   1410000   218.24542      503.65752      721.90295      293.3449       0.077925924    0.0014446873 
   1420000   213.99599      506.44382      720.43982      294.96772     -0.01920335     0.0014446873 
   1430000   209.80483      503.67367      713.4785       293.3543       0.089017702    0.0014446873 
   1440000   204.86706      544.11758      748.98464      316.91002     -0.060924853    0.0014446873 
   1450000   223.63576      531.63256      755.26832      309.63838     -0.022258463    0.0014446873 
   1460000   207.45288      501.93163      709.38451      292.33969      0.0060358352   0.0014446873 
   1470000   201.29762      503.36613      704.66375      293.17518     -0.017773554    0.0014446873 
   1480000   229.23071      502.01655      731.24726      292.38915     -0.00064976571  0.0014446873 
   1490000   221.27113      496.95912      718.23025      289.44355      0.020385227    0.0014446873 
   1500000   230.54611      537.24483      767.79095      312.90713     -0.012036407    0.0014446873 
   1510000   228.75167      501.60757      730.35924      292.15095      0.0016698286   0.0014446873 
   1520000   207.24775      518.50654      725.75429      301.9934      -0.049318992    0.0014446873 
   1530000   229.47308      526.429        755.90208      306.60768      0.056954803    0.0014446873 
   1540000   224.54469      503.09734      727.64204      293.01863     -0.031881193    0.0014446873 
   1550000   192.44856      488.74262      681.19118      284.65802     -0.038305939    0.0014446873 
   1560000   204.08674      497.92744      702.01418      290.00753      0.050989102    0.0014446873 
   1570000   229.30859      510.17648      739.48507      297.14173     -0.0080976434   0.0014446873 
   1580000   218.82539      561.87955      780.70494      327.25511      0.018719711    0.0014446873 
   1590000   214.25589      489.25496      703.51085      284.95643     -0.055202827    0.0014446873 
   1600000   208.32531      490.65828      698.98359      285.77376      0.01301631     0.0014446873 
   1610000   199.69531      491.88423      691.57954      286.48779      0.014475776    0.0014446873 
   1620000   174.27666      498.66825      672.94491      290.439        0.078981057    0.0014446873 
   1630000   218.01242      492.60555      710.61796      286.9079      -0.0078544794   0.0014446873 
   1640000   219.48524      522.98506      742.4703       304.60182      0.014379548    0.0014446873 
   1650000   226.03833      502.91014      728.94847      292.9096       0.075907736    0.0014446873 
   1660000   227.92591      555.55539      783.48129      323.57174      0.030863151    0.0014446873 
   1670000   215.06674      509.95172      725.01846      297.01082      0.009408651    0.0014446873 
   1680000   206.93332      538.16201      745.09533      313.44133     -0.00065147516  0.0014446873 
   1690000   207.68301      516.25862      723.94163      300.68415     -0.059461816    0.0014446873 
   1700000   230.05955      515.02204      745.08158      299.96392     -0.026588214    0.0014446873 
   1710000   200.55445      551.13012      751.68457      320.99433      0.066106374    0.0014446873 
   1720000   192.01907      500.37884      692.3979       291.4353      -0.090430599    0.0014446873 
   1730000   206.37916      535.49175      741.8709       311.88608     -0.045432805    0.0014446873 
   1740000   183.98234      500.1672       684.14954      291.31203     -0.013127523    0.0014446873 
   1750000   184.57513      508.92181      693.49694      296.41097      0.05033798     0.0014446873 
   1760000   205.17866      507.18939      712.36805      295.40196     -0.062670138    0.0014446873 
   1770000   191.2368       517.18856      708.42536      301.22577      0.017133585    0.0014446873 
   1780000   216.24058      509.6852       725.92579      296.85559      0.018319478    0.0014446873 
   1790000   199.54391      501.95194      701.49585      292.35152      0.071936959    0.0014446873 
   1800000   206.59296      527.83359      734.42654      307.42575     -0.026652356    0.0014446873 
   1810000   189.06951      511.44771      700.51722      297.88213     -0.0054445392   0.0014446873 
   1820000   192.42381      523.70131      716.12512      305.01899      0.115454       0.0014446873 
   1830000   176.90884      491.95384      668.86269      286.52833      0.055426535    0.0014446873 
   1840000   201.25058      527.43984      728.69042      307.19642     -0.033436057    0.0014446873 
   1850000   206.47889      509.71387      716.19275      296.87229      0.03583638     0.0014446873 
   1860000   187.17127      521.27455      708.44582      303.60557      0.010132119    0.0014446873 
   1870000   177.61951      506.38814      684.00765      294.93529      0.021485053    0.0014446873 
   1880000   175.73673      538.727        714.46373      313.77039     -0.011029363    0.0014446873 
   1890000   220.05328      513.3132       733.36648      298.96865     -0.046801768    0.0014446873 
   1900000   177.14289      469.07102      646.21391      273.20071     -0.02678704     0.0014446873 
   1910000   217.47281      516.15536      733.62817      300.62401      0.037585518    0.0014446873 
   1920000   198.59706      537.99193      736.58898      313.34226      0.023289035    0.0014446873 
   1930000   192.25055      498.35434      690.60489      290.25617      0.040060943    0.0014446873 
   1940000   212.61777      532.96721      745.58498      310.41572      0.053087287    0.0014446873 
   1950000   196.07591      527.5951       723.67101      307.28684     -0.00099723071  0.0014446873 
   1960000   216.54208      514.75622      731.2983       299.80911      0.09309852     0.0014446873 
   1970000   207.51393      515.03908      722.55301      299.97385      0.017831097    0.0014446873 
   1980000   202.51972      504.59393      707.11365      293.89029      0.04612776     0.0014446873 
   1990000   188.1184       501.26649      689.38488      291.95229      0.0098009946   0.0014446873 
   2000000   187.04511      485.49856      672.54368      282.76859     -0.045426489    0.0014446873 
   2010000   203.6956       499.15563      702.85123      290.72286     -0.058657822    0.0014446873 
   2020000   189.41202      509.97559      699.38761      297.02473      0.042897828    0.0014446873 
   2030000   173.20754      523.24652      696.45406      304.7541       0.036746328    0.0014446873 
   2040000   196.29341      520.27662      716.57003      303.02435      0.04420853     0.0014446873 
   2050000   186.742        515.792        702.534        300.41237      0.025764237    0.0014446873 
   2060000   185.98456      485.32408      671.30864      282.66696      0.023167819    0.0014446873 
   2070000   201.93107      513.62644      715.5575       299.15109      0.052106605    0.0014446873 
   2080000   208.52527      521.61973      730.14501      303.80662     -5.8600475e-05  0.0014446873 
   2090000   211.06457      488.29481      699.35938      284.39721     -0.010396743    0.0014446873 
   2100000   167.8522       512.72302      680.57521      298.62491      0.092202126    0.0014446873 
   2110000   220.29952      498.52245      718.82197      290.35408     -0.038824091    0.0014446873 
   2120000   210.15476      522.00678      732.16154      304.03204      0.034793071    0.0014446873 
   2130000   212.88663      507.54745      720.43407      295.61051      0.012596405    0.0014446873 
   2140000   197.18702      488.25635      685.44337      284.3748       0.060782426    0.0014446873 
   2150000   193.90396      489.25171      683.15567      284.95453     -0.033505962    0.0014446873 
   2160000   202.61359      507.47676      710.09035      295.56933     -0.02631824     0.0014446873 
   2170000   181.17996      555.66662      736.84658      323.63652     -0.019713489    0.0014446873 
   2180000   196.42119      493.66216      690.08335      287.5233       0.0067975211   0.0014446873 
   2190000   201.56964      495.81497      697.38461      288.77717      0.05860812     0.0014446873 
   2200000   188.93707      547.8488       736.78588      319.0832       0.062750615    0.0014446873 
   2210000   190.83282      499.89223      690.72505      291.15188      0.02622636     0.0014446873 
   2220000   206.88855      512.61896      719.50751      298.5643      -0.056649684    0.0014446873 
   2230000   193.15348      469.43647      662.58996      273.41356     -0.030970823    0.0014446873 
   2240000   170.29008      544.27902      714.5691       317.00405      0.041964636    0.0014446873 
   2250000   199.18927      488.37785      687.56712      284.44557     -0.081842204    0.0014446873 
   2260000   200.08827      507.81846      707.90673      295.76835      0.00074777143  0.0014446873 
   2270000   219.13465      516.49004      735.62469      300.81893     -0.067491267    0.0014446873 
   2280000   203.10107      504.63604      707.73711      293.91482      0.015494648    0.0014446873 
   2290000   238.15491      504.56619      742.7211       293.87413     -0.0029846456   0.0014446873 
   2300000   179.72977      521.3809       701.11067      303.66751      0.0012166521   0.0014446873 
   2310000   200.747        511.57252      712.31952      297.95482      0.019646441    0.0014446873 
   2320000   191.58848      543.48661      735.07509      316.54253      0.00048701018  0.0014446873 
   2330000   186.86414      530.90675      717.77089      309.21565      0.033733568    0.0014446873 
   2340000   204.66449      515.87686      720.54134      300.4618      -0.0070048656   0.0014446873 
   2350000   179.68651      485.85599      665.5425       282.97676      0.044008739    0.0014446873 
   2360000   169.13642      523.97373      693.11016      305.17765      0.012823478    0.0014446873 
   2370000   183.16137      511.30624      694.46762      297.79974      0.019739336    0.0014446873 
   2380000   203.29989      492.51502      695.81491      286.85518     -0.064660056    0.0014446873 
   2390000   190.38322      482.98216      673.36538      281.30296      0.0052668159   0.0014446873 
   2400000   196.98657      487.68649      684.67305      284.0429       0.018544738    0.0014446873 
   2410000   221.59806      512.37216      733.97022      298.42056      0.00078530137  0.0014446873 
   2420000   180.46228      525.08088      705.54316      305.82249      0.13240484     0.0014446873 
   2430000   227.01961      527.68311      754.70272      307.33811      0.055687625    0.0014446873 
   2440000   195.04408      529.51021      724.55428      308.40226     -0.029102201    0.0014446873 
   2450000   226.33473      487.15833      713.49306      283.73528      0.020344388    0.0014446873 
   2460000   209.50872      527.47692      736.98564      307.21801      0.054268547    0.0014446873 
   2470000   201.60461      508.08785      709.69246      295.92525      0.049624313    0.0014446873 
   2480000   196.62236      534.92323      731.54559      311.55496      0.02340399     0.0014446873 
   2490000   195.96798      525.92891      721.89689      306.31641      0.066456664    0.0014446873 
   2500000   198.83224      531.07123      729.90347      309.31144      0.00035669544  0.0014446873 
   2510000   198.5566       502.5061       701.06269      292.67428     -0.064012326    0.0014446873 
   2520000   213.44635      572.63024      786.07659      333.51663      0.1112242      0.0014446873 
   2530000   181.92291      486.20453      668.12744      283.17976     -0.00047950829  0.0014446873 
   2540000   189.32498      512.35986      701.68484      298.4134       0.072035375    0.0014446873 
   2550000   168.87522      522.03597      690.91119      304.04905      0.012990787    0.0014446873 
   2560000   182.95477      538.5983       721.55308      313.69543     -0.026672129    0.0014446873 
   2570000   203.81261      486.41037      690.22299      283.29965      0.058664714    0.0014446873 
   2580000   199.66146      490.21334      689.8748       285.51461     -0.10667472     0.0014446873 
   2590000   210.29881      535.98984      746.28865      312.17619      0.020318867    0.0014446873 
   2600000   172.82299      536.07204      708.89503      312.22407     -0.055983868    0.0014446873 
   2610000   181.01141      532.88668      713.89809      310.36882      0.058710816    0.0014446873 
   2620000   190.19813      516.92501      707.12314      301.07227     -0.037724342    0.0014446873 
   2630000   199.81731      534.31492      734.13223      311.20066      0.016680053    0.0014446873 
   2640000   181.32467      507.61108      688.93575      295.64757      0.039833981    0.0014446873 
   2650000   167.52619      521.16002      688.68621      303.53887      0.04805276     0.0014446873 
   2660000   193.35725      509.15134      702.50859      296.54466      0.080872366    0.0014446873 
   2670000   192.22992      500.31655      692.54647      291.39902      0.04407268     0.0014446873 
   2680000   195.32653      501.85926      697.18579      292.29754     -0.021027103    0.0014446873 
   2690000   202.37507      520.27425      722.64932      303.02297      0.052024739    0.0014446873 
   2700000   205.61043      514.318        719.92843      299.55387      0.019547542    0.0014446873 
   2710000   195.41351      504.89916      700.31267      294.06806      0.00053536712  0.0014446873 
   2720000   207.25684      537.97827      745.23511      313.33431     -0.033082739    0.0014446873 
   2730000   196.25287      514.94583      711.1987       299.91954     -0.020957782    0.0014446873 
   2740000   186.34315      549.58372      735.92687      320.09366      0.17985563     0.0014446873 
   2750000   185.44274      514.92479      700.36753      299.90728     -0.0025170435   0.0014446873 
   2760000   193.63398      510.85678      704.49075      297.53795      0.0021523584   0.0014446873 
   2770000   210.73566      503.0169       713.75256      292.97178      0.025801208    0.0014446873 
   2780000   202.90471      475.50307      678.40778      276.94692      0.020820719    0.0014446873 
   2790000   212.55604      524.58248      737.13852      305.53221      0.030674319    0.0014446873 
   2800000   228.28914      514.29249      742.58163      299.53902      0.0011033055   0.0014446873 
   2810000   186.09359      501.98182      688.07542      292.36892     -0.0034126896   0.0014446873 
   2820000   197.56262      516.72436      714.28698      300.95541     -0.039945863    0.0014446873 
   2830000   192.396        529.36408      721.76008      308.31715     -0.050854546    0.0014446873 
   2840000   224.15702      502.13118      726.28821      292.45591      0.033755831    0.0014446873 
   2850000   206.11713      506.04911      712.16624      294.73783     -0.013800315    0.0014446873 
   2860000   164.72321      546.91093      711.63415      318.53695      0.041768407    0.0014446873 
   2870000   180.32996      508.36945      688.69941      296.08926      0.03244998     0.0014446873 
   2880000   209.75607      552.44228      762.19835      321.75857      0.027903803    0.0014446873 
   2890000   191.50424      513.64131      705.14555      299.15975     -0.043296248    0.0014446873 
   2900000   181.39633      521.64458      703.04091      303.82109     -0.021440985    0.0014446873 
   2910000   211.72597      502.05822      713.78419      292.41342      0.074125104    0.0014446873 
   2920000   204.75254      515.7028       720.45534      300.36042      0.059684303    0.0014446873 
   2930000   227.13961      527.51052      754.65013      307.23758      0.038787946    0.0014446873 
   2940000   218.63508      532.92998      751.56506      310.39403      0.0055479392   0.0014446873 
   2950000   194.42877      495.90611      690.33488      288.83025      0.082816531    0.0014446873 
   2960000   197.19353      523.84962      721.04315      305.10537      0.067252016    0.0014446873 
   2970000   198.01642      507.54245      705.55887      295.6076       0.062974964    0.0014446873 
   2980000   204.72944      504.87294      709.60239      294.05279     -0.068026       0.0014446873 
   2990000   182.42448      500.51913      682.94361      291.51701      0.0151617      0.0014446873 
   3000000   220.63338      508.65452      729.2879       296.2553      -0.018899382    0.0014446873 
   3010000   223.33737      521.50489      744.84226      303.73973      0.06447461     0.0014446873 
   3020000   195.11902      523.28009      718.39911      304.77366      0.015257723    0.0014446873 
   3030000   196.40021      507.7855       704.18571      295.74916      0.056607547    0.0014446873 
   3040000   174.458        506.06941      680.52741      294.74965     -0.0027210204   0.0014446873 
   3050000   213.13025      529.75259      742.88285      308.54343      0.030181609    0.0014446873 
   3060000   210.28573      520.7136       730.99934      303.27886      0.04509777     0.0014446873 
   3070000   207.95704      530.8568       738.81384      309.18656      0.051056472    0.0014446873 
   3080000   219.16211      514.53462      733.69672      299.68004     -0.012986496    0.0014446873 
   3090000   222.72758      501.94975      724.67733      292.35024      0.010562994    0.0014446873 
   3100000   221.59933      501.43388      723.03322      292.04979      0.01707372     0.0014446873 
   3110000   203.88195      503.69521      707.57717      293.36685     -0.01532624     0.0014446873 
   3120000   220.97913      525.92495      746.90408      306.3141      -0.044724891    0.0014446873 
   3130000   210.86299      525.86591      736.7289       306.27971      0.038349449    0.0014446873 
   3140000   218.12236      550.20251      768.32487      320.45406      0.004078005    0.0014446873 
   3150000   197.44559      550.11235      747.55794      320.40155      0.064162023    0.0014446873 
   3160000   187.41858      512.83805      700.25663      298.69191     -0.070788817    0.0014446873 
   3170000   180.06149      521.15124      701.21273      303.53375     -0.023475597    0.0014446873 
   3180000   227.19073      469.308        696.49873      273.33873     -0.0078778207   0.0014446873 
   3190000   210.276        514.78117      725.05717      299.82364     -0.028243389    0.0014446873 
   3200000   215.29921      491.06352      706.36273      286.00978     -0.065697438    0.0014446873 
   3210000   184.79953      496.14916      680.94869      288.97181      0.014943956    0.0014446873 
   3220000   191.24576      507.00683      698.25259      295.29563     -0.084071822    0.0014446873 
   3230000   191.2643       538.09122      729.35552      313.40009      0.080945248    0.0014446873 
   3240000   206.00378      498.15304      704.15682      290.13893      0.02726621     0.0014446873 
   3250000   202.09266      515.38392      717.47658      300.17469     -0.0058807133   0.0014446873 
   3260000   198.96457      516.93426      715.89883      301.07766     -0.0049819238   0.0014446873 
   3270000   217.81356      494.57639      712.38995      288.05578      0.013020744    0.0014446873 
   3280000   226.73469      506.17483      732.90952      294.81105     -0.038445237    0.0014446873 
   3290000   181.37328      493.17378      674.54706      287.23886      0.0062049517   0.0014446873 
   3300000   211.33871      500.65851      711.99722      291.59818     -0.013834163    0.0014446873 
   3310000   206.87347      506.87361      713.74708      295.21804     -0.11365217     0.0014446873 
   3320000   197.11464      492.6235       689.73814      286.91836     -0.0027252094   0.0014446873 
   3330000   206.26956      509.7827       716.05227      296.91238     -0.0089604389   0.0014446873 
   3340000   195.49187      541.42941      736.92128      315.34435      0.023448716    0.0014446873 
   3350000   202.75456      518.40798      721.16255      301.936        0.05043179     0.0014446873 
   3360000   199.93103      507.90871      707.83974      295.82092      0.066506378    0.0014446873 
   3370000   199.86745      526.62446      726.49191      306.72152     -0.026845537    0.0014446873 
   3380000   215.09332      504.55407      719.64739      293.86708     -0.098703794    0.0014446873 
   3390000   206.84459      490.28265      697.12724      285.55498     -0.014519487    0.0014446873 
   3400000   187.27164      511.13962      698.41126      297.70269      0.015435866    0.0014446873 
   3410000   192.49929      504.91025      697.40954      294.07453     -0.062808182    0.0014446873 
   3420000   184.98017      542.89778      727.87795      316.19957     -0.0084548627   0.0014446873 
   3430000   188.54279      528.86054      717.40334      308.02388      0.019589758    0.0014446873 
   3440000   214.25499      556.7816       771.03659      324.28592     -0.0031318582   0.0014446873 
   3450000   187.15067      505.39175      692.54242      294.35496      0.052220367    0.0014446873 
   3460000   235.05794      527.63423      762.69217      307.30963      0.021527822    0.0014446873 
   3470000   202.2838       512.21916      714.50296      298.33145      0.030623575    0.0014446873 
   3480000   174.5614       535.65179      710.21319      311.9793       0.020170013    0.0014446873 
   3490000   171.3224       492.09056      663.41296      286.60796      0.079474743    0.0014446873 
   3500000   178.55734      502.83236      681.3897       292.8643      -0.025638414    0.0014446873 
   3510000   201.01158      487.71447      688.72604      284.0592      -0.0076866259   0.0014446873 
   3520000   160.70878      526.76156      687.47034      306.80137      0.055886718    0.0014446873 
   3530000   176.65136      520.97795      697.62931      303.43282      0.0075610428   0.0014446873 
   3540000   227.79295      510.85919      738.65214      297.53936     -0.047616259    0.0014446873 
   3550000   211.08269      500.20294      711.28563      291.33285      0.059232783    0.0014446873 
   3560000   186.63981      504.45867      691.09848      293.81151      0.064969454    0.0014446873 
   3570000   197.89625      518.51808      716.41434      302.00012      0.05455854     0.0014446873 
   3580000   201.02168      497.11934      698.14102      289.53687     -0.024418372    0.0014446873 
   3590000   223.35186      505.45196      728.80381      294.39003      0.052471042    0.0014446873 
   3600000   189.34795      512.36228      701.71023      298.4148      -0.013608567    0.0014446873 
   3610000   183.01136      534.30611      717.31747      311.19553      0.038643867    0.0014446873 
   3620000   214.5274       450.59287      665.12026      262.43849     -0.0032703179   0.0014446873 
   3630000   215.47868      513.53134      729.01001      299.0957       0.034390619    0.0014446873 
   3640000   193.64829      502.93689      696.58519      292.92518      0.015619202    0.0014446873 
   3650000   194.13812      532.78274      726.92086      310.30828     -0.058164664    0.0014446873 
   3660000   175.33833      488.23534      663.57367      284.36257     -0.065586167    0.0014446873 
   3670000   206.9365       490.50652      697.44302      285.68537     -0.11043519     0.0014446873 
   3680000   184.08897      553.20059      737.28956      322.20023      0.065056751    0.0014446873 
   3690000   189.79737      554.68574      744.48311      323.06523      0.049030772    0.0014446873 
   3700000   213.88224      522.89382      736.77606      304.54868     -0.034658145    0.0014446873 
   3710000   193.68693      517.28463      710.97156      301.28172     -0.017205355    0.0014446873 
   3720000   186.42637      516.16794      702.59431      300.63133     -0.0051020552   0.0014446873 
   3730000   165.7907       519.95644      685.74715      302.83787      0.099375219    0.0014446873 
   3740000   210.49384      523.8287       734.32253      305.09318     -0.09145079     0.0014446873 
   3750000   213.33079      526.86397      740.19476      306.86101     -0.041843902    0.0014446873 
   3760000   200.75337      507.01407      707.76744      295.29985      0.046889113    0.0014446873 
   3770000   187.87834      525.93243      713.81077      306.31846      0.070427429    0.0014446873 
   3780000   213.89728      477.73517      691.63245      278.24696      0.004875232    0.0014446873 
   3790000   207.69613      531.12866      738.82479      309.34489     -0.063197926    0.0014446873 
   3800000   206.76141      536.33022      743.09163      312.37444     -0.01253916     0.0014446873 
   3810000   244.12254      495.37479      739.49734      288.52079     -0.014419527    0.0014446873 
   3820000   189.10104      514.74731      703.84835      299.80392      0.061334318    0.0014446873 
   3830000   211.97671      522.78431      734.76103      304.4849      -0.055761673    0.0014446873 
   3840000   199.89602      513.26507      713.16109      298.94062     -0.011504521    0.0014446873 
   3850000   220.39084      524.11757      744.50841      305.26143      0.016352332    0.0014446873 
   3860000   193.90328      499.9602       693.86348      291.19147      0.023017678    0.0014446873 
   3870000   187.81213      534.88464      722.69678      311.53249      0.028431708    0.0014446873 
   3880000   205.08135      508.38754      713.46889      296.0998      -6.8449015e-05  0.0014446873 
   3890000   165.98732      531.25785      697.24517      309.42014      0.074626068    0.0014446873 
   3900000   208.18852      498.45253      706.64105      290.31336      0.035952914    0.0014446873 
   3910000   208.95241      488.31035      697.26276      284.40625     -0.016784702    0.0014446873 
   3920000   197.37147      473.91298      671.28444      276.0208      -0.055306648    0.0014446873 
   3930000   199.13961      525.76562      724.90523      306.2213       0.01016871     0.0014446873 
   3940000   191.01406      512.50776      703.52182      298.49953      0.053809934    0.0014446873 
   3950000   193.19567      485.93422      679.12989      283.02233     -0.040581809    0.0014446873 
   3960000   202.84242      517.5019       720.34432      301.40827      0.02954965     0.0014446873 
   3970000   183.08755      497.03334      680.1209       289.48678     -0.033527644    0.0014446873 
   3980000   199.15602      530.43565      729.59167      308.94127      0.033789369    0.0014446873 
   3990000   175.42679      526.89859      702.32538      306.88118      0.063945189    0.0014446873 
   4000000   183.27117      528.45772      711.72889      307.78926      0.035265196    0.0014446873 
   4010000   203.68505      498.25643      701.94147      290.19914      0.007531973    0.0014446873 
   4020000   176.08477      522.61887      698.70364      304.38854      0.026734557    0.0014446873 
   4030000   185.40597      527.03505      712.44102      306.96065      0.016345578    0.0014446873 
   4040000   194.56897      506.93671      701.50568      295.25479      0.0064361718   0.0014446873 
   4050000   182.21051      526.53732      708.74783      306.67076      0.029310415    0.0014446873 
   4060000   172.95286      470.80493      643.75779      274.21059      0.047473443    0.0014446873 
   4070000   165.67885      530.57646      696.25531      309.02327      0.039192414    0.0014446873 
   4080000   183.89339      474.67691      658.5703       276.46574      0.1027243      0.0014446873 
   4090000   217.27961      518.41716      735.69676      301.94134      0.00638631     0.0014446873 
   4100000   199.21046      491.52057      690.73103      286.27598      0.09440276     0.0014446873 
   4110000   165.3932       494.25625      659.64944      287.86932     -0.0091499339   0.0014446873 
   4120000   211.50575      528.0675       739.57326      307.56199     -0.058534548    0.0014446873 
   4130000   174.74852      514.61012      689.35864      299.72401     -0.029305423    0.0014446873 
   4140000   198.16232      517.07746      715.23977      301.16106     -0.018171107    0.0014446873 
   4150000   210.44772      513.01068      723.4584       298.79245      0.027605959    0.0014446873 
   4160000   184.14009      503.54248      687.68257      293.2779       0.06069487     0.0014446873 
   4170000   186.0663       513.9677       700.034        299.34985     -0.053261802    0.0014446873 
   4180000   202.24685      524.7013       726.94815      305.60141     -0.036403454    0.0014446873 
   4190000   222.97922      514.03308      737.0123       299.38793      0.021276312    0.0014446873 
   4200000   204.99454      553.458        758.45255      322.35016      0.0007473298   0.0014446873 
   4210000   190.93816      518.292        709.23016      301.86845      0.074911266    0.0014446873 
   4220000   227.19241      505.45262      732.64503      294.39042      0.016791298    0.0014446873 
   4230000   189.28093      510.19762      699.47856      297.15405      0.024756701    0.0014446873 
   4240000   202.34818      498.08736      700.43554      290.10067      0.018665344    0.0014446873 
   4250000   202.92085      517.29894      720.21978      301.29006     -0.0082458088   0.0014446873 
   4260000   170.75051      527.99218      698.74269      307.51811      0.0071662103   0.0014446873 
   4270000   189.82409      510.28692      700.11101      297.20606      0.053727267    0.0014446873 
   4280000   208.86412      534.21907      743.08319      311.14484      0.01992312     0.0014446873 
   4290000   197.47847      492.59288      690.07135      286.90053     -0.032914591    0.0014446873 
   4300000   171.84884      514.09163      685.94046      299.42203      0.10495822     0.0014446873 
   4310000   170.04892      490.52629      660.57521      285.69688      0.035401862    0.0014446873 
   4320000   187.48143      501.91557      689.397        292.33033     -0.024815758    0.0014446873 
   4330000   182.73935      510.31305      693.0524       297.22127      0.048906832    0.0014446873 
   4340000   201.1745       524.11983      725.29433      305.26275     -0.045944665    0.0014446873 
   4350000   202.46441      514.36743      716.83184      299.58266      0.035118535    0.0014446873 
   4360000   212.15916      508.89526      721.05442      296.39551      0.10329962     0.0014446873 
   4370000   169.41462      474.52657      643.9412       276.37818      0.023088926    0.0014446873 
   4380000   206.65114      532.26706      738.9182       310.00793      0.039660481    0.0014446873 
   4390000   181.8198       510.79101      692.61081      297.49965      0.041650306    0.0014446873 
   4400000   201.09624      532.17936      733.27561      309.95685     -0.011390058    0.0014446873 
   4410000   182.92198      504.7368       687.65878      293.9735       0.0084686926   0.0014446873 
   4420000   186.29004      521.56466      707.85471      303.77454     -0.039774403    0.0014446873 
   4430000   179.00995      528.77771      707.78766      307.97563      0.073691946    0.0014446873 
   4440000   174.60795      542.59155      717.1995       316.02122      0.037380775    0.0014446873 
   4450000   176.50799      495.99187      672.49987      288.8802       0.089454489    0.0014446873 
   4460000   201.81515      503.29553      705.11068      293.13406     -0.0031691914   0.0014446873 
   4470000   169.33199      506.18288      675.51487      294.81574      0.027816472    0.0014446873 
   4480000   193.5707       515.54964      709.12034      300.27122     -0.02666776     0.0014446873 
   4490000   184.22448      513.42337      697.64785      299.03281      0.025812988    0.0014446873 
   4500000   182.43473      508.35661      690.79134      296.08178     -0.027156781    0.0014446873 
   4510000   202.21091      542.51608      744.72699      315.97726      0.043574234    0.0014446873 
   4520000   175.64317      516.54641      692.18957      300.85176      0.053317463    0.0014446873 
   4530000   203.05126      503.12902      706.18028      293.03708     -0.061489468    0.0014446873 
   4540000   179.81334      494.72116      674.5345       288.1401       0.043095673    0.0014446873 
   4550000   169.26266      521.03987      690.30253      303.46888     -0.091136401    0.0014446873 
   4560000   184.11772      534.54035      718.65807      311.33196      0.093140803    0.0014446873 
   4570000   194.93136      517.53235      712.4637       301.426       -0.032019337    0.0014446873 
   4580000   207.56084      544.36881      751.92964      317.05634      0.0074277089   0.0014446873 
   4590000   211.18698      521.07994      732.26692      303.49223      0.026343613    0.0014446873 
   4600000   174.94419      494.47016      669.41436      287.99391     -0.030932459    0.0014446873 
   4610000   186.47781      499.12207      685.59988      290.70332     -0.05345341     0.0014446873 
   4620000   164.61331      508.76736      673.38066      296.32102     -0.04564937     0.0014446873 
   4630000   163.19463      526.75186      689.94649      306.79572     -0.055513648    0.0014446873 
   4640000   182.61889      553.00807      735.62696      322.0881       0.0098465445   0.0014446873 
   4650000   172.70314      485.19138      657.89452      282.58967      0.018017472    0.0014446873 
   4660000   153.39844      523.26236      676.6608       304.76333     -0.0076184474   0.0014446873 
   4670000   181.57798      518.06204      699.64002      301.73451      0.0086717396   0.0014446873 
   4680000   172.47338      506.28712      678.7605       294.87646     -0.11421342     0.0014446873 
   4690000   172.10853      530.37486      702.48339      308.90586      0.04496245     0.0014446873 
   4700000   186.01083      495.18818      681.19902      288.41211     -0.057045866    0.0014446873 
   4710000   147.09946      509.23391      656.33337      296.59275      0.099613117    0.0014446873 
   4720000   154.40744      502.90028      657.30772      292.90386      0.0052870118   0.0014446873 
   4730000   148.8429       507.22651      656.06941      295.42358     -0.0026640285   0.0014446873 
   4740000   171.40168      525.8926       697.29428      306.29526     -0.039516766    0.0014446873 
   4750000   176.89913      524.20785      701.10698      305.31401     -0.0073193815   0.0014446873 
   4760000   195.27803      526.76051      722.03854      306.80076     -0.012252731    0.0014446873 
   4770000   218.14649      519.39262      737.53911      302.50948      0.0063818505   0.0014446873 
   4780000   142.19213      497.41965      639.61178      289.71178      0.037396921    0.0014446873 
   4790000   176.9868       498.03511      675.0219       290.07024     -0.063572377    0.0014446873 
   4800000   156.24273      487.78283      644.02556      284.09901     -0.10279498     0.0014446873 
   4810000   163.43893      512.99473      676.43366      298.78316      0.096407068    0.0014446873 
   4820000   148.18041      471.62414      619.80455      274.68772     -0.026427174    0.0014446873 
   4830000   167.66388      501.44686      669.11075      292.05734     -0.028273619    0.0014446873 
   4840000   184.35931      531.17112      715.53044      309.36963      0.039292293    0.0014446873 
   4850000   176.42489      515.73727      692.16215      300.38049     -0.00020946441  0.0014446873 
   4860000   149.58919      524.66425      674.25344      305.57983     -0.010884423    0.0014446873 
   4870000   166.18938      497.86662      664.056        289.97211     -0.0098765166   0.0014446873 
   4880000   149.5665       501.03813      650.60463      291.81929     -0.0043817457   0.0014446873 
   4890000   187.667        539.62717      727.29417      314.29468     -0.017373971    0.0014446873 
   4900000   169.79071      511.03173      680.82244      297.63985     -0.011725273    0.0014446873 
   4910000   183.37116      531.65041      715.02157      309.64878      0.10946622     0.0014446873 
   4920000   183.04407      497.47216      680.51623      289.74236     -0.066947022    0.0014446873 
   4930000   197.12241      512.25686      709.37926      298.3534       0.034821755    0.0014446873 
   4940000   192.94213      525.51338      718.45551      306.07439     -0.047810439    0.0014446873 
   4950000   182.90102      514.39477      697.29579      299.59859      0.041563378    0.0014446873 
   4960000   156.7398       509.88325      666.62305      296.97094     -0.01768387     0.0014446873 
   4970000   169.97042      507.18864      677.15907      295.40153     -0.074215453    0.0014446873 
   4980000   165.32298      529.94645      695.26944      308.65634      0.023105374    0.0014446873 
   4990000   192.49754      547.09656      739.5941       318.64507      0.060343567    0.0014446873 
   5000000   183.23419      494.03645      677.27064      287.7413      -0.020240492    0.0014446873 
Loop time of 301.56 on 8 procs for 5000000 steps with 577 atoms

Performance: 14325.513 ns/day, 0.002 hours/ns, 16580.455 timesteps/s, 9.567 Matom-step/s
99.4% CPU use with 8 MPI tasks x 1 OpenMP threads

MPI task timing breakdown:
Section |  min time  |  avg time  |  max time  |%varavg| %total
---------------------------------------------------------------
Pair    | 66.719     | 95.905     | 142.8      | 265.5 | 31.80
Bond    | 5.113      | 12.04      | 18.784     | 109.4 |  3.99
Neigh   | 0.73771    | 0.8406     | 0.91843    |   8.2 |  0.28
Comm    | 133.34     | 182.23     | 212.31     | 210.4 | 60.43
Output  | 0.063084   | 0.075584   | 0.14535    |   9.6 |  0.03
Modify  | 3.6016     | 7.4193     | 11.258     |  77.1 |  2.46
Other   |            | 3.047      |            |       |  1.01

Nlocal:         72.125 ave         113 max          31 min
Histogram: 2 1 0 0 0 1 1 2 0 1
Nghost:         82.875 ave         114 max          31 min
Histogram: 1 0 0 0 1 1 0 3 1 1
Neighs:        227.625 ave         767 max          44 min
Histogram: 2 3 1 1 0 0 0 0 0 1

Total # of neighbors = 1821
Ave neighs/atom = 3.1559792
Ave special neighs/atom = 4.9393414
Neighbor list builds = 9726
Dangerous builds = 0
Generated 0 of 6 mixed pair_coeff terms from geometric mixing rule
Setting up Verlet run ...
  Unit style    : real
  Current step  : 5000000
  Time step     : 10
Per MPI rank memory allocation (min/avg/max) = 8.609 | 8.778 | 8.879 Mbytes
   Step         PotEng         KinEng         TotEng          Temp          Press         Density    
   5000000   183.23419      494.03645      677.27064      287.7413      -0.020240492    0.0014446873 
   5010000   165.74413      501.54378      667.2879       292.11379      0.020510906    0.0014446873 
   5020000   162.55414      496.97846      659.5326       289.45482      0.052027183    0.0014446873 
   5030000   225.88166      521.05389      746.93555      303.47705      0.043576347    0.0014446873 
   5040000   221.10547      512.68952      733.79499      298.6054      -0.0058997658   0.0014446873 
   5050000   191.81617      499.52779      691.34396      290.93962     -0.014100713    0.0014446873 
   5060000   208.08326      514.76025      722.84352      299.81145     -0.021838106    0.0014446873 
   5070000   220.39509      527.97479      748.36987      307.50799     -0.13656651     0.0014446873 
   5080000   186.64604      512.44737      699.09341      298.46436      0.022489315    0.0014446873 
   5090000   194.67244      557.31427      751.98672      324.59616     -0.012074953    0.0014446873 
   5100000   200.5784       548.11849      748.69689      319.24027     -0.042317104    0.0014446873 
   5110000   176.51798      515.73435      692.25233      300.3788      -0.075056225    0.0014446873 
   5120000   204.79281      492.91037      697.70318      287.08544     -0.032861488    0.0014446873 
   5130000   189.59045      521.40409      710.99454      303.68102      0.066743425    0.0014446873 
   5140000   206.12448      480.83131      686.95579      280.05024     -0.10630476     0.0014446873 
   5150000   220.78272      559.3961       780.17882      325.80868      0.069409755    0.0014446873 
   5160000   205.71301      531.92553      737.63853      309.80901      0.081307818    0.0014446873 
   5170000   211.57543      500.82211      712.39754      291.69347     -0.027200679    0.0014446873 
   5180000   198.55682      513.90488      712.46171      299.31326     -0.041974186    0.0014446873 
   5190000   200.60689      501.44576      702.05266      292.0567       0.0064179927   0.0014446873 
   5200000   196.92852      503.14994      700.07846      293.04927      0.010893535    0.0014446873 
   5210000   204.92902      496.54484      701.47386      289.20226      0.072027577    0.0014446873 
   5220000   218.10094      520.67774      738.77869      303.25797      0.062242378    0.0014446873 
   5230000   219.38403      515.24124      734.62527      300.09159     -0.025728674    0.0014446873 
   5240000   215.64688      526.78616      742.43304      306.8157       0.0078210365   0.0014446873 
   5250000   213.41167      506.19462      719.60629      294.82258      0.058224814    0.0014446873 
   5260000   219.81394      496.23269      716.04663      289.02046     -0.035981435    0.0014446873 
   5270000   202.52328      516.10515      718.62843      300.59476      0.033429629    0.0014446873 
   5280000   220.15966      520.42636      740.58602      303.11156      0.078821569    0.0014446873 
   5290000   192.07291      502.08083      694.15375      292.42659     -0.015224493    0.0014446873 
   5300000   232.74782      499.86418      732.612        291.13555     -0.095631117    0.0014446873 
   5310000   178.17859      492.81378      670.99238      287.02919     -0.06961723     0.0014446873 
   5320000   177.29694      527.32608      704.62302      307.13016      0.1291935      0.0014446873 
   5330000   201.64156      504.58392      706.22548      293.88446     -0.057847158    0.0014446873 
   5340000   205.27432      524.36638      729.6407       305.40635     -0.0150368      0.0014446873 
   5350000   178.60691      546.93448      725.54139      318.55066     -0.075910139    0.0014446873 
   5360000   207.54638      514.57932      722.1257       299.70608     -0.060382342    0.0014446873 
   5370000   205.94834      504.1541       710.10244      293.63412     -0.021582539    0.0014446873 
   5380000   236.50447      501.13156      737.63603      291.8737       0.11072495     0.0014446873 
   5390000   217.12529      515.57986      732.70515      300.28882      0.00011131322  0.0014446873 
   5400000   209.58011      531.18242      740.76253      309.37621     -0.069110018    0.0014446873 
   5410000   202.21466      515.76643      717.98109      300.39748      0.032578338    0.0014446873 
   5420000   199.56158      519.08688      718.64845      302.33141      0.0027617779   0.0014446873 
   5430000   192.09132      497.76533      689.85665      289.91312     -0.028544868    0.0014446873 
   5440000   224.94509      529.18279      754.12788      308.21156      0.062608668    0.0014446873 
   5450000   214.57977      512.41307      726.99284      298.44439     -0.0089494495   0.0014446873 
   5460000   195.37608      493.03919      688.41526      287.16047      0.05475375     0.0014446873 
   5470000   220.28033      495.3634       715.64372      288.51416     -0.033600905    0.0014446873 
   5480000   216.97034      543.95002      760.92036      316.81243     -0.024520097    0.0014446873 
   5490000   210.50999      526.91085      737.42084      306.88832     -0.001253883    0.0014446873 
   5500000   210.47111      529.47791      739.94902      308.38345     -0.025246195    0.0014446873 
   5510000   212.84914      526.51768      739.36682      306.65932      0.015332243    0.0014446873 
   5520000   204.94154      508.81617      713.75771      296.34944      0.027661976    0.0014446873 
   5530000   213.15667      494.50789      707.66456      288.01589     -0.02599951     0.0014446873 
   5540000   220.51881      493.98627      714.50509      287.71208      0.083953712    0.0014446873 
   5550000   212.89075      482.66747      695.55822      281.11968     -0.0038964031   0.0014446873 
   5560000   201.08987      501.00641      702.09628      291.80081      0.058231315    0.0014446873 
   5570000   179.10476      529.09465      708.1994       308.16022      0.00052629297  0.0014446873 
   5580000   215.5081       525.51179      741.01989      306.07347      0.038155627    0.0014446873 
   5590000   182.95828      496.45912      679.4174       289.15234      0.020694909    0.0014446873 
   5600000   203.62784      533.12318      736.75101      310.50656     -0.048787051    0.0014446873 
   5610000   185.28228      543.27237      728.55464      316.41774     -0.092922593    0.0014446873 
   5620000   202.47157      505.66122      708.13279      294.51191      0.014216201    0.0014446873 
   5630000   201.71996      502.80609      704.52605      292.849       -0.099912646    0.0014446873 
   5640000   201.74125      536.34493      738.08617      312.383        0.012013853    0.0014446873 
   5650000   201.07843      505.22748      706.30591      294.25929      0.059064507    0.0014446873 
   5660000   208.63652      486.33555      694.97206      283.25607      0.035033372    0.0014446873 
   5670000   201.74535      497.76447      699.50982      289.91261      0.046339462    0.0014446873 
   5680000   206.75717      528.99813      735.75531      308.10401     -0.027275512    0.0014446873 
   5690000   196.56461      520.31752      716.88213      303.04817     -0.083262313    0.0014446873 
   5700000   227.0172       511.10814      738.12533      297.68435     -0.023651247    0.0014446873 
   5710000   210.44191      536.19798      746.63989      312.29741     -0.081130245    0.0014446873 
   5720000   194.70607      516.86378      711.56986      301.03661      0.057367276    0.0014446873 
   5730000   210.61048      505.03825      715.64873      294.14907      0.073457919    0.0014446873 
   5740000   203.92834      527.77886      731.7072       307.39387     -0.088378762    0.0014446873 
   5750000   192.598        509.59684      702.19484      296.80413     -0.047093996    0.0014446873 
   5760000   185.77643      509.35986      695.13629      296.6661       0.069943273    0.0014446873 
   5770000   191.15682      493.48441      684.64123      287.41978     -0.016175121    0.0014446873 
   5780000   195.59401      519.95056      715.54457      302.83444      0.04003776     0.0014446873 
   5790000   203.23633      488.47658      691.7129       284.50307     -0.035152945    0.0014446873 
   5800000   197.43583      531.95457      729.3904       309.82593      0.016489943    0.0014446873 
   5810000   209.86849      519.40422      729.27271      302.51624      0.067234994    0.0014446873 
   5820000   184.11486      485.32315      669.438        282.66642      0.023219747    0.0014446873 
   5830000   202.6618       544.81134      747.47314      317.31409      0.027598015    0.0014446873 
   5840000   189.73333      504.23725      693.97058      293.68255     -0.063730602    0.0014446873 
   5850000   215.3899       535.18482      750.57472      311.70732      0.069103635    0.0014446873 
   5860000   217.30843      504.72498      722.0334       293.96661      0.059360678    0.0014446873 
   5870000   204.72715      531.74652      736.47367      309.70475      0.10129227     0.0014446873 
   5880000   215.46855      504.55119      720.01975      293.8654       0.043880862    0.0014446873 
   5890000   181.80482      508.52751      690.33233      296.18132     -0.0096049096   0.0014446873 
   5900000   206.06219      532.79557      738.85775      310.31575      0.017939942    0.0014446873 
   5910000   204.41824      506.96138      711.37963      295.26916      0.042777876    0.0014446873 
   5920000   193.70528      516.6868       710.39208      300.93353      0.12413852     0.0014446873 
   5930000   207.45913      513.12751      720.58664      298.86049      0.05037808     0.0014446873 
   5940000   178.33462      502.23841      680.57303      292.51837     -0.052175201    0.0014446873 
   5950000   203.17222      540.29189      743.46411      314.68183      0.0064384122   0.0014446873 
   5960000   216.51146      517.16251      733.67397      301.2106      -0.095251293    0.0014446873 
   5970000   180.2827       522.77021      703.05292      304.47669     -0.044344187    0.0014446873 
   5980000   199.14533      501.22015      700.36548      291.9253       0.040911974    0.0014446873 
   5990000   204.75156      542.17691      746.92848      315.77972     -0.040662429    0.0014446873 
   6000000   184.58015      509.59127      694.17142      296.80088     -0.031795638    0.0014446873 
   6010000   207.82272      552.01658      759.8393       321.51063      0.11659896     0.0014446873 
   6020000   213.34256      508.84849      722.19105      296.36827     -0.013746758    0.0014446873 
   6030000   242.46289      506.36338      748.82627      294.92087      0.054864453    0.0014446873 
   6040000   199.70847      503.31503      703.0235       293.14542     -0.038551334    0.0014446873 
   6050000   203.11603      503.10316      706.21918      293.02202      0.063427263    0.0014446873 
   6060000   198.74899      550.12728      748.87627      320.41025      0.0078507387   0.0014446873 
   6070000   227.64456      474.18298      701.82754      276.17806      0.019991516    0.0014446873 
   6080000   209.99707      509.60114      719.59821      296.80663     -0.0029587386   0.0014446873 
   6090000   211.60654      524.27108      735.87762      305.35084      0.051620333    0.0014446873 
   6100000   189.20726      492.203        681.41026      286.67345     -0.013879075    0.0014446873 
   6110000   217.59791      497.38042      714.97833      289.68893      0.028455265    0.0014446873 
   6120000   195.60607      520.62166      716.22774      303.22531      0.067281715    0.0014446873 
   6130000   234.19645      538.0445       772.24095      313.37288      0.032036425    0.0014446873 
   6140000   236.22706      520.50907      756.73613      303.15973     -0.023883259    0.0014446873 
   6150000   250.34008      496.30578      746.64586      289.06303      0.079573109    0.0014446873 
   6160000   234.97818      488.55172      723.52989      284.54684     -0.031920403    0.0014446873 
   6170000   197.36518      534.14893      731.5141       311.10399      0.019584142    0.0014446873 
   6180000   245.66942      550.87168      796.5411       320.8438       0.026184665    0.0014446873 
   6190000   214.93668      532.85521      747.79189      310.35049     -0.030967358    0.0014446873 
   6200000   198.43189      531.78711      730.219        309.72839     -0.00078280587  0.0014446873 
   6210000   208.42057      523.21954      731.64011      304.73839     -0.020442228    0.0014446873 
   6220000   169.23102      525.04618      694.2772       305.80228      0.04760095     0.0014446873 
   6230000   212.08189      486.56913      698.65102      283.39212      0.021125739    0.0014446873 
   6240000   208.48515      513.55687      722.04202      299.11057      0.060946655    0.0014446873 
   6250000   229.16878      502.04697      731.21575      292.40687     -0.097777992    0.0014446873 
   6260000   200.27855      534.85024      735.12879      311.51245     -0.010964977    0.0014446873 
   6270000   167.97494      487.82275      655.79769      284.12226     -0.00089632014  0.0014446873 
   6280000   208.56799      496.56296      705.13095      289.21282      0.12785681     0.0014446873 
   6290000   219.76271      505.42403      725.18675      294.37377     -0.035867452    0.0014446873 
   6300000   210.37911      526.47948      736.85859      306.63708      0.0054248192   0.0014446873 
   6310000   203.93289      544.1085       748.0414       316.90473     -0.075057563    0.0014446873 
   6320000   190.151        495.28347      685.43447      288.46761      0.13056585     0.0014446873 
   6330000   207.11135      522.91923      730.03058      304.56348      0.025729847    0.0014446873 
   6340000   215.82773      497.99081      713.81854      290.04444     -0.012371436    0.0014446873 
   6350000   195.37449      480.05392      675.42841      279.59747     -0.0070200645   0.0014446873 
   6360000   177.41023      537.37748      714.78771      312.98439      0.025151653    0.0014446873 
   6370000   187.40578      495.25896      682.66474      288.45333      0.029816525    0.0014446873 
   6380000   218.64085      502.58251      721.22337      292.71878      0.067354921    0.0014446873 
   6390000   197.07387      504.5066       701.58047      293.83943      0.037992463    0.0014446873 
   6400000   228.30165      547.80808      776.10973      319.05948      0.003428481    0.0014446873 
   6410000   215.86402      516.59589      732.45992      300.88059      0.090787217    0.0014446873 
   6420000   224.5826       491.03507      715.61767      285.99321      0.0019080568   0.0014446873 
   6430000   200.24619      531.98764      732.23384      309.84519      0.056653553    0.0014446873 
   6440000   196.35297      530.59349      726.94646      309.03319      0.02366124     0.0014446873 
   6450000   189.05373      500.15361      689.20734      291.30412     -0.012973626    0.0014446873 
   6460000   202.50642      518.76757      721.27399      302.14544     -0.062979635    0.0014446873 
   6470000   191.44944      528.01415      719.46359      307.53091     -0.08344326     0.0014446873 
   6480000   215.61429      529.69744      745.31173      308.51131     -0.072172032    0.0014446873 
   6490000   203.52171      519.9426       723.46431      302.8298       0.070412445    0.0014446873 
   6500000   175.61419      495.58727      671.20146      288.64455      0.053400883    0.0014446873 
   6510000   239.29043      526.61546      765.90589      306.71627     -0.036221546    0.0014446873 
   6520000   231.40328      504.19438      735.59767      293.65758     -0.020932148    0.0014446873 
   6530000   207.2693       500.69685      707.96615      291.62051     -0.054321358    0.0014446873 
   6540000   185.06986      509.34877      694.41863      296.65965      0.044220252    0.0014446873 
   6550000   183.63897      547.86302      731.50199      319.09148     -0.015013879    0.0014446873 
   6560000   198.32669      528.02907      726.35576      307.5396       0.094229169    0.0014446873 
   6570000   184.57447      525.67709      710.25156      306.16974      0.0085629243   0.0014446873 
   6580000   208.51104      516.48747      724.99851      300.81744     -0.0032523581   0.0014446873 
   6590000   187.2454       494.8105       682.0559       288.19214     -0.024669172    0.0014446873 
   6600000   207.07802      497.47286      704.55088      289.74277      0.067414922    0.0014446873 
   6610000   188.39636      523.45217      711.84853      304.87388      0.0087890999   0.0014446873 
   6620000   191.08019      513.02837      704.10856      298.80275      0.02483261     0.0014446873 
   6630000   207.83407      505.20307      713.03715      294.24507      0.10676387     0.0014446873 
   6640000   205.95693      492.26161      698.21854      286.70758     -0.062886006    0.0014446873 
   6650000   187.80109      512.60561      700.4067       298.55653      0.013023132    0.0014446873 
   6660000   181.62397      523.30212      704.92609      304.78649      0.03341145     0.0014446873 
   6670000   166.75984      524.30294      691.06278      305.3694      -0.016961782    0.0014446873 
   6680000   168.3252       526.00433      694.32953      306.36034      0.014098239    0.0014446873 
   6690000   166.41875      552.68599      719.10474      321.90051      0.044031176    0.0014446873 
   6700000   194.80653      505.81489      700.62142      294.60141     -0.032094281    0.0014446873 
   6710000   185.12705      509.82526      694.95231      296.93717      0.11046401     0.0014446873 
   6720000   166.26976      514.13401      680.40376      299.44671      0.022656009    0.0014446873 
   6730000   209.43883      535.04544      744.48427      311.62614      0.035641827    0.0014446873 
   6740000   207.7137       516.48999      724.20369      300.81891     -0.048393122    0.0014446873 
   6750000   169.2389       478.65747      647.89637      278.78414     -0.0088341485   0.0014446873 
   6760000   165.99332      502.027        668.02032      292.39523      0.073340888    0.0014446873 
   6770000   174.84525      492.19641      667.04165      286.66961      0.0016921167   0.0014446873 
   6780000   193.14836      533.81453      726.96289      310.90922     -0.0043769014   0.0014446873 
   6790000   172.21938      519.31864      691.53802      302.46639     -0.044256981    0.0014446873 
   6800000   180.56799      516.6889       697.2569       300.93476      0.011449685    0.0014446873 
   6810000   198.9446       501.57665      700.52125      292.13294      0.17413927     0.0014446873 
   6820000   188.76154      515.24741      704.00894      300.09519     -0.051219143    0.0014446873 
   6830000   185.25741      527.83205      713.08946      307.42485      0.0025546928   0.0014446873 
   6840000   189.9488       533.50054      723.44934      310.72635      0.040639154    0.0014446873 
   6850000   176.56051      504.81021      681.37071      294.01625      0.0064891334   0.0014446873 
   6860000   170.28788      510.03218      680.32006      297.05768     -0.060104511    0.0014446873 
   6870000   188.92545      492.76482      681.69027      287.00067      0.046220664    0.0014446873 
   6880000   224.78739      503.04103      727.82843      292.98584     -0.041616126    0.0014446873 
   6890000   202.40116      511.54631      713.94747      297.93956     -0.044095036    0.0014446873 
   6900000   183.55534      527.03856      710.5939       306.9627       0.10901971     0.0014446873 
   6910000   205.97991      501.73267      707.71257      292.22381     -0.032437214    0.0014446873 
   6920000   194.27485      541.23854      735.51339      315.23319     -0.0062944286   0.0014446873 
   6930000   183.33575      535.62426      718.96001      311.96326     -0.035158515    0.0014446873 
   6940000   175.63584      544.15095      719.78679      316.92946      0.065676242    0.0014446873 
   6950000   196.14148      527.14003      723.28151      307.0218      -0.055996402    0.0014446873 
   6960000   208.57761      490.00974      698.58736      285.39603     -0.089444195    0.0014446873 
   6970000   200.8695       496.7762       697.6457       289.33701      0.097768316    0.0014446873 
   6980000   203.64828      493.06281      696.71109      287.17423     -0.0089916689   0.0014446873 
   6990000   188.74208      537.02217      725.76425      312.77744      0.012205083    0.0014446873 
   7000000   173.63697      514.92198      688.55895      299.90565     -0.052433822    0.0014446873 
   7010000   173.05391      516.57627      689.63018      300.86915     -0.038972828    0.0014446873 
   7020000   248.62453      522.15902      770.78355      304.12071     -0.031799601    0.0014446873 
   7030000   199.63394      525.54056      725.1745       306.09022      0.035529082    0.0014446873 
   7040000   211.43973      496.19061      707.63033      288.99595      0.03524721     0.0014446873 
   7050000   223.37166      498.37199      721.74365      290.26645      0.083670246    0.0014446873 
   7060000   203.41608      508.65847      712.07455      296.2576      -0.064042369    0.0014446873 
   7070000   225.54371      523.76104      749.30474      305.05377      0.020869682    0.0014446873 
   7080000   211.38148      513.13602      724.51749      298.86545      0.016025259    0.0014446873 
   7090000   206.60568      508.73576      715.34145      296.30261     -0.026794375    0.0014446873 
   7100000   228.71376      539.77558      768.48934      314.38111      0.070195839    0.0014446873 
   7110000   208.08029      507.19393      715.27422      295.40461     -0.033470086    0.0014446873 
   7120000   217.14702      545.01093      762.15796      317.43034      0.021736095    0.0014446873 
   7130000   190.17075      495.15081      685.32156      288.39034     -0.03031126     0.0014446873 
   7140000   199.51786      535.14262      734.66047      311.68274      0.08068842     0.0014446873 
   7150000   177.96597      538.05286      716.01882      313.37775     -0.036040275    0.0014446873 
   7160000   179.65284      538.82978      718.48262      313.83025      0.0018296913   0.0014446873 
   7170000   213.98078      507.28092      721.26169      295.45527     -0.034126743    0.0014446873 
   7180000   192.41949      538.16052      730.58001      313.44046      0.031973066    0.0014446873 
   7190000   173.54966      498.33053      671.88019      290.2423       0.034754848    0.0014446873 
   7200000   171.29569      527.10367      698.39936      307.00062      0.022649279    0.0014446873 
   7210000   187.661        475.6393       663.3003       277.02626      0.060843405    0.0014446873 
   7220000   217.66123      521.31226      738.97349      303.62753      0.056761242    0.0014446873 
   7230000   224.86902      514.45269      739.32171      299.63232     -0.028293377    0.0014446873 
   7240000   189.36337      497.4786       686.84197      289.74611      0.028097194    0.0014446873 
   7250000   198.24095      518.45937      716.70032      301.96593      0.023033239    0.0014446873 
   7260000   206.11163      503.64827      709.75989      293.33951      0.12751771     0.0014446873 
   7270000   181.77581      520.13817      701.91398      302.94371      0.064994318    0.0014446873 
[...]
 103190000   222.36489      476.33412      698.69901      277.43095     -0.050956264    0.0014446873 
 103200000   175.86674      549.63663      725.50337      320.12448      0.058447992    0.0014446873 
 103210000   206.21024      500.59896      706.8092       291.5635       0.0093164199   0.0014446873 
 103220000   224.85668      522.6446       747.50128      304.40353     -0.0011736997   0.0014446873 
 103230000   210.89403      493.55197      704.446        287.45913     -0.0084939094   0.0014446873 
 103240000   197.79219      523.65078      721.44297      304.98956      0.062669683    0.0014446873 
 103250000   190.17862      540.49214      730.67076      314.79846      0.062888958    0.0014446873 
 103260000   223.62083      540.8958       764.51663      315.03356     -0.032742946    0.0014446873 
 103270000   209.65263      529.11853      738.77117      308.17414      0.05155322     0.0014446873 
 103280000   195.77516      520.83658      716.61174      303.35049      0.0018368645   0.0014446873 
 103290000   227.77144      513.5321       741.30354      299.09614      0.053241575    0.0014446873 
 103300000   216.07724      517.87718      733.95442      301.62684     -0.067194156    0.0014446873 
 103310000   240.38334      491.59708      731.98042      286.32054      0.063187916    0.0014446873 
 103320000   192.66208      501.18048      693.84255      291.90219     -0.012602134    0.0014446873 
 103330000   194.9648       519.39925      714.36405      302.51334     -0.00088955697  0.0014446873 
 103340000   203.23427      514.90583      718.1401       299.89624      0.052727605    0.0014446873 
 103350000   211.73564      510.45857      722.19421      297.30603      0.029766683    0.0014446873 
 103360000   215.80505      548.10052      763.90557      319.2298       0.015322359    0.0014446873 
 103370000   224.53891      496.60289      721.1418       289.23607      0.048162829    0.0014446873 
 103380000   199.41104      511.86186      711.2729       298.12334      0.00302434     0.0014446873 
 103390000   209.92867      537.52507      747.45374      313.07035      0.071422258    0.0014446873 
 103400000   196.34294      539.6283       735.97123      314.29533      0.026304609    0.0014446873 
 103410000   214.32653      548.87322      763.19975      319.67984      0.072238559    0.0014446873 
 103420000   208.57304      496.28261      704.85565      289.04953     -0.00605353     0.0014446873 
 103430000   173.04692      492.79542      665.84234      287.01849     -0.01587621     0.0014446873 
 103440000   211.8233       511.4096       723.2329       297.85994     -0.055445906    0.0014446873 
 103450000   225.35929      502.66615      728.02545      292.7675      -0.02327611     0.0014446873 
 103460000   208.31856      508.05034      716.3689       295.90341      0.02457751     0.0014446873 
 103470000   190.13252      503.93178      694.0643       293.50463      0.016491081    0.0014446873 
 103480000   179.90526      530.14761      710.05287      308.7735      -0.012789175    0.0014446873 
 103490000   183.95534      529.24856      713.20391      308.24987      0.070752209    0.0014446873 
 103500000   201.28171      508.23148      709.51319      296.0089      -0.0020433623   0.0014446873 
 103510000   211.01447      495.635        706.64948      288.67235      0.002791211    0.0014446873 
 103520000   191.37953      514.54376      705.92329      299.68536     -0.10080162     0.0014446873 
 103530000   190.11296      541.96186      732.07482      315.65447     -0.010285585    0.0014446873 
 103540000   215.95247      527.96126      743.91372      307.50011     -0.039816128    0.0014446873 
 103550000   196.35952      522.42298      718.7825       304.27445     -0.013148703    0.0014446873 
 103560000   190.69357      513.35283      704.0464       298.99173      0.097725273    0.0014446873 
 103570000   178.26942      520.03327      698.30269      302.88262      0.052706373    0.0014446873 
 103580000   245.7046       508.71435      754.41895      296.29014     -0.044849796    0.0014446873 
 103590000   217.06185      508.65122      725.71307      296.25337      0.0060685168   0.0014446873 
 103600000   211.117        495.02676      706.14376      288.31809      0.020478874    0.0014446873 
 103610000   208.49477      526.52601      735.02078      306.66417      0.028257237    0.0014446873 
 103620000   206.16905      503.68526      709.85431      293.36105      0.023954545    0.0014446873 
 103630000   187.66778      501.83212      689.4999       292.28173     -0.074472211    0.0014446873 
 103640000   189.36526      528.10065      717.46591      307.58129      0.10713677     0.0014446873 
 103650000   181.5087       497.54847      679.05718      289.78681      0.083354828    0.0014446873 
 103660000   208.89601      535.11068      744.0067       311.66414      0.095615145    0.0014446873 
 103670000   201.0265       512.30265      713.32915      298.38008      0.045868041    0.0014446873 
 103680000   215.65197      516.76196      732.41393      300.9773       0.11144842     0.0014446873 
 103690000   198.67788      516.58013      715.25801      300.8714       0.018805553    0.0014446873 
 103700000   207.96112      496.44981      704.41092      289.14691      0.013988068    0.0014446873 
 103710000   214.40845      511.52473      725.93318      297.92699     -0.024936842    0.0014446873 
 103720000   200.45125      534.29109      734.74234      311.18678      0.046415344    0.0014446873 
 103730000   231.29517      518.107        749.40217      301.7607      -0.0022520741   0.0014446873 
 103740000   213.37947      539.00252      752.382        313.93086      0.033216821    0.0014446873 
 103750000   218.38815      485.05531      703.44345      282.51042     -0.03598071     0.0014446873 
 103760000   192.44272      511.63858      704.0813       297.9933      -0.015055371    0.0014446873 
 103770000   210.07612      515.95302      726.02914      300.50616     -0.04040833     0.0014446873 
 103780000   203.82695      536.67466      740.50161      312.57505      0.053733732    0.0014446873 
 103790000   215.45552      518.82963      734.28515      302.18158      0.010313264    0.0014446873 
 103800000   206.85255      536.89252      743.74507      312.70193      0.010956515    0.0014446873 
 103810000   188.16197      528.64409      716.80606      307.89781      0.11470388     0.0014446873 
 103820000   190.63704      519.07836      709.7154       302.32645      0.013944483    0.0014446873 
 103830000   215.78136      490.45103      706.23239      285.65305     -0.0004417334   0.0014446873 
 103840000   214.73881      505.74872      720.48754      294.56288      0.078356429    0.0014446873 
 103850000   207.46646      482.98798      690.45444      281.30635      0.045836385    0.0014446873 
 103860000   242.97022      553.9505       796.92072      322.637       -0.035426343    0.0014446873 
 103870000   203.76739      564.27594      768.04334      328.65084      0.0020835407   0.0014446873 
 103880000   187.80317      493.22871      681.03188      287.27085      0.048125417    0.0014446873 
 103890000   213.65871      520.66514      734.32385      303.25063     -0.064833596    0.0014446873 
 103900000   205.84919      495.60033      701.44953      288.65216      0.0061364789   0.0014446873 
 103910000   219.8366       515.774        735.6106       300.40189     -0.023460306    0.0014446873 
 103920000   202.89164      528.44635      731.33799      307.78264      0.073175575    0.0014446873 
 103930000   219.89798      534.5283       754.42628      311.32494      0.022219035    0.0014446873 
 103940000   217.06555      547.51334      764.57889      318.88781      0.096409296    0.0014446873 
 103950000   222.28731      543.03835      765.32566      316.28145      0.073212769    0.0014446873 
 103960000   177.03785      518.72322      695.76107      302.1196      -0.048866556    0.0014446873 
 103970000   214.20163      516.39741      730.59904      300.76498      0.062541841    0.0014446873 
 103980000   200.55722      507.86186      708.41909      295.79363      0.024322622    0.0014446873 
 103990000   193.03532      512.38104      705.41636      298.42573     -0.079919874    0.0014446873 
 104000000   199.46723      502.99956      702.46679      292.96168     -0.022921556    0.0014446873 
 104010000   196.90873      511.94941      708.85814      298.17434     -0.11148296     0.0014446873 
 104020000   207.20198      517.77813      724.98011      301.56916      0.0084544624   0.0014446873 
 104030000   199.02643      521.80876      720.83518      303.91671     -0.031495179    0.0014446873 
 104040000   231.88823      538.85441      770.74264      313.8446      -0.0091949829   0.0014446873 
 104050000   194.6181       526.31475      720.93286      306.54113     -0.048619121    0.0014446873 
 104060000   183.8208       538.38116      722.20197      313.56896      0.029568389    0.0014446873 
 104070000   206.17022      521.83462      728.00484      303.93178     -0.04999103     0.0014446873 
 104080000   203.07628      504.97494      708.05122      294.1122       0.046082454    0.0014446873 
 104090000   203.4676       481.64367      685.11128      280.52339     -0.019046636    0.0014446873 
 104100000   240.41982      483.21327      723.63309      281.43756      0.035386336    0.0014446873 
 104110000   184.82733      513.62572      698.45305      299.15067      0.026287924    0.0014446873 
 104120000   209.94746      531.70739      741.65485      309.68196      0.0041441082   0.0014446873 
 104130000   222.02025      510.39633      732.41659      297.26978     -0.037051868    0.0014446873 
 104140000   187.45809      516.18509      703.64318      300.64132      0.034875446    0.0014446873 
 104150000   204.6362       517.83019      722.46639      301.59948      0.017963099    0.0014446873 
 104160000   228.7508       533.4065       762.1573       310.67158     -0.030643945    0.0014446873 
 104170000   193.87474      519.96828      713.84303      302.84476      0.026130793    0.0014446873 
 104180000   218.90647      504.11834      723.02481      293.61329     -0.1435502      0.0014446873 
 104190000   205.87691      503.31057      709.18748      293.14282     -0.057159448    0.0014446873 
 104200000   207.11244      535.44269      742.55513      311.85751      0.018935098    0.0014446873 
 104210000   191.99569      506.47789      698.47359      294.98757     -0.078966858    0.0014446873 
 104220000   193.5086       504.79437      698.30297      294.00703      0.10105345     0.0014446873 
 104230000   207.95421      522.57155      730.52576      304.36098     -0.049850865    0.0014446873 
 104240000   210.43304      506.20578      716.63882      294.82908     -0.030842345    0.0014446873 
 104250000   197.62411      530.62838      728.25249      309.05352     -0.048837202    0.0014446873 
 104260000   200.79975      558.73857      759.53832      325.42572      0.047704099    0.0014446873 
 104270000   205.23241      532.72679      737.95921      310.27569      0.026664505    0.0014446873 
 104280000   205.9276       504.42044      710.34803      293.78924     -0.0018839199   0.0014446873 
 104290000   202.92209      501.30667      704.22875      291.97569     -0.082910524    0.0014446873 
 104300000   191.24941      501.87106      693.12047      292.30441     -0.048018571    0.0014446873 
 104310000   213.99902      514.04416      728.04318      299.39438     -0.017758401    0.0014446873 
 104320000   227.2891       533.07946      760.36856      310.4811      -0.0078122684   0.0014446873 
 104330000   211.37244      525.62729      736.99973      306.14074     -0.012630303    0.0014446873 
 104340000   194.97766      533.37398      728.35165      310.65264      0.031481967    0.0014446873 
 104350000   196.6342       520.11098      716.74518      302.92788      0.037408459    0.0014446873 
 104360000   207.43395      495.34406      702.77801      288.50289     -0.015784453    0.0014446873 
 104370000   175.42839      516.6701       692.09849      300.92381      0.011306158    0.0014446873 
 104380000   205.24606      535.28673      740.53279      311.76667      0.04509441     0.0014446873 
 104390000   212.04057      507.7609       719.80147      295.73483      0.034211198    0.0014446873 
 104400000   210.05408      498.10362      708.1577       290.11014     -0.01042773     0.0014446873 
 104410000   188.33078      544.32971      732.6605       317.03357     -0.021398191    0.0014446873 
 104420000   202.92956      527.68067      730.61023      307.33668      0.00029153643  0.0014446873 
 104430000   193.4814       525.62033      719.10173      306.13668     -0.060630134    0.0014446873 
 104440000   194.25284      500.00032      694.25316      291.21483      0.048582407    0.0014446873 
 104450000   200.82379      529.28466      730.10845      308.27089      0.037543915    0.0014446873 
 104460000   191.237        533.6968       724.93379      310.84065      0.065427512    0.0014446873 
 104470000   204.36195      524.59277      728.95472      305.5382      -0.017400129    0.0014446873 
 104480000   195.18917      514.10927      709.29845      299.4323       0.014365817    0.0014446873 
 104490000   210.12799      495.72811      705.85611      288.72658      0.037635109    0.0014446873 
 104500000   191.46733      532.28413      723.75146      310.01787     -0.0095670603   0.0014446873 
 104510000   216.14281      518.61458      734.75739      302.05632      0.070313633    0.0014446873 
 104520000   221.7275       518.6624       740.38991      302.08418     -0.0036604141   0.0014446873 
 104530000   212.67944      500.05832      712.73775      291.24862      0.013486417    0.0014446873 
 104540000   198.76681      525.51173      724.27854      306.07343      0.026827031    0.0014446873 
 104550000   207.59852      509.48052      717.07904      296.73638     -0.067955298    0.0014446873 
 104560000   204.68127      503.2039       707.88517      293.08069      0.0013647294   0.0014446873 
 104570000   195.08321      493.47948      688.56268      287.41691     -0.011566649    0.0014446873 
 104580000   209.95259      529.43888      739.39147      308.36072      0.035013236    0.0014446873 
 104590000   221.88586      511.97969      733.86555      298.19197      0.034121026    0.0014446873 
 104600000   208.59287      498.13468      706.72755      290.12824     -0.0085035164   0.0014446873 
 104610000   213.77393      496.70465      710.47858      289.29534     -0.062713108    0.0014446873 
 104620000   229.00111      524.8574       753.85852      305.69233      0.019214819    0.0014446873 
 104630000   211.43031      524.8664       736.29671      305.69757     -0.020000935    0.0014446873 
 104640000   186.54656      511.91471      698.46127      298.15412     -0.023542778    0.0014446873 
 104650000   232.71113      497.18995      729.90108      289.57799     -0.021528264    0.0014446873 
 104660000   218.08191      476.84087      694.92278      277.7261      -0.050808233    0.0014446873 
 104670000   192.97727      538.35649      731.33376      313.55459      0.11852812     0.0014446873 
 104680000   216.33881      545.05595      761.39475      317.45655      0.022038325    0.0014446873 
 104690000   217.48558      498.7568       716.24238      290.49057      0.010504608    0.0014446873 
 104700000   209.10698      515.64434      724.75132      300.32637      0.04337711     0.0014446873 
 104710000   205.57034      513.78497      719.35532      299.24342     -0.00082201167  0.0014446873 
 104720000   197.53679      487.44937      684.98616      283.90479     -0.087962471    0.0014446873 
 104730000   200.98636      500.58284      701.5692       291.55411      0.081713718    0.0014446873 
 104740000   203.98013      510.79978      714.77991      297.50476     -0.024494628    0.0014446873 
 104750000   229.58146      538.54108      768.12254      313.6621       0.075814913    0.0014446873 
 104760000   196.25179      542.07389      738.32568      315.71972      0.10753269     0.0014446873 
 104770000   177.19968      488.44176      665.64144      284.4828       0.0020240391   0.0014446873 
 104780000   216.55019      508.13709      724.68728      295.95393     -0.037926628    0.0014446873 
 104790000   177.52473      523.35203      700.87676      304.81555      0.030790722    0.0014446873 
 104800000   190.45931      511.77569      702.235        298.07316      0.04632778     0.0014446873 
 104810000   187.6226       547.74338      735.36598      319.0218       0.083373584    0.0014446873 
 104820000   203.23814      507.1588       710.39694      295.38415     -0.041116377    0.0014446873 
 104830000   163.6416       488.89976      652.54136      284.74955      0.00021928865  0.0014446873 
 104840000   193.76937      513.90961      707.67898      299.31602      0.02389707     0.0014446873 
 104850000   181.01634      527.76597      708.78231      307.38636      0.018579113    0.0014446873 
 104860000   194.581        541.55043      736.13144      315.41484      0.034190037    0.0014446873 
 104870000   194.19275      538.24185      732.4346       313.48783      0.050010906    0.0014446873 
 104880000   170.33215      502.54301      672.87516      292.69578      0.023554812    0.0014446873 
 104890000   204.55521      481.33702      685.89223      280.34479      0.011880845    0.0014446873 
 104900000   189.14208      514.24586      703.38794      299.51186     -0.0098330654   0.0014446873 
 104910000   202.32583      532.04087      734.36669      309.87619     -0.0045158045   0.0014446873 
 104920000   189.26541      529.38268      718.64809      308.32799      0.026602211    0.0014446873 
 104930000   199.73733      496.36841      696.10574      289.09951     -0.10922147     0.0014446873 
 104940000   180.48851      490.59732      671.08583      285.73825     -0.073066128    0.0014446873 
 104950000   183.0571       514.6209       697.678        299.73029     -0.00069946393  0.0014446873 
 104960000   189.88118      506.43611      696.31729      294.96323      0.015376067    0.0014446873 
 104970000   197.68393      517.83083      715.51476      301.59985      0.044605015    0.0014446873 
 104980000   199.21545      552.28289      751.49834      321.66574     -0.055230395    0.0014446873 
 104990000   160.81619      491.46983      652.28602      286.24643      0.0051633597   0.0014446873 
 105000000   206.2682       515.2898       721.558        300.11988      0.086728465    0.0014446873 
Loop time of 6581.14 on 8 procs for 100000000 steps with 577 atoms

Performance: 13128.426 ns/day, 0.002 hours/ns, 15194.937 timesteps/s, 8.767 Matom-step/s
99.4% CPU use with 8 MPI tasks x 1 OpenMP threads

MPI task timing breakdown:
Section |  min time  |  avg time  |  max time  |%varavg| %total
---------------------------------------------------------------
Pair    | 1102       | 1732.5     | 2940.9     |1694.3 | 26.32
Bond    | 166.88     | 241.96     | 375.21     | 457.5 |  3.68
Neigh   | 13.476     | 14.762     | 15.804     |  26.5 |  0.22
Comm    | 3030.8     | 4382.3     | 5114.5     |1208.5 | 66.59
Output  | 1.2337     | 1.4617     | 2.7549     |  40.5 |  0.02
Modify  | 108.86     | 148.5      | 216.73     | 298.8 |  2.26
Other   |            | 59.66      |            |       |  0.91

Nlocal:         72.125 ave         134 max          48 min
Histogram: 3 0 3 1 0 0 0 0 0 1
Nghost:          55.25 ave         103 max          24 min
Histogram: 2 0 0 3 0 2 0 0 0 1
Neighs:        198.875 ave         532 max          90 min
Histogram: 4 1 1 0 1 0 0 0 0 1

Total # of neighbors = 1591
Ave neighs/atom = 2.7573657
Ave special neighs/atom = 4.9393414
Neighbor list builds = 193736
Dangerous builds = 0
System init for write_data ...
Generated 0 of 6 mixed pair_coeff terms from geometric mixing rule
Total wall time: 1:54:42
