LAMMPS data file via write_data, version 29 Aug 2024, timestep = 408000000, units = real

51 atoms
4 atom types
50 bonds
1 bond types
49 angles
1 angle types

-500.6 500.6 xlo xhi
-500.6 500.6 ylo yhi
-500.6 500.6 zlo zhi

Masses

1 329.2
2 305.2
3 345.2
4 306.2

Bond Coeffs # harmonic

1 7.5 5.9

Angle Coeffs # harmonic

1 5 150

Atoms # full

50 1 3 0 -363.04116650374107 -356.1465297191453 -483.9972746513907 2 1 1
1 1 2 0 -351.7122113175631 -357.58706688046004 -496.3141543170993 2 1 1
2 1 2 0 -351.2082387868533 -356.02383795880246 -490.8488709172632 2 1 1
51 1 3 0 -360.8767972551521 -350.507206746492 -485.7594885652178 2 1 1
46 1 3 0 -356.3516537791648 -370.59684538071645 -475.49749395483195 2 1 1
47 1 3 0 -360.95659439139496 -369.61803216397385 -478.9159677518253 2 1 1
45 1 3 0 -350.9831982458894 -372.3646441334497 -475.5904499807349 2 1 1
44 1 3 0 -345.9946886315458 -369.4469175337474 -474.33144010517344 2 1 1
49 1 2 0 -365.5485335233152 -360.6931427498554 -482.27845259881644 2 1 1
48 1 3 0 -365.257073342101 -366.3668337528705 -480.8294658688372 2 1 1
6 1 1 0 -355.2156596473313 -362.50869540145544 -469.3687959145204 2 1 1
5 1 2 0 -356.33191352409494 -359.92348615052435 -474.59506302096486 2 1 1
4 1 2 0 -354.81025556063184 -357.691257439548 -479.87923737752624 2 1 1
3 1 3 0 -352.5467334970773 -357.63280011048374 -485.48530639416157 2 1 1
43 1 1 0 -343.7467693989314 -364.2384112110965 -473.0957160239025 2 1 1
7 1 1 0 -356.21867451402665 -365.21487395978943 -464.48105449980386 2 1 1
8 1 2 0 -355.493212180595 -361.7173298582761 -459.7936840779293 2 1 1
9 1 1 0 -353.1990992993752 -358.7167877283514 -455.3738141493624 2 1 1
35 1 1 0 -366.0606411899354 -348.3208302022517 -453.8932452082371 2 1 1
10 1 2 0 -350.8647681733377 -353.8598923515679 -453.7518367933989 2 1 1
41 1 3 0 -346.19137314581565 -356.0646141683282 -465.7133109596943 2 1 1
42 1 3 0 -344.7167970543177 -359.1294939781793 -470.3249527363702 2 1 1
36 1 1 0 -363.984107580114 -342.9559342277813 -456.3537229867036 2 1 1
38 1 1 0 -356.13312810159175 -342.5730939366907 -464.5595338265054 2 1 1
39 1 3 0 -351.58659415312326 -345.83413254066744 -464.8353979596447 2 1 1
37 1 1 0 -360.4832892597639 -341.7249344859409 -460.7111015144477 2 1 1
11 1 4 0 -352.16665423932164 -348.3155851946734 -452.2204648819215 2 1 1
12 1 3 0 -355.3035014796966 -343.1348969491106 -451.1334978048584 2 1 1
40 1 4 0 -348.2107450500857 -350.4580725439067 -465.6891665137893 2 1 1
32 1 3 0 -357.1980383547264 -353.695638686054 -441.6899949260554 2 1 1
33 1 1 0 -362.2338447417703 -353.1182369087228 -444.7779964387683 2 1 1
34 1 4 0 -365.42077836790605 -353.0273903140199 -450.139460051502 2 1 1
19 1 3 0 -356.8189457113989 -358.4450610272069 -430.8969966022411 2 1 1
31 1 3 0 -351.6180721177084 -353.80097444444925 -439.92628659682316 2 1 1
13 1 2 0 -359.3473974674078 -341.6051233258925 -447.6550051233317 2 1 1
15 1 1 0 -364.68369524518397 -342.0915500822025 -437.51098538037115 2 1 1
14 1 2 0 -363.84071597107726 -341.9239072233016 -443.7755719903647 2 1 1
16 1 3 0 -366.1450979519965 -345.1178551368786 -432.52016340622777 2 1 1
17 1 2 0 -365.2860248795037 -350.9255670769929 -431.11290171677194 2 1 1
30 1 2 0 -347.16223368727793 -351.02360204445415 -437.19247796378295 2 1 1
20 1 3 0 -351.9290841810015 -360.8762431615906 -433.0470700811763 2 1 1
18 1 2 0 -362.0247512513659 -355.7354128539846 -430.9570893083911 2 1 1
21 1 4 0 -346.36684507626177 -360.69683209486755 -430.76502465700804 2 1 1
22 1 2 0 -342.05270137382314 -360.23415818770576 -426.423741887041 2 1 1
24 1 2 0 -340.44214162299437 -358.5941575143827 -415.23658569054874 2 1 1
23 1 2 0 -339.9798493081703 -360.00583921516153 -420.8876124199569 2 1 1
27 1 3 0 -349.3388480813476 -350.61179815037775 -421.68496919751976 2 1 1
29 1 2 0 -346.51807120776306 -348.5991576310867 -432.25550884986177 2 1 1
28 1 2 0 -347.0284385492673 -349.70808640376225 -426.4468324374528 2 1 1
25 1 1 0 -344.8749124514767 -354.832586273083 -413.4706427431795 2 1 1
26 1 1 0 -349.4055085605956 -352.7657961873794 -416.404450593153 2 1 1

Velocities

50 0.0014724956669006342 0.00016840312388403863 -0.0003291973026028869
1 -0.001806143526826441 -0.0006500291278758017 0.00047240661048766875
2 -0.0005594615576529521 -0.0006033500483720875 -0.000630460214075996
51 -0.0012438002250276267 0.00018379104067378356 -2.4166020955466707e-05
46 -0.0002432858976695911 0.000733490496983163 0.0006626807949314568
47 0.0016119439431822823 0.0014998202193182491 0.0006591415314400488
45 0.0008281757106034191 -0.00028919880817933525 6.980917726063836e-05
44 -0.00010530969260933942 -0.00030777382857922857 -0.0011971108372366831
49 0.0001250993561575543 -0.0015923956557154476 0.0007053935506520769
48 -0.0018990523225316423 -0.0013998667137336484 -0.0007376241034128208
6 -0.0002585493137878381 -0.0012187271126866894 -0.0017875141394467003
5 0.0002753905937132398 -0.0006503489988794358 -0.00023699601316952253
4 -0.0005280287719848704 -0.0018030849347154844 0.0009093072266672875
3 0.00019236235639617428 -0.0007440303896538001 -3.4714005233185155e-05
43 -0.0005691084765059673 -0.0002476004326306361 -0.0010924018848237043
7 -0.00037421462761604414 0.00010661328940510705 -0.0010974200855796011
8 -0.0008414848893652853 -0.0014274237296043703 -0.0002629291437363989
9 -0.00041113985331330476 0.0002791635239113561 -0.00022989389194687254
35 0.00020484990016648706 -0.00024328180838595518 0.0012324709379963534
10 -0.0008147007122209623 0.00031470286603725204 0.0014193576134742473
41 -0.0001611297773467425 -0.0002044979466929049 0.001001772063311299
42 0.001253560238233979 -0.00031158293947607823 8.210779879607191e-05
36 -0.0006225892898391556 0.0004609166268446259 0.001564385117497487
38 0.0014925450757372202 4.1094360113094356e-05 0.0010249277041199539
39 -0.0009683671751189937 8.245666530091539e-05 -0.0011898498589798482
37 0.00104947466535927 -0.0014935104492328761 -6.958594859159806e-05
11 -0.00038089972265602364 -0.0007592501251301137 0.0008825888645966913
12 0.0003165690464569809 -0.0001741102027664111 0.0008863161720240134
40 0.00022360922883666763 0.00038831956681177875 0.0009823110967001763
32 0.00020957740793756309 -0.0012795131046648323 -0.0002992583515792825
33 -0.00010776713411181969 -0.0004215306919227667 0.000956612963873702
34 -0.0007301383998474982 -9.083473100628871e-05 -0.0007737603075936684
19 0.0016052357136484053 -0.0006664613329619836 -4.885984940173039e-05
31 -0.0009634869523391953 0.001071725957672205 -0.00027144350311662633
13 0.0003901353974393826 0.0005879358461105186 0.00027966544875674337
15 0.0006042566605800586 -0.0003895633723242242 -0.000456718941697832
14 0.0004292037988981176 0.0015966048600579194 -0.0001565856454262404
16 3.4232007251963265e-05 -0.0005685674126143705 -0.0008271584359465999
17 -0.001402579512623341 0.00011397658834220392 0.0002593051632272605
30 -0.0003830414009347816 0.00020886818262316962 0.000202802729774336
20 3.621078961019512e-05 -0.0019422247291014903 0.0011344580995483325
18 0.001313174625177969 0.00045617625622608194 -0.0011986249249231972
21 0.0002808736747699903 0.00042942642419422755 -0.00039208640243032847
22 0.001232876278173251 3.728752167925452e-05 0.001215095042368353
24 0.0006953595863741049 0.0005036526686551169 0.001846520695603555
23 -0.0008307587223911879 8.703966104623028e-05 0.00029953481286660807
27 0.0006298018922012656 0.000906949545342769 0.000275143030794766
29 -0.0016319126029926757 -0.000520171293963018 0.00014200025948005792
28 -0.0012185092123198423 -0.0009627880911137418 -0.0021420494427577524
25 -0.0007427658930248863 -0.0006667444833047165 0.0003380571521319101
26 0.0003967933823267902 0.0016894127039957685 -0.0001468373557829586

Bonds

1 1 50 51
2 1 1 2
3 1 2 3
4 1 46 47
5 1 47 48
6 1 45 46
7 1 44 45
8 1 49 50
9 1 48 49
10 1 6 7
11 1 5 6
12 1 4 5
13 1 3 4
14 1 43 44
15 1 7 8
16 1 8 9
17 1 9 10
18 1 35 36
19 1 10 11
20 1 41 42
21 1 42 43
22 1 36 37
23 1 38 39
24 1 39 40
25 1 37 38
26 1 11 12
27 1 12 13
28 1 40 41
29 1 32 33
30 1 33 34
31 1 34 35
32 1 19 20
33 1 31 32
34 1 13 14
35 1 15 16
36 1 14 15
37 1 16 17
38 1 17 18
39 1 30 31
40 1 20 21
41 1 18 19
42 1 21 22
43 1 22 23
44 1 24 25
45 1 23 24
46 1 27 28
47 1 29 30
48 1 28 29
49 1 25 26
50 1 26 27

Angles

1 1 49 50 51
2 1 1 2 3
3 1 45 46 47
4 1 46 47 48
5 1 44 45 46
6 1 43 44 45
7 1 48 49 50
8 1 47 48 49
9 1 5 6 7
10 1 4 5 6
11 1 3 4 5
12 1 2 3 4
13 1 42 43 44
14 1 6 7 8
15 1 7 8 9
16 1 8 9 10
17 1 34 35 36
18 1 9 10 11
19 1 40 41 42
20 1 41 42 43
21 1 35 36 37
22 1 37 38 39
23 1 38 39 40
24 1 36 37 38
25 1 10 11 12
26 1 11 12 13
27 1 39 40 41
28 1 31 32 33
29 1 32 33 34
30 1 33 34 35
31 1 18 19 20
32 1 30 31 32
33 1 12 13 14
34 1 14 15 16
35 1 13 14 15
36 1 15 16 17
37 1 16 17 18
38 1 29 30 31
39 1 19 20 21
40 1 17 18 19
41 1 20 21 22
42 1 21 22 23
43 1 23 24 25
44 1 22 23 24
45 1 26 27 28
46 1 28 29 30
47 1 27 28 29
48 1 24 25 26
49 1 25 26 27
