LAMMPS data file via write_data, version 29 Aug 2024, timestep = 408000000, units = real

101 atoms
4 atom types
100 bonds
1 bond types
99 angles
1 angle types

-500.6 500.6 xlo xhi
-500.6 500.6 ylo yhi
-500.6 500.6 zlo zhi

Masses

1 329.2
2 305.2
3 345.2
4 306.2

Bond Coeffs # harmonic

1 7.5 5.9

Angle Coeffs # harmonic

1 5 150

Atoms # full

76 1 1 0 42.01469479912058 161.81450783773326 -469.2075361608631 0 -1 -3
16 1 3 0 60.07415841599531 158.4426790664953 -464.5628466501593 0 -1 -3
79 1 1 0 47.883905004448906 173.84713518127813 -477.2608060602982 0 -1 -3
78 1 1 0 46.33510190463957 168.16791222487757 -476.61909805075635 0 -1 -3
77 1 1 0 44.29679942876324 163.5171314706025 -474.24704438823954 0 -1 -3
83 1 2 0 68.03852150464152 173.93117299069124 -474.93035830203235 0 -1 -3
80 1 3 0 52.21366030496811 177.01404724393254 -474.98179487656364 0 -1 -3
81 1 2 0 57.39158508783658 175.8475577968108 -472.76638365968313 0 -1 -3
82 1 2 0 62.07231388898446 173.19732592514373 -475.1304637759708 0 -1 -3
84 1 3 0 72.24208369890133 173.07266638115001 -471.30714325422855 0 -1 -3
85 1 1 0 73.97826426784466 170.54294020750214 -466.20407803299304 0 -1 -3
40 1 3 0 71.20057869862123 183.26041179734153 -471.48241350348405 0 -1 -3
39 1 3 0 71.37406818504512 182.8507779372128 -465.2644854556628 0 -1 -3
45 1 1 0 49.47069911954865 186.1014914237744 -472.86709456801606 0 -1 -3
41 1 1 0 66.74892526284073 183.5242412575142 -475.45665387115974 0 -1 -3
44 1 3 0 51.634187795479406 186.8276698811551 -478.1415349223656 0 -1 -3
42 1 2 0 62.70805744383314 182.95176913395983 -479.43366122822323 0 -1 -3
43 1 2 0 57.41078031200476 186.29248839502003 -479.62858170714685 0 -1 -3
17 1 3 0 59.88937789152582 164.2678909835807 -466.295390656005 0 -1 -3
15 1 3 0 64.71945728139808 154.8278194610002 -464.6749225087848 0 -1 -3
52 1 2 0 57.6764889664733 160.28842910064407 -453.9709899490955 0 -1 -3
53 1 1 0 59.57162951544547 155.1877147136601 -453.4663019298465 0 -1 -3
51 1 1 0 57.27535111935208 165.5917095615167 -456.5741454916516 0 -1 -3
14 1 1 0 69.79088130038018 152.78594876450882 -462.9399623989698 0 -1 -3
13 1 4 0 73.95634692390014 152.75151636044075 -458.7724000024722 0 -1 -3
12 1 2 0 76.34347653442845 156.27747883756322 -454.73627004284435 0 -1 -3
75 1 2 0 40.04798703230747 162.25843754829262 -464.0577816373872 0 -1 -3
74 1 1 0 37.206903819695185 165.87529366993604 -460.2539174117488 0 -1 -3
19 1 4 0 49.845585133178794 170.09442158856132 -463.7724350955998 0 -1 -3
20 1 2 0 45.59256882681461 173.4486283425522 -465.3760874915888 0 -1 -3
21 1 2 0 41.204596903393295 176.49329222532756 -463.14711690472996 0 -1 -3
73 1 3 0 36.52435650228143 169.4693284773957 -455.655086555346 0 -1 -3
22 1 1 0 41.16764092959564 181.62736130290372 -460.23180793342874 0 -1 -3
18 1 4 0 54.57158350341269 166.92183421975892 -466.02076140032796 0 -1 -3
36 1 4 0 67.01704921128324 172.4052881061725 -452.72787780710513 0 -1 -3
48 1 3 0 52.36303983233708 182.30130079354626 -457.2896735359027 0 -1 -3
50 1 4 0 54.9783773626673 170.6667420350449 -455.17135235450104 0 -1 -3
49 1 3 0 54.75706908146551 176.67979886102154 -456.1918853742655 0 -1 -3
37 1 4 0 67.46969430230708 177.4100007065441 -455.9033222917894 0 -1 -3
38 1 2 0 68.3336694827743 180.61497657839266 -460.5274231728069 0 -1 -3
86 1 3 0 77.12332471643346 173.32639219055758 -462.4308346888005 0 -1 -3
87 1 1 0 81.78131153480344 177.07519425108367 -461.24656652458145 0 -1 -3
88 1 3 0 81.73367375047756 182.6350568290918 -462.85618423473824 0 -1 -3
47 1 2 0 52.56088254948468 185.87703602906092 -461.4469258117819 0 -1 -3
46 1 3 0 50.26230500270249 186.62190866711066 -467.2139226099528 0 -1 -3
93 1 3 0 62.79461956703922 201.280606660113 -455.6626714960576 0 -1 -3
94 1 3 0 59.19732432297125 198.66154251021769 -452.33153852967206 0 -1 -3
89 1 3 0 79.51801893742636 188.03596366976635 -461.4931055804279 0 -1 -3
92 1 1 0 67.38728001104586 199.1819547411924 -458.8079563363771 0 -1 -3
90 1 1 0 75.97846762423565 191.26281323809224 -458.17183266446085 0 -1 -3
91 1 4 0 71.31724074995549 195.18329955488096 -457.2226715173632 0 -1 -3
56 1 4 0 71.71104033520973 148.75305353332553 -444.9074065350574 0 -1 -3
55 1 3 0 66.56936723222822 148.9012595065734 -448.3035694039188 0 -1 -3
57 1 1 0 74.85638751769827 148.64032279345534 -439.6844913400293 0 -1 -3
58 1 1 0 80.32883094157097 149.50287686538414 -437.1281273401121 0 -1 -3
59 1 4 0 85.66617621318619 152.41102518339264 -436.6650242518518 0 -1 -3
54 1 3 0 63.22940414811393 151.0996074398264 -451.96862396425894 0 -1 -3
32 1 3 0 54.58970382205773 163.02689300833947 -437.6174270784632 0 -1 -3
33 1 3 0 59.79028865259754 161.66055341454586 -440.4932349038279 0 -1 -3
34 1 4 0 63.79225008294198 165.00002939731456 -444.2348638050586 0 -1 -3
11 1 2 0 78.0537584176874 157.2016890560939 -448.9727170896102 0 -1 -3
10 1 1 0 77.9192860379735 161.14958684148232 -444.7268947704857 0 -1 -3
8 1 3 0 72.65490099755631 162.27901543021898 -434.8498170447682 0 -1 -3
9 1 4 0 75.2993465801904 163.81041851322718 -440.1082045387423 0 -1 -3
60 1 1 0 86.03284193358662 158.2162954892005 -435.9280837545912 0 -1 -3
70 1 1 0 47.73809499552173 169.93110349303458 -443.4035627129481 0 -1 -3
71 1 3 0 43.42099230655385 170.80412562707644 -447.35007843895363 0 -1 -3
72 1 3 0 38.523020493967984 171.3660794980641 -450.47954600666577 0 -1 -3
25 1 2 0 41.222535703980625 184.3655659556061 -443.93110562715316 0 -1 -3
23 1 3 0 41.323389554384946 184.81177566469412 -454.84794517239874 0 -1 -3
26 1 4 0 38.733565879563926 180.25071388545965 -440.8804514542275 0 -1 -3
69 1 4 0 51.825061627943555 173.1349926818864 -441.2251906406802 0 -1 -3
68 1 4 0 57.01365106857607 175.19696389584186 -440.9259264917092 0 -1 -3
67 1 2 0 61.01372948104335 175.33779323147246 -436.3581637336492 0 -1 -3
35 1 3 0 66.65830404149959 168.3659522494893 -448.7375286865078 0 -1 -3
24 1 2 0 39.78743864969219 185.7558093449425 -449.38051834327854 0 -1 -3
95 1 4 0 58.34635330298126 192.93203288479876 -451.89586241079127 0 -1 -3
96 1 4 0 58.552057440994204 188.65418448671747 -448.1038754548767 0 -1 -3
97 1 4 0 60.46837287722691 186.18977128187458 -443.19955545439916 0 -1 -3
98 1 2 0 57.89066203231095 187.59662948288099 -438.4318312931343 0 -1 -3
4 1 1 0 58.268112762769725 154.19581149908439 -419.73128111939394 0 -1 -3
3 1 1 0 56.41881957610388 148.39199003660843 -419.59762295901254 0 -1 -3
29 1 3 0 40.88024620742593 166.21413360584734 -432.7378253214204 0 -1 -3
30 1 4 0 45.37110584459295 162.8188091530253 -432.45151224050994 0 -1 -3
1 1 4 0 53.20761570066816 137.80838937188366 -418.89986388951485 0 -1 -3
31 1 1 0 50.50768565041578 160.6726175143879 -434.66941529851346 0 -1 -3
7 1 4 0 68.92530073971999 160.48368501998027 -430.7663882024223 0 -1 -3
5 1 1 0 62.28333461765604 158.2293949910767 -422.0715462497476 0 -1 -3
6 1 3 0 64.8990034299334 160.93217096395625 -426.34938765145165 0 -1 -3
62 1 2 0 82.39505554651925 167.20524269687948 -430.1358446581013 0 -1 -3
61 1 2 0 86.01678764828728 162.91584781664932 -431.7060991783599 0 -1 -3
28 1 4 0 38.492812577384576 171.4615763537879 -433.3206577977662 0 -1 -3
27 1 1 0 39.7046047176695 176.5209850901911 -436.3059682560745 0 -1 -3
66 1 2 0 64.7146478922264 171.751113413909 -432.92440331755387 0 -1 -3
63 1 1 0 78.51521327551805 169.3320402304094 -426.47592118771433 0 -1 -3
64 1 2 0 72.89666321864301 172.07652168016688 -426.25263722938854 0 -1 -3
65 1 1 0 67.58650550764749 170.90422443359782 -427.9345734514055 0 -1 -3
100 1 2 0 52.639121697540695 187.87404427481528 -428.4588386634569 0 -1 -3
101 1 4 0 54.25116007834865 186.61305035774615 -422.6591539244121 0 -1 -3
99 1 1 0 53.40700503075552 186.9041802478064 -434.5541292734895 0 -1 -3
2 1 3 0 54.38870619473776 143.517131103886 -416.8878713289047 0 -1 -3

Velocities

76 0.001915895335978372 0.0005593168708124523 -0.0002522913850063023
16 0.0016400648410103483 -6.0966498135957395e-05 0.00011077378314921947
79 -0.0005959448119677619 -0.0007350434931182316 0.001206695378926687
78 -0.0005236859989795459 1.898105540751961e-05 0.0004024415792367565
77 -2.6747732735020787e-05 -0.00026343024743952275 0.00015000834820717154
83 -0.0008487179247669984 -0.0018182682800959107 0.0017030514904658538
80 -0.0007986855950132287 -0.000624785393548613 0.00014690280304374825
81 0.00025983222500687456 -0.0010571806813793353 -0.0007808993010955868
82 0.0011642859708272738 0.0012217708030195556 -0.0008033156207532594
84 0.00027342564166297904 0.0008009404892085073 0.0009964119849263482
85 0.0003120842979678851 0.0018274206753318603 0.00073912927818178
40 0.0010877041817735004 -0.0001946868739281671 -0.000426078580436893
39 0.00016975128003689685 5.1358604957077995e-05 -0.0009528428237766473
45 0.0003687239906639172 0.00011355201973914547 -0.0008441153410309656
41 0.000226124041865534 0.0003218651629332301 1.2149372446401297e-05
44 0.00021447020862176564 -0.0007387169063614526 -0.0009457177825008637
42 0.00019104180268090406 -3.463092117957346e-05 0.0006855519613275891
43 0.00042334403381438535 -0.0007384847130061351 0.0011787043721190361
17 -7.159586498734515e-05 0.0007516720304647102 -3.66322802891864e-05
15 0.0003262426647346985 -0.0006609541666424649 0.00026575975334373544
52 0.0005270775089578972 0.00025785129461729337 -0.0012733210119508598
53 0.0005366261881086383 7.11329142237905e-06 0.0004808749712872969
51 -0.0007620600118215077 0.0007297154121708143 -0.001587637702620301
14 0.0008492907692711098 -0.0005374407864944788 0.0009397211344448384
13 -0.0003869982311874654 -0.0008803573502677905 -1.7197801727632563e-05
12 0.00016627246501289602 -0.0007459538346255418 -0.0003479198107751475
75 0.0007384984018640217 0.000920511426586514 -0.0002703349508281338
74 0.00016903487293891235 0.0008362720679088487 0.00180333706468134
19 -0.0022894231912561885 0.002317206015264053 -0.0008450747868890151
20 0.0009669678130279749 -0.002401398903063829 -0.0004584677338065202
21 0.0009619107790751762 0.0004227995228970608 7.4881619714885e-05
73 0.0007747668309774406 -0.0005326927278413607 -0.0002038414344893952
22 0.00042513948233422296 0.00014619730018293454 -0.0007702969209344397
18 -0.00010787065686076253 0.0005306067636743964 -0.0008481333237399601
36 -0.0005571601720413612 -0.0007175771291741682 -0.0007429867505798407
48 -0.0007556879635894681 -0.0005884497977346833 0.0014268634400657733
50 0.0004333127947934903 0.000439885459212345 -0.0011629364315742941
49 -0.0008604322600859417 -0.000440469715212733 0.0004904475713097446
37 -0.0009862790798956128 0.0006268093680860673 0.0006231007282378176
38 -0.0008330261894579663 0.0010598564825086017 -0.001246312074459829
86 -0.001225184968755001 0.000548487075054813 -0.0005372206172543489
87 0.00014356174044422785 0.0014588358191854722 0.000840384201782969
88 0.0004594287747478962 0.0023272525756445773 -7.194162321122256e-05
47 -0.0005205121271104126 -0.0018698563978858333 0.00029629893309059255
46 0.0017213780621136343 -0.0011597892287529363 -0.0008144192782805279
93 -0.00024488881887123554 -0.001465600613199511 0.00010687092881369277
94 0.00034196970185460034 0.0006827887237435279 0.0005770043067632499
89 0.0005065186434406713 -4.2607650450846253e-07 0.00026257968856822775
92 -0.0022633474457915657 -0.0005087736010698496 0.0004877745368688909
90 -9.415550230226674e-05 -0.00038574667615654483 0.0011657109912854248
91 0.000727145052336679 0.001340594814196458 -0.0006084451034909886
56 -0.0003922495505692383 -0.0006276081180588062 -0.00019415226152756927
55 8.458133970151016e-05 0.0008592335178579884 0.0008324240029085404
57 -0.0007903676891908214 0.000671619937123366 -0.0007850900910423888
58 -0.00032745531077113885 0.0012538336084845355 0.00123531526999514
59 -0.000459024599516239 -0.0011553438216714816 0.0014540110389275021
54 -0.0010198001993049581 -0.00024174192792987632 -0.00030933647299344623
32 0.0002754287138653942 -0.0010743516499868995 0.0010795836067359816
33 0.0005633782859298166 -0.00036415844711745364 1.6887375092973767e-05
34 0.0016558155182524713 -0.0006118729102275571 -0.001967008529675882
11 0.0011683323364217561 5.9508072739478097e-05 0.0004302453153202732
10 -0.0003324832205133223 0.0016667799873419386 -0.0016459225176047828
8 -8.174462552039217e-05 -0.0005266666705149367 0.00018342873041051982
9 0.00035910404356372604 0.00012022406227750365 -0.0010363843388901549
60 -0.0016797364023732526 0.0009572683941034575 -0.0005056465060867867
70 -0.0013543526940773575 -0.0006939604603354746 -0.0003139712011666195
71 -0.00030265392071467307 0.0008516413938572733 -8.090756030003868e-05
72 0.00010906638388103868 0.0005704520811768992 -0.001216542905909082
25 -7.767062554926986e-05 -0.0007314003443900367 -0.0005117330814706841
23 0.0012187938144897338 0.00046100813612410895 0.0002780531342733589
26 0.0009473688675554066 0.0011243592859928192 -0.000889949066651221
69 -0.001098255622041459 0.00041084864534082517 -0.0004902878237607843
68 0.0008438704860974111 0.0016964210067268784 0.0014841495275997013
67 0.0004095728648409453 0.0006748002940277244 0.0011897248838694126
35 8.57595021054011e-06 -0.0003203341004087386 0.0008555147978160386
24 0.0013087865387614059 -0.0004389636107637103 -0.001652023266257778
95 0.0005409355886880915 -0.0010752651704087571 -0.0001514780317887271
96 4.399044392692902e-05 -0.0005788984841750377 -7.29312109388446e-05
97 0.0011278192318542604 -0.0007493967307787273 -2.7250507953227675e-05
98 -0.0003632363920826009 -8.250753320112079e-05 -0.00012967991580208914
4 -0.0008493211701264517 -0.00012342068998853919 -0.0008239291454839953
3 -0.0010393908382457283 -3.3795392664450005e-05 -0.0004766849473965904
29 -0.0005982783300096839 0.0008843729446638465 -0.0011260543412913305
30 0.00029647266312119765 0.0016241453896162015 0.0003487483194887389
1 0.00287639709459867 0.0007829324707224455 -0.00010933693359613425
31 -0.00012622288786054553 -0.0009157367994260156 -0.00036910167576263735
7 -0.0006754756230185327 0.0002758559143055874 0.0012737506179612461
5 0.0011924385992374506 -0.00013819104459168792 -0.0005356295042275948
6 -0.0015982450891666553 -0.0004912561446590837 -0.0001038109665085903
62 -0.0016386046813759226 0.0001431478131733389 0.000681260204886894
61 0.0016045415656925446 0.00038095283596164344 0.0001221129414427749
28 -0.00040780529800133033 -0.00041573160234831497 -0.0010692952964462662
27 0.0005042656744795972 -0.0009391247669582801 -0.0028861520582662186
66 3.7249934215433234e-06 0.0001813369205873252 -0.0004395020516277158
63 0.00017414944365030442 0.00041641982751194017 -6.973659983270385e-05
64 4.682416086101047e-05 -0.0014949305296645798 0.0002504589495729746
65 0.000980910995913937 -0.00042929779337070814 0.000726455463456571
100 -0.001420542558643755 -2.085827968682117e-05 -0.0018621241662813916
101 0.0009038122623713578 -0.0016239828602311068 0.0002956089526390695
99 0.0007276314500876802 -0.0012118972396413445 -0.00047121829734156703
2 3.999318654762094e-05 -0.0004747782893283451 0.00020031762417424014

Bonds

1 1 76 77
2 1 16 17
3 1 79 80
4 1 78 79
5 1 77 78
6 1 83 84
7 1 80 81
8 1 81 82
9 1 82 83
10 1 84 85
11 1 85 86
12 1 40 41
13 1 39 40
14 1 45 46
15 1 41 42
16 1 44 45
17 1 42 43
18 1 43 44
19 1 17 18
20 1 15 16
21 1 52 53
22 1 53 54
23 1 51 52
24 1 14 15
25 1 13 14
26 1 12 13
27 1 75 76
28 1 74 75
29 1 19 20
30 1 20 21
31 1 21 22
32 1 73 74
33 1 22 23
34 1 18 19
35 1 36 37
36 1 48 49
37 1 50 51
38 1 49 50
39 1 37 38
40 1 38 39
41 1 86 87
42 1 87 88
43 1 88 89
44 1 47 48
45 1 46 47
46 1 93 94
47 1 94 95
48 1 89 90
49 1 92 93
50 1 90 91
51 1 91 92
52 1 56 57
53 1 55 56
54 1 57 58
55 1 58 59
56 1 59 60
57 1 54 55
58 1 32 33
59 1 33 34
60 1 34 35
61 1 11 12
62 1 10 11
63 1 8 9
64 1 9 10
65 1 60 61
66 1 70 71
67 1 71 72
68 1 72 73
69 1 25 26
70 1 23 24
71 1 26 27
72 1 69 70
73 1 68 69
74 1 67 68
75 1 35 36
76 1 24 25
77 1 95 96
78 1 96 97
79 1 97 98
80 1 98 99
81 1 4 5
82 1 3 4
83 1 29 30
84 1 30 31
85 1 1 2
86 1 31 32
87 1 7 8
88 1 5 6
89 1 6 7
90 1 62 63
91 1 61 62
92 1 28 29
93 1 27 28
94 1 66 67
95 1 63 64
96 1 64 65
97 1 65 66
98 1 100 101
99 1 99 100
100 1 2 3

Angles

1 1 75 76 77
2 1 15 16 17
3 1 78 79 80
4 1 77 78 79
5 1 76 77 78
6 1 82 83 84
7 1 79 80 81
8 1 80 81 82
9 1 81 82 83
10 1 83 84 85
11 1 84 85 86
12 1 39 40 41
13 1 38 39 40
14 1 44 45 46
15 1 40 41 42
16 1 43 44 45
17 1 41 42 43
18 1 42 43 44
19 1 16 17 18
20 1 14 15 16
21 1 51 52 53
22 1 52 53 54
23 1 50 51 52
24 1 13 14 15
25 1 12 13 14
26 1 11 12 13
27 1 74 75 76
28 1 73 74 75
29 1 18 19 20
30 1 19 20 21
31 1 20 21 22
32 1 72 73 74
33 1 21 22 23
34 1 17 18 19
35 1 35 36 37
36 1 47 48 49
37 1 49 50 51
38 1 48 49 50
39 1 36 37 38
40 1 37 38 39
41 1 85 86 87
42 1 86 87 88
43 1 87 88 89
44 1 46 47 48
45 1 45 46 47
46 1 92 93 94
47 1 93 94 95
48 1 88 89 90
49 1 91 92 93
50 1 89 90 91
51 1 90 91 92
52 1 55 56 57
53 1 54 55 56
54 1 56 57 58
55 1 57 58 59
56 1 58 59 60
57 1 53 54 55
58 1 31 32 33
59 1 32 33 34
60 1 33 34 35
61 1 10 11 12
62 1 9 10 11
63 1 7 8 9
64 1 8 9 10
65 1 59 60 61
66 1 69 70 71
67 1 70 71 72
68 1 71 72 73
69 1 24 25 26
70 1 22 23 24
71 1 25 26 27
72 1 68 69 70
73 1 67 68 69
74 1 66 67 68
75 1 34 35 36
76 1 23 24 25
77 1 94 95 96
78 1 95 96 97
79 1 96 97 98
80 1 97 98 99
81 1 3 4 5
82 1 2 3 4
83 1 28 29 30
84 1 29 30 31
85 1 30 31 32
86 1 6 7 8
87 1 4 5 6
88 1 5 6 7
89 1 61 62 63
90 1 60 61 62
91 1 27 28 29
92 1 26 27 28
93 1 65 66 67
94 1 62 63 64
95 1 63 64 65
96 1 64 65 66
97 1 99 100 101
98 1 98 99 100
99 1 1 2 3
