
# ===============================
# FORCE FIELD
# ===============================
bond_style harmonic
bond_coeff 1 7.5 5.9

angle_style harmonic
angle_coeff 1 5.0 150.0

pair_style hybrid/overlay lj/cut 10.0 base/rna 18.0
pair_modify shift yes
pair_coeff * * lj/cut 2.0 8.9089871814

# Base-pair interactions
pair_coeff 1 1 base/rna 0.00000 3.0 13.8 1.5 0.5 1.8326 0.9425 1.8326 1.1345
pair_coeff 1 2 base/rna 0.00000 3.0 13.8 1.5 0.5 1.8326 0.9425 1.8326 1.1345
pair_coeff 1 3 base/rna 0.00000 3.0 13.8 1.5 0.5 1.8326 0.9425 1.8326 1.1345
pair_coeff 1 4 base/rna 3.33333 3.0 13.8 1.5 0.5 1.8326 0.9425 1.8326 1.1345
pair_coeff 2 2 base/rna 0.00000 3.0 13.8 1.5 0.5 1.8326 0.9425 1.8326 1.1345
pair_coeff 2 3 base/rna 5.00000 3.0 13.8 1.5 0.5 1.8326 0.9425 1.8326 1.1345
pair_coeff 2 4 base/rna 0.00000 3.0 13.8 1.5 0.5 1.8326 0.9425 1.8326 1.1345
pair_coeff 3 3 base/rna 0.00000 3.0 13.8 1.5 0.5 1.8326 0.9425 1.8326 1.1345
pair_coeff 3 4 base/rna 3.33333 3.0 13.8 1.5 0.5 1.8326 0.9425 1.8326 1.1345
pair_coeff 4 4 base/rna 0.00000 3.0 13.8 1.5 0.5 1.8326 0.9425 1.8326 1.1345

special_bonds lj 0.0 0.0 1.0
Finding 1-2 1-3 1-4 neighbors ...
  special bond factors lj:    0        0        1       
  special bond factors coul:  0        0        0       
     2 = max # of 1-2 neighbors
     2 = max # of 1-3 neighbors
     4 = max # of 1-4 neighbors
     6 = max # of special neighbors
  special bonds CPU = 0.000 seconds
neighbor 15.0 bin
neigh_modify every 10 delay 0
comm_style tiled
timestep 10

# ===============================
# DUMPS
# ===============================
dump d1 all custom ${dump_stride} outputs_wk4/${tag}.lammpstrj id mol type q xu yu zu
dump d1 all custom 50000 outputs_wk4/${tag}.lammpstrj id mol type q xu yu zu
dump d1 all custom 50000 outputs_wk4/config_6_4OJI_A.dat.lammpstrj id mol type q xu yu zu
dump_modify d1 sort id

# ===============================
# THERMO
# ===============================
thermo_style custom step pe ke temp
thermo ${thermo_stride}
thermo 10000
thermo_modify flush yes

variable vpe equal pe
variable vke equal ke
variable vT  equal temp

fix fa all ave/time ${thermo_stride} 10 ${stride10} v_vpe v_vke v_vT file outputs_wk4/thermo_${tag}_averaged.dat
fix fa all ave/time 10000 10 ${stride10} v_vpe v_vke v_vT file outputs_wk4/thermo_${tag}_averaged.dat
fix fa all ave/time 10000 10 100000 v_vpe v_vke v_vT file outputs_wk4/thermo_${tag}_averaged.dat
fix fa all ave/time 10000 10 100000 v_vpe v_vke v_vT file outputs_wk4/thermo_config_6_4OJI_A.dat_averaged.dat

# ===============================
# EQUILIBRATION (40 ns)
# ===============================
fix fxnve all nve
variable seed0 equal 43001
fix fxl all langevin ${T_eq} ${T_eq} 100000.0 ${seed0}
fix fxl all langevin 298 ${T_eq} 100000.0 ${seed0}
fix fxl all langevin 298 298 100000.0 ${seed0}
fix fxl all langevin 298 298 100000.0 43001

run ${n_eq}
run 4000000

CITE-CITE-CITE-CITE-CITE-CITE-CITE-CITE-CITE-CITE-CITE-CITE-CITE

Your simulation uses code contributions which should be cited:

- Type Label Framework: https://doi.org/10.1021/acs.jpcb.3c08419

@Article{Gissinger24,
 author = {Jacob R. Gissinger, Ilia Nikiforov, Yaser Afshar, Brendon Waters, Moon-ki Choi, Daniel S. Karls, Alexander Stukowski, Wonpil Im, Hendrik Heinz, Axel Kohlmeyer, and Ellad B. Tadmor},
 title = {Type Label Framework for Bonded Force Fields in LAMMPS},
 journal = {J. Phys. Chem. B},
 year =    2024,
 volume =  128,
 number =  13,
 pages =   {3282–-3297}
}

CITE-CITE-CITE-CITE-CITE-CITE-CITE-CITE-CITE-CITE-CITE-CITE-CITE

Generated 0 of 6 mixed pair_coeff terms from geometric mixing rule
Neighbor list info ...
  update: every = 10 steps, delay = 0 steps, check = yes
  max neighbors/atom: 2000, page size: 100000
  master list distance cutoff = 33
  ghost atom cutoff = 33
  binsize = 16.5, bins = 61 61 61
  2 neighbor lists, perpetual/occasional/extra = 2 0 0
  (1) pair lj/cut, perpetual, trim from (2)
      attributes: half, newton on, cut 25
      pair build: trim
      stencil: none
      bin: none
  (2) pair base/rna, perpetual
      attributes: half, newton on
      pair build: half/bin/newton
      stencil: half/bin/3d
      bin: standard
Per MPI rank memory allocation (min/avg/max) = 8.368 | 8.368 | 8.368 Mbytes
   Step         PotEng         KinEng          Temp     
         0   67.16814       0              0            
     10000   22.684094      42.582146      285.70855    
     20000   28.649022      42.210259      283.21334    
     30000   28.872892      52.532191      352.46923    
     40000   26.721638      50.084802      336.04826    
     50000   26.925239      41.587829      279.0371     
     60000   26.975875      38.29947       256.97357    
     70000   27.049374      52.916394      355.04707    
     80000   34.860999      41.706701      279.83468    
     90000   19.204361      48.261608      323.81538    
    100000   18.691291      39.391021      264.29742    
    110000   4.8183932      50.319102      337.62032    
    120000   3.2720614      49.372146      331.26664    
    130000  -9.3332718      50.06621       335.92352    
    140000  -17.570049      40.412746      271.15277    
    150000  -13.830669      44.71155       299.99597    
    160000  -11.501438      51.994787      348.86347    
    170000   3.929747       50.908684      341.57617    
    180000  -4.3891127      40.876549      274.2647     
    190000  -12.348097      39.564154      265.45907    
    200000  -23.071709      48.114235      322.82658    
    210000  -20.310238      40.354481      270.76184    
    220000  -27.861036      41.525162      278.61663    
    230000  -11.331605      36.898967      247.57678    
    240000  -29.33423       42.606991      285.87525    
    250000  -21.320805      37.350825      250.60856    
    260000  -22.901106      50.354568      337.85828    
    270000  -32.314334      48.774141      327.25427    
    280000  -26.707541      45.5094        305.34922    
    290000  -24.027653      42.382592      284.36963    
    300000  -14.489429      36.274898      243.38953    
    310000  -20.626097      48.188527      323.32504    
    320000  -26.0792        46.987183      315.26453    
    330000  -13.817527      49.157571      329.82692    
    340000  -25.583365      37.857154      254.00581    
    350000  -22.564284      39.484692      264.92592    
    360000  -27.020897      40.293756      270.3544     
    370000  -16.893622      40.451201      271.41079    
    380000  -19.589264      46.140496      309.5836     
    390000  -17.050563      38.878755      260.86033    
    400000  -33.364547      44.383967      297.79802    
    410000  -26.215033      47.829813      320.91822    
    420000  -24.952548      52.541107      352.52905    
    430000  -30.718434      35.998112      241.53241    
    440000  -33.557133      38.422969      257.8022     
    450000  -34.314474      50.846632      341.15983    
    460000  -23.898245      38.210686      256.37786    
    470000  -29.239745      49.422565      331.60493    
    480000  -20.044841      41.459874      278.17857    
    490000  -6.8539711      40.588415      272.33144    
    500000  -28.2744        51.183599      343.42073    
    510000  -13.212257      38.78288       260.21705    
    520000  -21.141021      50.142779      336.43727    
    530000  -0.13115927     39.169344      262.81006    
    540000  -16.147732      52.631597      353.1362     
    550000  -6.9973119      42.694464      286.46216    
    560000  -16.544899      49.930603      335.01365    
    570000  -14.604061      54.434378      365.23211    
    580000  -14.394465      38.443233      257.93816    
    590000  -20.413963      47.350676      317.70341    
    600000  -12.225376      45.583387      305.84563    
    610000  -19.124862      50.699122      340.1701     
    620000  -24.636303      51.213696      343.62268    
    630000  -9.6694481      49.954077      335.17115    
    640000  -10.332687      42.435027      284.72144    
    650000  -18.610846      46.83805       314.2639     
    660000  -30.636976      51.726341      347.06231    
    670000  -15.497064      47.096705      315.99937    
    680000  -9.9894068      47.295169      317.33098    
    690000  -15.69356       43.890415      294.4865     
    700000  -7.1513801      45.771845      307.11011    
    710000  -11.835327      55.986148      375.64385    
    720000  -10.421607      46.375424      311.15987    
    730000  -16.981362      46.041244      308.91767    
    740000  -7.9581217      42.182119      283.02454    
    750000  -16.216284      41.451695      278.12369    
    760000  -28.791262      48.498257      325.4032     
    770000  -11.92421       43.112965      289.27013    
    780000  -17.337113      47.43474       318.26744    
    790000  -14.832003      46.644385      312.96449    
    800000  -8.1568274      49.416066      331.56132    
    810000  -19.728639      42.144651      282.77314    
    820000  -14.710393      43.87794       294.40279    
    830000  -5.4644889      50.60145       339.51476    
    840000  -12.304376      48.08911       322.658      
    850000  -14.375065      48.450654      325.08381    
    860000  -10.23703       58.661715      393.5958     
    870000  -9.3273019      46.599332      312.6622     
    880000  -7.9681792      48.54567       325.72132    
    890000  -9.0754522      47.351128      317.70644    
    900000  -13.122322      47.177569      316.54194    
    910000  -18.72895       36.310527      243.62859    
    920000  -9.6143562      41.898341      281.1205     
    930000  -5.4414861      42.003152      281.82374    
    940000  -10.793475      42.771235      286.97726    
    950000  -13.669613      43.533822      292.0939     
    960000  -14.560245      41.819362      280.59059    
    970000  -7.8440898      51.691859      346.83095    
    980000  -23.681802      54.317708      364.44931    
    990000  -0.39023308     37.206461      249.63993    
   1000000  -20.114454      49.788696      334.06152    
   1010000  -18.388357      46.062739      309.06189    
   1020000  -14.471222      51.774851      347.38779    
   1030000  -9.5538742      40.096846      269.03322    
   1040000  -9.8042322      47.750446      320.3857     
   1050000  -9.3127635      51.366133      344.64546    
   1060000  -6.9943281      41.868661      280.92136    
   1070000  -18.002985      43.610316      292.60714    
   1080000  -14.864043      41.506513      278.4915     
   1090000  -7.5511328      48.365531      324.51267    
   1100000  -14.029889      47.777936      320.57015    
   1110000  -10.963354      41.253718      276.79535    
   1120000  -16.993866      46.59085       312.6053     
   1130000  -19.735569      46.675713      313.17469    
   1140000  -26.347186      47.654215      319.74003    
   1150000  -20.719833      49.252537      330.46411    
   1160000  -23.438369      47.644584      319.67541    
   1170000  -16.133824      47.956493      321.76819    
   1180000  -22.530313      44.615806      299.35357    
   1190000  -23.056624      45.075639      302.43886    
   1200000  -23.87456       48.310918      324.14624    
   1210000  -17.180731      42.348614      284.14165    
   1220000  -18.116059      55.322632      371.19193    
   1230000  -7.7816794      45.086441      302.51133    
   1240000  -16.432949      51.836948      347.80444    
   1250000  -21.417095      54.918971      368.48353    
   1260000  -11.380432      36.295117      243.52519    
   1270000  -14.400122      44.993405      301.8871     
   1280000  -16.270884      50.196069      336.79482    
   1290000  -8.1222424      42.723983      286.66022    
   1300000  -9.4515439      46.295124      310.6211     
   1310000  -12.134802      42.904888      287.87401    
   1320000  -5.9801804      42.255069      283.514      
   1330000  -15.296854      55.517341      372.49835    
   1340000  -23.071289      40.744866      273.38116    
   1350000  -18.75586       41.719874      279.92306    
   1360000  -17.819183      37.940026      254.56185    
   1370000  -10.585459      40.757016      273.46269    
   1380000  -1.3608788      47.052463      315.70253    
   1390000  -6.1034         46.381534      311.20087    
   1400000   0.92924302     42.595425      285.79764    
   1410000  -6.1915316      57.528087      385.98962    
   1420000   1.8375088      45.614017      306.05115    
   1430000  -11.382395      43.979514      295.08431    
   1440000  -13.78033       42.609901      285.89478    
   1450000  -10.484172      38.368211      257.43479    
   1460000  -13.959384      50.620944      339.64555    
   1470000  -6.3666406      40.789106      273.678      
   1480000  -12.747403      34.604524      232.18201    
   1490000  -18.810968      41.433071      277.99874    
   1500000  -17.490048      44.812803      300.67533    
   1510000  -14.905236      43.87016       294.35059    
   1520000  -16.237789      46.254905      310.35124    
   1530000  -15.944027      54.373027      364.82047    
   1540000  -2.1697525      36.38215       244.10915    
   1550000  -27.986171      54.158395      363.38038    
   1560000  -17.401537      46.897531      314.66299    
   1570000   0.52889676     41.190116      276.36861    
   1580000  -9.2822683      45.891229      307.91112    
   1590000   1.097454       37.392076      250.88533    
   1600000  -8.3031424      44.097177      295.87378    
   1610000  -9.8977059      47.234955      316.92697    
   1620000  -7.5586031      41.295601      277.07637    
   1630000  -22.077126      47.853402      321.07649    
   1640000  -12.823099      41.418302      277.89964    
   1650000  -7.5522997      37.657785      252.66813    
   1660000  -13.354465      44.990419      301.86706    
   1670000  -13.24617       56.38338       378.30911    
   1680000  -4.0178536      47.567837      319.16047    
   1690000  -15.174623      51.410087      344.94038    
   1700000  -4.3743817      44.926226      301.43636    
   1710000  -6.1382145      47.274026      317.18912    
   1720000  -8.8150026      54.429839      365.20166    
   1730000  -8.7246202      49.4332        331.67628    
   1740000  -19.491271      61.295084      411.26461    
   1750000  -10.618441      45.600342      305.95939    
   1760000  -17.132916      48.711913      326.83674    
   1770000  -7.3576316      42.714684      286.59783    
   1780000  -8.1051453      45.583727      305.84792    
   1790000  -11.366912      47.992169      322.00757    
   1800000  -14.011892      53.574379      359.46188    
   1810000  -10.211835      38.815623      260.43674    
   1820000  -3.7729448      43.892733      294.50205    
   1830000  -16.892371      45.301732      303.95585    
   1840000  -15.851243      41.724809      279.95618    
   1850000  -17.133648      45.187298      303.18804    
   1860000  -5.0731126      43.530626      292.07246    
   1870000  -11.839581      45.044249      302.22824    
   1880000  -0.16871149     39.338918      263.94784    
   1890000  -6.0576097      42.359005      284.21137    
   1900000  -9.7335129      53.770823      360.77994    
   1910000  -18.243619      38.296105      256.95099    
   1920000  -14.745966      52.374226      351.40935    
   1930000  -9.5145429      47.016785      315.46314    
   1940000  -12.568679      51.235374      343.76812    
   1950000  -10.526531      34.801729      233.50518    
   1960000  -19.33083       38.540993      258.59409    
   1970000  -30.162316      50.43243       338.3807     
   1980000  -23.391492      55.123565      369.85627    
   1990000  -19.807763      45.812646      307.38386    
   2000000  -19.377429      41.775886      280.29888    
   2010000  -21.729458      50.346458      337.80387    
   2020000  -16.6318        45.167977      303.0584     
   2030000  -18.090815      51.398015      344.85938    
   2040000  -21.515252      48.665054      326.52234    
   2050000  -22.673713      47.548699      319.03206    
   2060000  -13.025802      55.136195      369.94101    
   2070000  -15.669082      50.934701      341.75073    
   2080000  -20.186757      53.575961      359.4725     
   2090000  -19.383243      52.533551      352.47835    
   2100000  -19.483211      37.455101      251.3082     
   2110000  -26.477827      41.615185      279.22064    
   2120000  -27.543046      37.442498      251.22364    
   2130000  -25.15703       40.362531      270.81585    
   2140000  -23.662926      47.901579      321.39974    
   2150000  -28.643908      50.235341      337.05832    
   2160000  -24.845768      49.300523      330.78608    
   2170000  -26.772268      47.333553      317.58852    
   2180000  -17.269567      42.315096      283.91676    
   2190000  -18.965816      45.128361      302.7926     
   2200000  -12.614365      43.965962      294.99338    
   2210000  -24.42356       43.260394      290.25931    
   2220000  -23.340628      33.105697      222.1255     
   2230000  -20.174353      40.619424      272.5395     
   2240000  -25.513173      40.261273      270.13645    
   2250000  -13.553071      43.204329      289.88314    
   2260000  -19.133919      49.098874      329.43309    
   2270000  -16.542281      38.367975      257.43321    
   2280000  -19.379141      40.365432      270.83532    
   2290000  -29.838736      47.629688      319.57547    
   2300000  -23.636198      40.093756      269.01248    
   2310000  -24.037812      46.70027       313.33946    
   2320000  -30.731335      46.403786      311.35017    
   2330000  -31.127639      41.663151      279.54247    
   2340000  -28.554378      43.082436      289.06529    
   2350000  -10.902577      41.0302        275.29564    
   2360000  -25.626151      56.599225      379.75734    
   2370000  -22.124435      44.392934      297.85819    
   2380000  -15.512165      44.68498       299.81769    
   2390000  -11.847359      43.082691      289.067      
   2400000  -13.28268       47.532666      318.92449    
   2410000  -14.603351      50.104597      336.18108    
   2420000  -16.058939      44.015578      295.32629    
   2430000  -8.9761835      42.35276       284.16946    
   2440000  -20.623104      47.637549      319.62821    
   2450000  -21.747795      44.091396      295.83499    
   2460000  -29.219285      39.749669      266.7038     
   2470000  -21.511101      48.3886        324.66745    
   2480000  -28.372561      45.300783      303.94948    
   2490000  -28.712097      47.849027      321.04714    
   2500000  -18.981268      37.187655      249.51375    
   2510000  -19.435499      37.655788      252.65473    
   2520000  -14.728917      41.706982      279.83657    
   2530000  -29.500829      48.377902      324.59567    
   2540000  -27.501696      40.91136       274.49827    
   2550000  -29.897261      37.137562      249.17765    
   2560000  -23.754787      40.066985      268.83286    
   2570000  -20.817776      52.757912      353.98372    
   2580000  -24.84321       41.724907      279.95683    
   2590000  -10.056996      41.93824       281.38821    
   2600000  -10.684058      45.674085      306.45418    
   2610000  -11.69509       40.162635      269.47463    
   2620000  -21.8559        41.447971      278.09871    
   2630000  -16.303974      52.46661       352.02921    
   2640000  -11.227245      48.427136      324.92601    
   2650000  -19.279398      47.170465      316.49427    
   2660000  -22.55846       38.053051      255.3202     
   2670000  -29.82849       44.061327      295.63324    
   2680000  -33.167187      42.783894      287.0622     
   2690000  -29.227494      40.569711      272.20595    
   2700000  -27.778926      37.792899      253.57469    
   2710000  -31.609837      40.117432      269.17134    
   2720000  -29.547921      47.060615      315.75722    
   2730000  -25.63765       52.710509      353.66567    
   2740000  -18.469052      51.520854      345.68358    
   2750000  -24.136854      44.710015      299.98567    
   2760000  -15.154592      41.4002        277.77818    
   2770000  -19.261821      50.791503      340.78993    
   2780000  -17.233389      50.39529       338.13151    
   2790000  -26.231471      42.90208       287.85518    
   2800000  -35.800432      41.691157      279.73038    
   2810000  -24.457171      38.461785      258.06264    
   2820000  -31.676472      48.53267       325.6341     
   2830000  -19.775466      41.309314      277.16838    
   2840000  -25.270805      47.426527      318.21234    
   2850000  -18.179507      44.653608      299.6072     
   2860000  -26.71806       54.08139       362.86371    
   2870000  -14.721541      49.472822      331.94213    
   2880000  -15.878489      45.091517      302.54539    
   2890000  -21.773819      47.033601      315.57597    
   2900000  -32.460879      50.899336      341.51345    
   2910000  -27.363493      50.697386      340.15845    
   2920000  -34.005204      44.872756      301.07759    
   2930000  -22.802877      38.127434      255.81928    
   2940000  -25.225331      47.548121      319.02819    
   2950000  -23.724074      59.352095      398.22796    
   2960000  -25.029947      39.161649      262.75844    
   2970000  -32.866637      39.063849      262.10223    
   2980000  -30.791363      39.839779      267.30841    
   2990000  -38.106933      42.291124      283.75592    
   3000000  -29.655633      45.363355      304.36931    
   3010000  -23.239624      48.26616       323.84593    
   3020000  -14.96836       48.02477       322.2263     
   3030000  -14.680089      48.903693      328.12351    
   3040000  -19.301748      57.776993      387.65968    
   3050000  -25.672631      42.483962      285.04978    
   3060000  -13.09348       38.440587      257.92041    
   3070000  -23.269488      47.316312      317.47284    
   3080000  -15.591074      44.341844      297.5154     
   3090000  -19.35594       50.324675      337.65771    
   3100000  -13.07695       47.129103      316.21675    
   3110000  -16.826636      51.253249      343.88806    
   3120000  -12.645482      46.521607      312.1407     
   3130000  -15.997164      52.370596      351.38499    
   3140000  -26.220555      53.42067       358.43056    
   3150000  -17.12096       44.317913      297.35483    
   3160000  -34.321053      52.548171      352.57645    
   3170000  -29.619271      45.118974      302.72962    
   3180000  -9.1853987      45.254847      303.64127    
   3190000  -28.395805      49.243386      330.40271    
   3200000  -26.917386      38.408818      257.70725    
   3210000  -27.251828      36.946758      247.89744    
   3220000  -15.251245      35.054825      235.20334    
   3230000  -30.289999      37.103219      248.94722    
   3240000  -22.43749       48.36014       324.4765     
   3250000  -15.584317      46.310685      310.7255     
   3260000  -24.741852      40.617725      272.5281     
   3270000  -34.705768      41.672525      279.60537    
   3280000  -29.674237      49.024384      328.9333     
   3290000  -21.316069      44.176506      296.40605    
   3300000  -24.312686      44.213216      296.65235    
   3310000  -34.958503      48.806477      327.47123    
   3320000  -28.783121      36.764025      246.67137    
   3330000  -33.229321      47.316824      317.47628    
   3340000  -29.321335      46.582065      312.54635    
   3350000  -33.976419      45.755563      307.00086    
   3360000  -25.625609      40.955989      274.79771    
   3370000  -24.226792      41.456869      278.15841    
   3380000  -34.897021      53.901027      361.65355    
   3390000  -27.748776      45.999484      308.63747    
   3400000  -28.85784       42.854497      287.53592    
   3410000  -14.83685       45.395326      304.58382    
   3420000  -21.605806      54.80432       367.71427    
   3430000  -20.618614      44.455001      298.27463    
   3440000  -27.095729      53.784147      360.86934    
   3450000  -23.769052      46.866839      314.45707    
   3460000  -23.361002      49.539783      332.39141    
   3470000  -15.349256      44.000189      295.22303    
   3480000  -30.001306      51.161957      343.27553    
   3490000  -22.979903      43.560103      292.27024    
   3500000  -28.080328      38.442074      257.93038    
   3510000  -47.412492      39.619952      265.83346    
   3520000  -26.665321      38.072608      255.45142    
   3530000  -32.586313      39.762861      266.79232    
   3540000  -33.354324      39.531557      265.24036    
   3550000  -28.330121      45.442709      304.90174    
   3560000  -34.40094       43.363868      290.95358    
   3570000  -32.587504      46.353366      311.01188    
   3580000  -27.3228        41.759887      280.19154    
   3590000  -14.135281      40.659735      272.80997    
   3600000  -24.446813      44.386709      297.81642    
   3610000  -29.149941      49.808055      334.19141    
   3620000  -25.575458      40.779894      273.61619    
   3630000  -18.380745      41.487332      278.3628     
   3640000  -22.838801      41.606427      279.16188    
   3650000  -22.010875      40.180052      269.5915     
   3660000  -23.958709      47.359549      317.76294    
   3670000  -14.254851      40.387719      270.98485    
   3680000  -22.772608      54.085763      362.89305    
   3690000  -19.193437      49.311828      330.86193    
   3700000  -23.329219      49.050176      329.10635    
   3710000  -31.829226      49.747374      333.78426    
   3720000  -14.482352      46.796774      313.98696    
   3730000  -13.390174      46.307267      310.70257    
   3740000  -22.48393       42.558489      285.54982    
   3750000  -35.612397      51.244393      343.82863    
   3760000  -26.48586       43.589382      292.46669    
   3770000  -27.448376      45.985286      308.54221    
   3780000  -25.016317      41.289754      277.03714    
   3790000  -37.882999      49.402602      331.47098    
   3800000  -31.790455      49.782213      334.01802    
   3810000  -19.681091      42.379608      284.34961    
   3820000  -18.099276      49.857362      334.52223    
   3830000  -14.134404      38.557434      258.7044     
   3840000  -20.742222      41.823131      280.61587    
   3850000  -20.10835       43.047391      288.83015    
   3860000  -27.495506      41.030409      275.29704    
   3870000  -22.645745      43.748833      293.53654    
   3880000  -29.313594      42.967276      288.29261    
   3890000  -24.443119      48.805657      327.46573    
   3900000  -24.053673      47.79466       320.68236    
   3910000  -17.07044       46.149988      309.64729    
   3920000  -29.466882      52.396502      351.55881    
   3930000  -25.364051      45.369332      304.40942    
   3940000  -19.929032      49.394995      331.41995    
   3950000  -38.92297       51.946739      348.54109    
   3960000  -30.263775      41.232361      276.65205    
   3970000  -26.501182      44.744328      300.2159     
   3980000  -28.016375      39.370641      264.16069    
   3990000  -24.832878      43.952048      294.90002    
   4000000  -24.616883      39.766401      266.81607    
Loop time of 196.4 on 1 procs for 4000000 steps with 51 atoms

Performance: 17596.728 ns/day, 0.001 hours/ns, 20366.583 timesteps/s, 1.039 Matom-step/s
99.5% CPU use with 1 MPI tasks x 1 OpenMP threads

MPI task timing breakdown:
Section |  min time  |  avg time  |  max time  |%varavg| %total
---------------------------------------------------------------
Pair    | 169.59     | 169.59     | 169.59     |   0.0 | 86.35
Bond    | 15.309     | 15.309     | 15.309     |   0.0 |  7.79
Neigh   | 1.3469     | 1.3469     | 1.3469     |   0.0 |  0.69
Comm    | 2.6995     | 2.6995     | 2.6995     |   0.0 |  1.37
Output  | 0.092236   | 0.092236   | 0.092236   |   0.0 |  0.05
Modify  | 6.3824     | 6.3824     | 6.3824     |   0.0 |  3.25
Other   |            | 0.9834     |            |       |  0.50

Nlocal:             51 ave          51 max          51 min
Histogram: 1 0 0 0 0 0 0 0 0 0
Nghost:              0 ave           0 max           0 min
Histogram: 1 0 0 0 0 0 0 0 0 0
Neighs:            541 ave         541 max         541 min
Histogram: 1 0 0 0 0 0 0 0 0 0

Total # of neighbors = 541
Ave neighs/atom = 10.607843
Ave special neighs/atom = 5.7647059
Neighbor list builds = 7582
Dangerous builds = 0

# ===============================
# MAIN SA LOOP — 10 cycles
# ===============================
variable c loop ${ncycle}
variable c loop 10
label cyc

  # Heat 298 → 500
  variable seedH equal 44000+${c}
  variable seedH equal 44000+1
  unfix fxl
  fix fxl all langevin ${T_eq} ${T_high} 100000.0 ${seedH}
  fix fxl all langevin 298 ${T_high} 100000.0 ${seedH}
  fix fxl all langevin 298 500 100000.0 ${seedH}
  fix fxl all langevin 298 500 100000.0 44001
  run ${n_heat}
  run 8000000
Generated 0 of 6 mixed pair_coeff terms from geometric mixing rule
Per MPI rank memory allocation (min/avg/max) = 9.625 | 9.625 | 9.625 Mbytes
   Step         PotEng         KinEng          Temp     
   4000000  -24.616883      39.766401      266.81607    
   4010000  -14.916068      36.56913       245.3637     
   4020000  -16.361522      41.611276      279.19442    
   4030000  -15.506935      44.214777      296.66283    
   4040000  -12.361551      36.614247      245.66642    
   4050000  -24.002893      49.628654      332.9877     
   4060000  -24.660647      46.5269        312.17622    
   4070000  -26.379893      52.894883      354.90274    
   4080000  -26.793795      45.052582      302.28415    
   4090000  -21.725852      37.46483       251.37348    
   4100000  -28.41378       46.553849      312.35703    
   4110000  -32.703908      41.45616       278.15365    
   4120000  -24.97709       43.36335       290.95011    
   4130000  -39.195377      47.154688      316.38841    
   4140000  -43.947938      44.820591      300.72759    
   4150000  -35.00183       49.915311      334.91105    
   4160000  -30.887353      50.938647      341.77721    
   4170000  -26.918687      37.541016      251.88466    
   4180000  -34.008787      47.254154      317.05578    
   4190000  -44.588563      47.524916      318.87249    
   4200000  -39.157357      50.943308      341.80848    
   4210000  -43.806427      47.964166      321.81968    
   4220000  -21.318327      49.374666      331.28354    
   4230000  -25.746577      55.620547      373.19082    
   4240000  -34.838453      47.439206      318.29741    
   4250000  -32.941561      41.46609       278.22028    
   4260000  -33.709007      45.222519      303.42436    
   4270000  -33.213287      38.492765      258.2705     
   4280000  -32.700767      48.726043      326.93156    
   4290000  -29.525017      44.738356      300.17583    
   4300000  -37.162423      44.575378      299.08231    
   4310000  -37.807444      40.717577      273.19807    
   4320000  -29.930992      48.382211      324.62458    
   4330000  -33.383378      57.341868      384.74017    
   4340000  -30.775409      38.24123       256.58281    
   4350000  -39.737491      50.962696      341.93857    
   4360000  -38.240083      51.999958      348.89817    
   4370000  -39.698827      48.211308      323.4779     
   4380000  -35.010511      50.627576      339.69005    
   4390000  -32.809976      47.676018      319.88632    
   4400000  -34.086357      38.916424      261.11307    
   4410000  -30.805183      46.249744      310.31662    
   4420000  -26.592978      38.316055      257.08485    
   4430000  -21.289758      44.072573      295.7087     
   4440000  -27.940484      60.660901      407.00951    
   4450000  -12.203508      36.692177      246.1893     
   4460000  -16.480601      46.232401      310.20025    
   4470000  -25.990417      47.486406      318.61411    
   4480000  -33.261824      40.081511      268.93033    
   4490000  -28.503123      50.728161      340.36494    
   4500000  -25.065151      50.266943      337.27035    
   4510000  -17.799124      51.463534      345.29898    
   4520000  -13.723826      46.93012       314.88165    
   4530000  -17.391848      48.786195      327.33515    
   4540000  -21.839423      44.941999      301.54219    
   4550000  -33.608964      57.934699      388.71782    
   4560000  -32.80023       48.794217      327.38897    
   4570000  -24.526404      56.242803      377.3659     
   4580000  -18.964849      40.979531      274.95567    
   4590000  -23.003755      37.573746      252.10426    
   4600000  -22.644203      48.05451       322.42584    
   4610000  -16.991864      50.459966      338.56546    
   4620000  -24.923027      63.025368      422.8741     
   4630000  -24.327582      54.982878      368.91232    
   4640000  -21.151277      53.369062      358.08428    
   4650000  -17.116995      46.473573      311.81841    
   4660000  -20.508158      48.45534       325.11525    
   4670000  -29.473768      39.638485      265.95781    
   4680000  -23.790415      53.226817      357.12988    
   4690000  -15.422278      56.113592      376.49895    
   4700000  -14.967174      52.724404      353.7589     
   4710000  -16.558619      53.750841      360.64587    
   4720000  -12.324485      41.846209      280.77072    
   4730000  -6.6187346      44.249055      296.89282    
   4740000  -12.558726      52.367266      351.36265    
   4750000  -20.662341      59.470068      399.01951    
   4760000  -21.764134      44.817232      300.70505    
   4770000  -34.927201      50.268701      337.28215    
   4780000  -22.481289      48.374761      324.5746     
   4790000  -31.470136      57.482168      385.68152    
   4800000  -21.068681      37.429049      251.1334     
   4810000  -25.811791      47.2034        316.71525    
   4820000  -32.149462      54.624242      366.50602    
   4830000  -18.322302      53.916932      361.76027    
   4840000  -18.83779       51.367596      344.65528    
   4850000  -19.471034      52.722801      353.74814    
   4860000  -27.330321      57.858956      388.20961    
   4870000  -16.645913      47.979424      321.92205    
   4880000  -16.759948      56.110333      376.47708    
   4890000  -18.756441      50.500418      338.83687    
   4900000  -5.9264628      46.834874      314.2426     
   4910000  -20.451316      54.355245      364.70116    
   4920000  -6.9248991      48.012493      322.14393    
   4930000  -9.6908054      51.749381      347.2169     
   4940000  -14.11477       68.105812      456.96177    
   4950000  -13.162022      54.982193      368.90773    
   4960000  -13.170408      57.260124      384.1917     
   4970000  -26.997467      53.208127      357.00448    
   4980000  -25.965659      50.595198      339.47281    
   4990000  -13.266909      40.352228      270.74672    
   5000000  -21.99785       47.065513      315.79009    
   5010000  -26.397606      45.653065      306.31314    
   5020000  -23.788213      53.594969      359.60003    
   5030000  -19.370579      62.322284      418.15669    
   5040000  -3.4017088      54.140324      363.25914    
   5050000   2.5828693      53.136618      356.52469    
   5060000  -3.984514       53.953805      362.00767    
   5070000   1.9620126      40.793348      273.70646    
   5080000  -13.436366      53.238797      357.21027    
   5090000  -21.867855      49.20302       330.13187    
   5100000  -17.478051      48.203275      323.424      
   5110000  -18.629347      42.545673      285.46383    
   5120000  -37.843569      55.755007      374.09299    
   5130000  -35.40305       50.189117      336.74817    
   5140000  -23.346234      50.094977      336.11653    
   5150000  -12.638766      44.967145      301.7109     
   5160000  -9.0298732      41.744733      280.08986    
   5170000  -16.841054      49.753099      333.82267    
   5180000  -14.764192      44.070211      295.69285    
   5190000  -24.284066      52.355014      351.28044    
   5200000  -17.358146      44.907993      301.31402    
   5210000  -16.500911      54.348963      364.65902    
   5220000  -11.281174      45.50751       305.33653    
   5230000  -0.8405241      47.175461      316.52779    
   5240000  -1.4692432      46.528322      312.18576    
   5250000  -11.240168      60.568896      406.39219    
   5260000  -13.912765      54.655588      366.71634    
   5270000  -7.4569566      58.128506      390.01818    
   5280000  -9.8423355      45.530766      305.49257    
   5290000  -7.6002723      51.276692      344.04535    
   5300000  -10.760531      38.762235      260.07853    
   5310000  -25.891535      52.022702      349.05077    
   5320000  -22.297284      46.776959      313.85401    
   5330000  -22.944982      44.391674      297.84973    
   5340000  -25.76196       54.216517      363.77036    
   5350000  -21.910096      49.271877      330.59387    
   5360000  -14.679391      51.331728      344.41462    
   5370000  -4.1521905      59.631083      400.09985    
   5380000  -5.9633266      53.613248      359.72267    
   5390000  -10.39664       50.802964      340.86684    
   5400000  -17.878516      48.049216      322.39033    
   5410000  -6.4487555      50.705799      340.21489    
   5420000  -15.42172       48.053085      322.41628    
   5430000  -11.464975      43.391341      291.13791    
   5440000  -10.941405      51.986118      348.80531    
   5450000  -25.333255      61.283503      411.18691    
   5460000  -14.789955      55.211629      370.44715    
   5470000  -7.7024586      42.798193      287.15814    
   5480000  -16.235575      61.262249      411.0443     
   5490000   2.2975416      60.527531      406.11465    
   5500000  -13.530988      65.291334      438.07779    
   5510000  -3.2696308      49.710891      333.53948    
   5520000  -11.904853      48.063956      322.48922    
   5530000  -10.27042       50.664566      339.93824    
   5540000  -19.011581      62.052802      416.34859    
   5550000  -6.7113042      57.298731      384.45073    
   5560000   5.5933096      60.072367      403.06068    
   5570000   1.124587       50.942805      341.80511    
   5580000  -15.836593      57.982827      389.04074    
   5590000  -17.882163      48.730137      326.95902    
   5600000  -16.059316      61.843833      414.94649    
   5610000  -25.538754      51.396954      344.85226    
   5620000  -14.04487       52.39586       351.5545     
   5630000  -18.475772      47.282917      317.24877    
   5640000  -5.8165446      58.169946      390.29623    
   5650000   6.2181775      54.336471      364.5752     
   5660000  -12.05237       57.410618      385.20145    
   5670000  -4.9821382      49.522262      332.27385    
   5680000  -12.755772      56.577862      379.61401    
   5690000  -5.8157189      53.723895      360.46507    
   5700000  -1.5721167      47.183227      316.57989    
   5710000  -8.8157186      57.86134       388.22561    
   5720000  -3.1364837      55.36004       371.44292    
   5730000  -13.203738      51.074641      342.68967    
   5740000  -17.599846      46.696207      313.31219    
   5750000  -6.4478299      61.168806      410.41734    
   5760000   4.6457087      49.381327      331.32824    
   5770000   7.9663302      57.122749      383.26997    
   5780000   5.7413244      51.73603       347.12732    
   5790000  -3.3941157      48.993178      328.72392    
   5800000  -10.711909      50.090983      336.08974    
   5810000  -13.020791      58.321614      391.31386    
   5820000   4.6035541      58.56043       392.91621    
   5830000   10.92158       53.383638      358.18208    
   5840000   4.0389762      57.375035      384.96271    
   5850000   8.5327928      49.042853      329.05722    
   5860000   4.9424609      48.069523      322.52658    
   5870000   1.2427775      46.527873      312.18274    
   5880000   17.034283      55.224392      370.53278    
   5890000   12.774346      48.744832      327.05762    
   5900000   8.2486747      59.736767      400.80895    
   5910000   7.5096234      67.094715      450.17773    
   5920000   11.540838      51.503578      345.56766    
   5930000  -0.61425181     51.993962      348.85794    
   5940000  -20.413314      57.385845      385.03524    
   5950000  -2.0044297      50.245699      337.12782    
   5960000  -6.8882147      54.278098      364.18354    
   5970000  -6.5869992      43.580189      292.40501    
   5980000  -4.2100267      52.840143      354.53546    
   5990000   7.9178015      54.305366      364.3665     
   6000000  -0.4176565      66.231949      444.38893    
   6010000  -7.1619213      60.637738      406.85409    
   6020000   4.8894614      49.63755       333.04739    
   6030000   13.66881       53.295776      357.59257    
   6040000   1.895835       67.84077       455.18345    
   6050000   3.8189418      53.880917      361.51862    
   6060000  -11.133817      62.589776      419.95145    
   6070000  -9.5362944      50.07469       335.98042    
   6080000  -9.9869386      60.31473       404.68684    
   6090000  -5.6536166      56.321511      377.894      
   6100000   2.7763484      57.621241      386.61465    
   6110000   5.6523808      58.248324      390.82211    
   6120000   1.5195623      51.924372      348.39102    
   6130000   5.0379416      45.997131      308.62168    
   6140000  -0.39504952     51.080895      342.73163    
   6150000   4.1356843      54.359669      364.73085    
   6160000   4.7470705      48.187898      323.32083    
   6170000   1.5052873      50.030935      335.68684    
   6180000   1.1595329      53.853831      361.33689    
   6190000   12.207906      48.07369       322.55454    
   6200000   14.342628      43.635661      292.7772     
   6210000   6.4324414      55.633262      373.27613    
   6220000   5.217087       47.273715      317.18703    
   6230000   12.230929      47.55218       319.05542    
   6240000  -2.7957073      39.181483      262.89151    
   6250000   5.5891877      52.308933      350.97126    
   6260000   11.625425      59.455268      398.92021    
   6270000   20.148725      57.28083       384.33063    
   6280000   17.556196      51.845322      347.86062    
   6290000   3.4327798      58.035069      389.39126    
   6300000  -3.91275        59.727762      400.74853    
   6310000   9.3121145      62.299252      418.00216    
   6320000   16.116142      66.668659      447.31907    
   6330000   27.504348      53.536246      359.20602    
   6340000   19.05834       61.735974      414.2228     
   6350000   26.748877      49.217702      330.23038    
   6360000   14.55397       61.708347      414.03743    
   6370000   8.3405254      59.540763      399.49384    
   6380000   18.597457      50.499352      338.82972    
   6390000   26.738447      61.270539      411.09992    
   6400000   20.176828      70.486058      472.93223    
   6410000   17.210997      45.958235      308.36071    
   6420000   8.0576359      43.857267      294.26408    
   6430000   11.876746      41.172626      276.25126    
   6440000   24.016287      56.952829      382.12988    
   6450000   36.154518      52.584111      352.81759    
   6460000   39.57947       43.729001      293.40347    
   6470000   29.650507      59.367018      398.32808    
   6480000   29.670222      57.376148      384.97017    
   6490000   45.352528      59.06875       396.32683    
   6500000   36.804409      59.027859      396.05247    
   6510000   31.83735       58.571179      392.98834    
   6520000   33.026242      62.813727      421.45407    
   6530000   35.176465      48.491302      325.35654    
   6540000   37.635263      47.294638      317.32742    
   6550000   29.303548      47.918576      321.51379    
   6560000   27.774966      50.571242      339.31207    
   6570000   30.670533      59.578466      399.74682    
   6580000   24.513286      59.055466      396.2377     
   6590000   27.858414      60.672805      407.08938    
   6600000   31.450557      60.546554      406.24229    
   6610000   32.836949      50.89093       341.45705    
   6620000   32.264926      37.603387      252.30314    
   6630000   30.659695      43.02949       288.71005    
   6640000   33.638394      53.084118      356.17243    
   6650000   35.459644      50.155261      336.52102    
   6660000   32.883024      47.892421      321.3383     
   6670000   41.744095      48.341704      324.3528     
   6680000   32.66426       59.552641      399.57354    
   6690000   25.251829      58.85835       394.91513    
   6700000   8.2776388      49.594957      332.76161    
   6710000  -1.9951995      57.140627      383.38993    
   6720000   8.467431       49.138298      329.69761    
   6730000   9.6766291      52.475538      352.08911    
   6740000   11.541098      66.323888      445.0058     
   6750000   13.80985       53.774259      360.80299    
   6760000   9.9411012      59.913938      401.9977     
   6770000   17.261419      47.61131       319.45216    
   6780000   7.8302811      47.411807      318.11357    
   6790000   5.4325247      45.441801      304.89565    
   6800000   0.4781095      59.627636      400.07672    
   6810000   24.382039      54.09125       362.92987    
   6820000   10.129876      47.971609      321.86962    
   6830000   1.1811899      58.982971      395.75129    
   6840000   2.8951335      46.808194      314.06358    
   6850000   8.5608306      55.657283      373.4373     
   6860000   9.2446669      61.281639      411.1744     
   6870000   11.729373      57.259845      384.18983    
   6880000   15.652806      51.690672      346.82298    
   6890000   8.0859973      52.249465      350.57226    
   6900000   2.3300208      57.931847      388.69868    
   6910000   5.7992654      58.968249      395.65251    
   6920000   20.753079      45.55425       305.65014    
   6930000   21.727594      55.947065      375.38162    
   6940000   8.4289521      57.657261      386.85632    
   6950000   7.5986254      51.146843      343.17412    
   6960000   7.4869935      60.050708      402.91536    
   6970000   11.025904      50.92948       341.71571    
   6980000   2.52412        61.856146      415.0291     
   6990000   15.099537      58.404493      391.86994    
   7000000   19.192499      59.749034      400.89125    
   7010000   13.751732      54.831435      367.8962     
   7020000   20.013984      60.938829      408.87428    
   7030000   5.1368983      60.553672      406.29004    
   7040000   13.41682       49.410624      331.52481    
   7050000  -4.7013889      54.962376      368.77476    
   7060000  -4.7923645      55.771927      374.20651    
   7070000  -7.0077225      60.284045      404.48096    
   7080000  -0.70492445     58.19208       390.44474    
   7090000   6.227754       57.847414      388.13217    
   7100000  -0.55211234     51.796164      347.53079    
   7110000  -4.2260022      57.594368      386.43434    
   7120000   17.999181      52.809245      354.32815    
   7130000   12.944431      51.44783       345.19362    
   7140000   15.332058      54.679795      366.87876    
   7150000   5.1849996      54.066791      362.76576    
   7160000   21.953859      53.710202      360.37319    
   7170000   16.64411       61.698526      413.97153    
   7180000   12.760414      56.22166       377.22404    
   7190000   7.4375312      69.245415      464.60804    
   7200000   20.074947      57.048661      382.77287    
   7210000   4.3400189      50.808694      340.90528    
   7220000  -9.4003851      65.866911      441.93967    
   7230000   10.519367      51.922585      348.37902    
   7240000   5.6885939      54.673278      366.83504    
   7250000   17.829861      46.207189      310.03108    
   7260000   1.4617635      54.992356      368.97592    
   7270000   7.8411864      66.989325      449.4706     
   7280000   5.5757701      55.61934       373.18272    
   7290000   16.11758       61.386136      411.87553    
   7300000   10.169679      55.318663      371.1653     
   7310000   25.456263      59.532993      399.44171    
   7320000   13.691198      53.729851      360.50503    
   7330000   15.975148      61.093777      409.91392    
   7340000   30.936511      49.351032      331.12497    
   7350000   29.035735      64.312123      431.50769    
   7360000   38.779932      45.055091      302.30099    
   7370000   28.777137      57.094283      383.07898    
   7380000   14.778203      61.5121        412.7207     
   7390000   28.720166      68.363862      458.69318    
   7400000   37.344404      64.309242      431.48836    
   7410000   34.555295      60.904227      408.64212    
   7420000   24.862245      59.157743      396.92394    
   7430000   35.486722      51.516711      345.65578    
   7440000   27.498173      55.369629      371.50726    
   7450000   27.528993      56.432784      378.64059    
   7460000   37.803648      57.335771      384.69926    
   7470000   42.224353      61.97189       415.8057     
   7480000   39.688509      56.307285      377.79854    
   7490000   32.987472      52.737487      353.84668    
   7500000   22.273796      59.142483      396.82155    
   7510000   21.752533      61.997041      415.97445    
   7520000   13.583113      61.785521      414.55524    
   7530000   10.588608      57.897877      388.47076    
   7540000   9.2457042      52.644916      353.22557    
   7550000   17.480211      58.873687      395.01804    
   7560000   21.930575      51.794618      347.52042    
   7570000   21.424152      53.484066      358.85591    
   7580000   14.831239      72.775686      488.29469    
   7590000   22.71406       62.003732      416.01934    
   7600000   32.236757      69.13614       463.87484    
   7610000   27.654743      70.84361       475.33126    
   7620000   17.150863      61.433942      412.19629    
   7630000   25.853204      67.515403      453.00037    
   7640000   35.068356      55.37649       371.5533     
   7650000   35.264085      63.289079      424.64349    
   7660000   29.548892      67.430727      452.43223    
   7670000   35.397084      54.846785      367.99919    
   7680000   37.812773      59.721309      400.70523    
   7690000   34.51239       64.35315       431.78297    
   7700000   32.742088      66.124663      443.66909    
   7710000   40.657366      59.894557      401.86765    
   7720000   35.17191       52.682753      353.47944    
   7730000   36.295313      51.873514      348.04978    
   7740000   33.244535      50.745403      340.48062    
   7750000   39.211884      52.939476      355.20194    
   7760000   27.95897       66.562023      446.60358    
   7770000   47.016222      43.054797      288.87985    
   7780000   38.255895      66.497527      446.17084    
   7790000   34.348117      58.841027      394.7989     
   7800000   36.735184      63.422593      425.53932    
   7810000   30.446232      77.028927      516.83217    
   7820000   19.626606      75.85795       508.97541    
   7830000   27.945981      49.353909      331.14428    
   7840000   16.912564      64.812803      434.86705    
   7850000   20.118054      66.58457       446.75487    
   7860000   14.807847      53.093561      356.23579    
   7870000   7.1572264      57.099883      383.11655    
   7880000  -0.79862744     51.914652      348.3258     
   7890000  -4.1179098      77.307863      518.70372    
   7900000   23.07702       60.853011      408.29848    
   7910000   18.320246      51.877878      348.07906    
   7920000   10.279797      56.917645      381.89381    
   7930000   23.05714       60.427095      405.44077    
   7940000   10.610544      62.556146      419.72581    
   7950000   18.368252      58.583123      393.06847    
   7960000  -2.2350717      67.606273      453.61007    
   7970000   12.399797      58.557027      392.89338    
   7980000   7.6520286      43.862097      294.29649    
   7990000   10.852156      57.981415      389.03127    
   8000000   12.324095      52.491177      352.19404    
   8010000   22.66252       53.374245      358.11907    
   8020000   12.913746      39.550138      265.36504    
   8030000   19.738736      58.299361      391.16455    
   8040000   16.035363      71.02538       476.55086    
   8050000   16.351678      58.856844      394.90503    
   8060000   21.289233      53.258307      357.34116    
   8070000   14.590352      57.431094      385.33884    
   8080000   28.648371      55.004299      369.05605    
   8090000   30.234823      53.311409      357.69746    
   8100000   7.5948135      67.422321      452.37583    
   8110000   15.805389      51.71818       347.00755    
   8120000   0.66399589     60.710075      407.33944    
   8130000   13.420229      64.462495      432.51662    
   8140000   26.173694      53.367395      358.0731     
   8150000   19.463992      60.451556      405.60488    
   8160000   19.260394      60.557763      406.31749    
   8170000   11.842297      60.79019       407.87698    
   8180000   22.724489      70.855189      475.40895    
   8190000   28.926288      63.736094      427.64277    
   8200000   19.660411      64.875695      435.28902    
   8210000   16.288358      57.011234      382.52175    
   8220000   16.348707      57.940381      388.75594    
   8230000   5.5006781      63.51965       426.19053    
   8240000   9.3309835      63.885309      428.64395    
   8250000   10.545417      65.18508       437.36487    
   8260000   20.004567      57.56472       386.23541    
   8270000   10.417758      53.583422      359.52256    
   8280000   12.539881      58.703094      393.87343    
   8290000   10.081458      59.224042      397.36878    
   8300000   13.199096      54.902008      368.36972    
   8310000   22.201812      56.68591       380.33896    
   8320000   24.147035      47.516384      318.81525    
   8330000   8.0444775      53.659799      360.03501    
   8340000   3.3771973      56.148724      376.73467    
   8350000   16.44461       56.616981      379.87648    
   8360000   12.94153       63.083811      423.26623    
   8370000   9.6953889      61.436037      412.21035    
   8380000   13.1765        58.51275       392.5963     
   8390000   10.123979      54.020685      362.45641    
   8400000   33.46494       62.499736      419.34733    
   8410000   16.792454      73.751423      494.84148    
   8420000   30.913919      58.316469      391.27933    
   8430000   36.4837        65.040193      436.39274    
   8440000   22.509484      61.419076      412.09655    
   8450000   33.232777      70.471471      472.83436    
   8460000   47.842447      57.612855      386.55838    
   8470000   52.033301      64.06887       429.87556    
   8480000   48.410813      83.510929      560.32372    
   8490000   37.701777      71.930335      482.62273    
   8500000   39.467312      66.747239      447.84631    
   8510000   37.486377      65.800519      441.49421    
   8520000   47.322138      58.497913      392.49675    
   8530000   40.909767      64.265653      431.19589    
   8540000   43.878155      70.182228      470.89366    
   8550000   42.838951      54.023712      362.47672    
   8560000   38.478723      48.906735      328.14392    
   8570000   29.770417      74.122851      497.33361    
   8580000   36.076149      59.30798       397.93196    
   8590000   38.599151      60.457538      405.64502    
   8600000   32.529346      54.297081      364.31091    
   8610000   43.859294      50.489503      338.76364    
   8620000   38.434987      81.989156      550.11325    
   8630000   46.959085      67.726848      454.41908    
   8640000   46.371869      70.637281      473.94688    
   8650000   51.143919      63.810399      428.14133    
   8660000   52.703005      55.421004      371.85197    
   8670000   28.584221      81.780867      548.71572    
   8680000   41.789038      80.502085      540.13563    
   8690000   44.113351      59.097423      396.51921    
   8700000   39.623267      67.424648      452.39144    
   8710000   38.92958       57.204281      383.81701    
   8720000   32.926476      60.632811      406.82103    
   8730000   41.065592      60.460754      405.6666     
   8740000   40.067998      63.038906      422.96493    
   8750000   48.720933      59.711346      400.63838    
   8760000   38.391263      72.471849      486.25607    
   8770000   44.077648      52.574574      352.7536     
   8780000   47.895222      61.557751      413.02699    
   8790000   36.707321      63.320237      424.85255    
   8800000   43.621348      64.69397       434.06973    
   8810000   48.194393      52.892892      354.88938    
   8820000   37.895297      68.648044      460.59992    
   8830000   63.634162      68.787225      461.53377    
   8840000   41.639152      74.040013      496.7778     
   8850000   47.56975       69.261899      464.71864    
   8860000   43.133214      61.93102       415.53148    
   8870000   39.660269      76.351455      512.28662    
   8880000   42.386699      80.393639      539.408      
   8890000   39.827259      67.856465      455.28876    
   8900000   42.713924      79.4464        533.05241    
   8910000   52.19575       71.48337       479.62378    
   8920000   38.923576      79.185561      531.3023     
   8930000   34.460521      69.663604      467.41391    
   8940000   42.965234      51.638031      346.46979    
   8950000   35.994045      59.085582      396.43977    
   8960000   19.407913      74.510014      499.93131    
   8970000   35.158418      54.621216      366.48572    
   8980000   49.727126      64.896793      435.43058    
   8990000   46.326151      64.669898      433.90821    
   9000000   45.450879      78.644919      527.67481    
   9010000   34.732264      62.601801      420.03214    
   9020000   34.199827      72.487948      486.36409    
   9030000   41.165036      57.162023      383.53348    
   9040000   36.890499      60.429561      405.45731    
   9050000   41.163141      55.138015      369.95323    
   9060000   30.481447      65.940785      442.43534    
   9070000   9.7839731      68.967517      462.74345    
   9080000   11.233313      74.951843      502.8958     
   9090000   21.110888      61.070602      409.75843    
   9100000   22.817588      61.458794      412.36303    
   9110000   27.473022      49.909583      334.87261    
   9120000   22.031394      62.864433      421.79429    
   9130000   18.749265      73.868308      495.62573    
   9140000   13.141483      77.629319      520.86056    
   9150000   14.956367      64.910955      435.52561    
   9160000   20.632616      58.98041       395.73411    
   9170000   18.536399      57.254176      384.15179    
   9180000   36.949043      71.633861      480.63352    
   9190000   32.647075      59.125685      396.70884    
   9200000   21.846354      51.442245      345.15614    
   9210000   19.764804      78.28404       525.25346    
   9220000   42.911677      62.703232      420.7127     
   9230000   38.677214      64.139468      430.34925    
   9240000   29.383284      64.766145      434.55399    
   9250000   13.163882      67.209727      450.94941    
   9260000   27.037731      54.387728      364.91911    
   9270000   22.276273      70.992571      476.33073    
   9280000   19.16989       70.215392      471.11618    
   9290000   33.050734      66.838225      448.45679    
   9300000   20.838531      65.090564      436.73071    
   9310000   24.785095      63.041952      422.98537    
   9320000   27.482569      60.589131      406.52795    
   9330000   29.463781      77.298432      518.64044    
   9340000   23.377944      65.512461      439.56146    
   9350000   20.934527      61.677451      413.83013    
   9360000   19.231848      63.615263      426.83205    
   9370000   21.982409      69.617679      467.10577    
   9380000   31.368985      54.341455      364.60864    
   9390000   36.720317      55.536494      372.62686    
   9400000   38.877836      57.326906      384.63978    
   9410000   36.739079      46.645663      312.97307    
   9420000   30.936555      56.025321      375.90668    
   9430000   36.860019      63.770543      427.87391    
   9440000   25.098125      73.377753      492.33431    
   9450000   27.024836      60.073134      403.06583    
   9460000   44.777222      65.731543      441.03141    
   9470000   44.198022      66.232283      444.39117    
   9480000   45.337969      58.811563      394.60121    
   9490000   29.773269      75.496645      506.5512     
   9500000   35.145503      68.988211      462.8823     
   9510000   18.111473      73.017139      489.91474    
   9520000   22.7913        69.736038      467.89991    
   9530000   25.181242      47.100018      316.0216     
   9540000   32.015532      61.520495      412.77703    
   9550000   33.63622       53.498324      358.95158    
   9560000   31.750457      66.290468      444.78157    
   9570000   27.231422      61.504146      412.66733    
   9580000   41.62244       53.630858      359.84083    
   9590000   30.495892      66.137292      443.75382    
   9600000   46.617179      83.018553      557.02008    
   9610000   39.686779      69.513427      466.40628    
   9620000   26.498445      64.428098      432.28584    
   9630000   35.814635      69.492588      466.26646    
   9640000   26.867486      57.988602      389.07949    
   9650000   25.339485      60.505391      405.96609    
   9660000   14.300478      66.910372      448.94086    
   9670000   24.739946      63.987232      429.32781    
   9680000   13.575761      63.734258      427.63046    
   9690000   6.322414       60.452746      405.61287    
   9700000   20.993471      57.597131      386.45288    
   9710000   9.8649835      68.701346      460.95755    
   9720000   24.901777      59.769176      401.0264     
   9730000   23.994011      48.705348      326.7927     
   9740000   43.346691      65.695531      440.78979    
   9750000   47.816509      70.5999        473.69607    
   9760000   41.093111      60.675334      407.10634    
   9770000   52.730009      61.315763      411.40336    
   9780000   36.955619      65.193074      437.41851    
   9790000   39.944838      89.327175      599.34832    
   9800000   47.848064      73.438136      492.73946    
   9810000   43.833788      63.418747      425.51351    
   9820000   51.954481      67.718147      454.3607     
   9830000   46.78922       99.583936      668.16694    
   9840000   44.13278       67.042003      449.82405    
   9850000   37.86719       71.774572      481.57763    
   9860000   44.030493      71.743196      481.36711    
   9870000   41.602217      63.907583      428.79339    
   9880000   43.041208      65.690857      440.75842    
   9890000   33.269576      68.919909      462.42402    
   9900000   42.921915      66.110149      443.5717     
   9910000   41.160805      76.614188      514.04945    
   9920000   34.183433      80.506813      540.16735    
   9930000   37.797597      71.458416      479.45635    
   9940000   41.080908      65.044011      436.41835    
   9950000   41.801244      55.864887      374.83024    
   9960000   60.465316      74.420485      499.33061    
   9970000   52.067675      82.514031      553.63495    
   9980000   49.761545      72.398308      485.76264    
   9990000   41.72287       84.842609      569.25874    
  10000000   54.287021      62.287215      417.9214     
  10010000   35.218649      64.320041      431.56082    
  10020000   33.680874      65.176888      437.30991    
  10030000   44.194032      62.36553       418.44686    
  10040000   36.531022      78.668084      527.83024    
  10050000   45.424503      72.290013      485.03603    
  10060000   40.15512       63.517704      426.17747    
  10070000   31.178264      100.68187      675.53364    
  10080000   36.322929      76.053335      510.28635    
  10090000   31.142284      75.5419        506.85484    
  10100000   30.317159      74.88165       502.42483    
  10110000   31.286387      58.111192      389.90201    
  10120000   37.277418      66.671395      447.33743    
  10130000   40.972957      68.058671      456.64547    
  10140000   37.748758      75.116542      504.00086    
  10150000   39.389783      59.984923      402.47397    
  10160000   37.348146      70.833116      475.26085    
  10170000   31.624866      74.014257      496.60499    
  10180000   40.906169      75.665428      507.68366    
  10190000   48.633146      68.982826      462.84617    
  10200000   40.199459      59.296779      397.85681    
  10210000   41.617329      73.81777       495.28664    
  10220000   36.546887      64.430519      432.30208    
  10230000   37.939302      61.018069      409.40595    
  10240000   45.165245      77.440133      519.5912     
  10250000   35.68726       68.58404       460.17048    
  10260000   40.261543      68.324758      458.43081    
  10270000   32.314371      65.296034      438.10932    
  10280000   46.775135      76.560483      513.68911    
  10290000   42.495776      85.603014      574.36075    
  10300000   33.68477       71.555366      480.10685    
  10310000   45.185757      72.140721      484.03434    
  10320000   42.188717      85.262028      572.07287    
  10330000   43.707986      70.762389      474.7863     
  10340000   27.508588      69.505883      466.35567    
  10350000   13.649194      63.453201      425.74468    
  10360000   30.839463      67.692461      454.18835    
  10370000   40.679956      68.271584      458.07403    
  10380000   37.655692      63.162032      423.79105    
  10390000   29.641802      65.397933      438.79303    
  10400000   15.314518      71.118126      477.17315    
  10410000   25.766225      67.4142        452.32134    
  10420000   31.263214      77.95363       523.03655    
  10430000   41.604721      66.767532      447.98247    
  10440000   34.422297      73.278498      491.66835    
  10450000   30.572681      70.08779       470.26002    
  10460000   45.306548      66.292573      444.79569    
  10470000   49.257024      63.999003      429.40678    
  10480000   33.396107      63.753123      427.75703    
  10490000   36.131957      58.769366      394.31809    
  10500000   23.495005      63.909421      428.80573    
  10510000   26.582225      59.460024      398.95211    
  10520000   31.364236      63.960031      429.1453     
  10530000   29.265898      60.992588      409.23498    
  10540000   34.158291      65.864893      441.92614    
  10550000   46.797164      58.899815      395.19335    
  10560000   41.01249       81.267233      545.26945    
  10570000   42.525259      70.659794      474.09793    
  10580000   31.739428      78.85586       529.09014    
  10590000   29.411473      63.176008      423.88483    
  10600000   30.348891      67.155543      450.58586    
  10610000   48.792101      71.958228      482.80988    
  10620000   44.541835      63.644706      427.0296     
  10630000   45.929739      58.779676      394.38726    
  10640000   35.806295      71.2622        478.13983    
  10650000   41.017242      68.862098      462.03614    
  10660000   36.033542      65.112864      436.88033    
  10670000   46.426712      77.25672       518.36057    
  10680000   48.222069      73.693906      494.45557    
  10690000   38.678513      78.53022       526.90523    
  10700000   48.182471      70.455022      472.72399    
  10710000   50.337955      70.235652      471.25211    
  10720000   49.988119      67.014568      449.63998    
  10730000   49.463002      70.904152      475.73747    
  10740000   39.320233      72.893473      489.08499    
  10750000   38.142748      68.76608       461.39189    
  10760000   48.27546       74.539938      500.13209    
  10770000   39.981625      59.665177      400.32861    
  10780000   40.581298      78.382593      525.91471    
  10790000   41.300176      65.785547      441.39376    
  10800000   38.189829      66.059059      443.22891    
  10810000   52.672345      66.46785       445.97172    
  10820000   38.228396      72.961208      489.53947    
  10830000   43.718686      73.799302      495.16273    
  10840000   39.627293      76.858615      515.68945    
  10850000   38.568398      76.456897      512.99409    
  10860000   32.341525      62.086123      416.57215    
  10870000   40.141301      68.731728      461.16141    
  10880000   42.876165      67.985868      456.157      
  10890000   40.200632      56.874187      381.60222    
  10900000   44.373213      58.597807      393.167      
  10910000   45.76006       64.752914      434.46522    
  10920000   43.792805      66.424755      445.68257    
  10930000   45.738785      59.280233      397.7458     
  10940000   48.497181      72.259717      484.83275    
  10950000   36.396111      71.906878      482.46535    
  10960000   47.970363      57.445941      385.43846    
  10970000   40.327213      71.317738      478.51246    
  10980000   50.53138       69.19673       464.28138    
  10990000   55.85146       72.949274      489.45939    
  11000000   46.696899      75.216899      504.67422    
  11010000   43.906151      76.266757      511.71833    
  11020000   48.453572      82.422833      553.02305    
  11030000   54.170199      62.663732      420.44767    
  11040000   27.878253      76.186823      511.18201    
  11050000   40.209447      63.349989      425.05217    
  11060000   48.223908      68.931006      462.49848    
  11070000   40.722662      64.206025      430.79582    
  11080000   36.274071      66.426841      445.69657    
  11090000   39.112523      64.011421      429.49011    
  11100000   42.046065      77.096818      517.2877     
  11110000   72.403319      65.321213      438.27827    
  11120000   46.879962      71.204074      477.74982    
  11130000   49.448225      64.341188      431.70271    
  11140000   42.340279      65.104606      436.82492    
  11150000   43.569204      69.696934      467.63754    
  11160000   45.937443      78.12362       524.17711    
  11170000   54.629171      82.41663       552.98143    
  11180000   46.423007      75.093685      503.8475     
  11190000   46.899223      84.460142      566.69255    
  11200000   47.277057      62.03036       416.19801    
  11210000   40.31888       65.998432      442.82213    
  11220000   33.887194      64.504157      432.79616    
  11230000   40.375107      57.170978      383.59357    
  11240000   45.527127      76.929109      516.16243    
  11250000   51.177793      77.901794      522.68875    
  11260000   42.746414      81.600682      547.50676    
  11270000   45.8882        82.637921      554.4662     
  11280000   51.091836      72.895918      489.1014     
  11290000   52.027405      62.406886      418.72434    
  11300000   44.984681      66.104524      443.53396    
  11310000   56.905267      72.866271      488.90248    
  11320000   56.150299      69.281728      464.85168    
  11330000   46.819402      65.676219      440.66021    
  11340000   29.961559      71.555634      480.10865    
  11350000   47.514072      70.6263        473.8732     
  11360000   52.438456      62.032684      416.2136     
  11370000   40.107868      67.891174      455.52164    
  11380000   43.355308      71.216155      477.83088    
  11390000   40.995012      66.027675      443.01833    
  11400000   39.463742      69.531666      466.52866    
  11410000   35.902213      64.581638      433.31602    
  11420000   43.454208      89.608036      601.23278    
  11430000   59.597049      73.564559      493.5877     
  11440000   51.303233      72.504151      486.47281    
  11450000   47.092267      79.569437      533.87795    
  11460000   56.77902       83.502344      560.26612    
  11470000   47.397088      72.31672       485.21522    
  11480000   42.575801      73.047626      490.11929    
  11490000   45.863411      71.761131      481.48744    
  11500000   31.836125      70.292349      471.63253    
  11510000   46.782153      62.273219      417.82749    
  11520000   41.132682      73.049724      490.13337    
  11530000   41.535846      68.247374      457.91159    
  11540000   49.480748      72.787236      488.37218    
  11550000   43.045699      67.488662      452.82095    
  11560000   32.875794      71.513749      479.82761    
  11570000   35.640947      63.798936      428.06442    
  11580000   43.00134       77.295197      518.61874    
  11590000   44.37788       84.248218      565.27062    
  11600000   60.612674      73.644255      494.12243    
  11610000   46.252858      68.231256      457.80345    
  11620000   49.042099      65.230619      437.67042    
  11630000   44.154031      65.411219      438.88217    
  11640000   44.250612      91.813866      616.03299    
  11650000   34.852076      79.22311       531.55423    
  11660000   41.682273      87.881933      589.65135    
  11670000   48.699254      73.159559      490.87032    
  11680000   44.305271      59.45717       398.93297    
  11690000   38.522397      75.241357      504.83832    
  11700000   47.351302      77.591503      520.60682    
  11710000   44.992744      83.94124       563.21093    
  11720000   40.289506      66.944999      449.1732     
  11730000   43.059892      60.230304      404.12038    
  11740000   39.604137      83.494972      560.21665    
  11750000   50.431656      69.149826      463.96667    
  11760000   39.410377      87.183645      584.96612    
  11770000   45.981221      80.760517      541.8696     
  11780000   41.893292      80.122948      537.59178    
  11790000   65.879244      89.73906       602.1119     
  11800000   60.65588       83.985823      563.51006    
  11810000   58.83387       81.881228      549.3891     
  11820000   47.780092      82.36494       552.63461    
  11830000   58.472483      66.317267      444.96138    
  11840000   52.361815      78.313859      525.45353    
  11850000   57.729921      80.125429      537.60842    
  11860000   40.024646      80.123084      537.59268    
  11870000   51.298999      87.061253      584.14493    
  11880000   38.928837      79.921977      536.24334    
  11890000   45.786086      71.803883      481.77429    
  11900000   36.813737      77.820289      522.14189    
  11910000   46.430457      79.911855      536.17543    
  11920000   47.670129      90.835501      609.46856    
  11930000   43.698415      66.746016      447.8381     
  11940000   40.356356      90.401054      606.55361    
  11950000   44.38347       75.948967      509.58609    
  11960000   43.10729       61.20605       410.66723    
  11970000   42.302374      72.30888       485.16261    
  11980000   52.71885       76.375399      512.44727    
  11990000   44.168484      75.835108      508.82214    
  12000000   63.860635      75.280259      505.09933    
Loop time of 257.753 on 1 procs for 8000000 steps with 51 atoms

Performance: 26816.369 ns/day, 0.001 hours/ns, 31037.465 timesteps/s, 1.583 Matom-step/s
99.5% CPU use with 1 MPI tasks x 1 OpenMP threads

MPI task timing breakdown:
Section |  min time  |  avg time  |  max time  |%varavg| %total
---------------------------------------------------------------
Pair    | 204.19     | 204.19     | 204.19     |   0.0 | 79.22
Bond    | 30.118     | 30.118     | 30.118     |   0.0 | 11.68
Neigh   | 3.4395     | 3.4395     | 3.4395     |   0.0 |  1.33
Comm    | 4.9904     | 4.9904     | 4.9904     |   0.0 |  1.94
Output  | 0.17447    | 0.17447    | 0.17447    |   0.0 |  0.07
Modify  | 13.086     | 13.086     | 13.086     |   0.0 |  5.08
Other   |            | 1.754      |            |       |  0.68

Nlocal:             51 ave          51 max          51 min
Histogram: 1 0 0 0 0 0 0 0 0 0
Nghost:              0 ave           0 max           0 min
Histogram: 1 0 0 0 0 0 0 0 0 0
Neighs:            130 ave         130 max         130 min
Histogram: 1 0 0 0 0 0 0 0 0 0

Total # of neighbors = 130
Ave neighs/atom = 2.5490196
Ave special neighs/atom = 5.7647059
Neighbor list builds = 20668
Dangerous builds = 0

  # Hold at 500
  variable seedHH equal 45000+${c}
  variable seedHH equal 45000+1
  unfix fxl
  fix fxl all langevin ${T_high} ${T_high} 100000.0 ${seedHH}
  fix fxl all langevin 500 ${T_high} 100000.0 ${seedHH}
  fix fxl all langevin 500 500 100000.0 ${seedHH}
  fix fxl all langevin 500 500 100000.0 45001
  run ${n_holdH}
  run 8000000
Generated 0 of 6 mixed pair_coeff terms from geometric mixing rule
Per MPI rank memory allocation (min/avg/max) = 9.625 | 9.625 | 9.625 Mbytes
   Step         PotEng         KinEng          Temp     
  12000000   63.860635      75.280259      505.09933    
  12010000   48.117387      73.762675      494.91698    
  12020000   43.917374      73.643787      494.11929    
  12030000   53.924319      74.524644      500.02948    
  12040000   56.55794       82.077725      550.70752    
  12050000   57.025189      92.774941      622.48141    
  12060000   55.885307      73.017043      489.9141     
  12070000   47.527323      69.116866      463.74552    
  12080000   36.072944      82.732082      555.09798    
  12090000   58.012063      83.630028      561.12283    
  12100000   45.494089      57.301739      384.47092    
  12110000   57.370892      62.177556      417.18563    
  12120000   35.305866      74.604539      500.56554    
  12130000   47.782411      81.397347      546.14246    
  12140000   35.831235      77.690602      521.27174    
  12150000   48.04136       78.807989      528.76894    
  12160000   50.159811      75.641243      507.52139    
  12170000   52.10414       85.722472      575.16226    
  12180000   55.872854      68.707976      461.00204    
  12190000   48.007143      69.731307      467.86817    
  12200000   42.186483      88.401116      593.13485    
  12210000   59.43021       66.877168      448.71808    
  12220000   57.802853      92.713537      622.0694     
  12230000   48.137296      81.580946      547.37434    
  12240000   43.356533      76.035197      510.16466    
  12250000   57.62074       59.512971      399.30737    
  12260000   53.843884      75.429713      506.10211    
  12270000   51.08151       71.024815      476.54707    
  12280000   51.197776      79.776082      535.26444    
  12290000   50.152119      75.191572      504.50428    
  12300000   31.243173      94.095269      631.34026    
  12310000   45.875541      78.518874      526.8291     
  12320000   46.346762      72.692409      487.73594    
  12330000   42.250021      79.596708      534.06092    
  12340000   42.985155      77.263829      518.40827    
  12350000   43.51576       71.028652      476.57282    
  12360000   61.936274      80.678424      541.31879    
  12370000   42.80227       81.724643      548.33849    
  12380000   59.701208      89.038548      597.41176    
  12390000   58.624136      90.327891      606.06271    
  12400000   58.085687      74.811979      501.95737    
  12410000   51.262057      81.85559       549.21708    
  12420000   42.372963      91.564996      614.36317    
  12430000   52.346139      68.773137      461.43925    
  12440000   45.330821      80.079336      537.29915    
  12450000   43.165293      81.114513      544.24476    
  12460000   37.746852      71.559061      480.13164    
  12470000   46.110741      87.699748      588.42896    
  12480000   57.891577      70.229581      471.21138    
  12490000   37.254705      66.854944      448.56897    
  12500000   45.446425      71.653782      480.76718    
  12510000   45.819563      56.300159      377.75073    
  12520000   43.417192      63.366707      425.16434    
  12530000   48.248132      78.975491      529.89281    
  12540000   44.355661      93.492432      627.29547    
  12550000   39.008592      79.575096      533.91592    
  12560000   46.639382      66.701785      447.54133    
  12570000   50.234135      66.488551      446.11062    
  12580000   39.335964      78.259584      525.08938    
  12590000   50.498453      62.780035      421.22802    
  12600000   41.522349      76.655269      514.32508    
[...]
 404760000  -35.613564      44.167151      296.34328    
 404770000  -38.259243      55.949273      375.39643    
 404780000  -36.001305      51.23707       343.7795     
 404790000  -33.72168       39.894203      267.67357    
 404800000  -40.212906      45.923819      308.12979    
 404810000  -31.590193      37.971051      254.77002    
 404820000  -21.778756      48.893323      328.05393    
 404830000  -20.863894      46.305862      310.69314    
 404840000  -16.825174      60.839816      408.20995    
 404850000  -35.258524      46.660566      313.07306    
 404860000  -32.868242      44.689133      299.84556    
 404870000  -36.284647      40.859174      274.14812    
 404880000  -25.090782      33.297778      223.41429    
 404890000  -34.98151       44.89966       301.25811    
 404900000  -31.38885       40.008985      268.44371    
 404910000  -22.921823      38.464821      258.083      
 404920000  -34.448472      46.265397      310.42164    
 404930000  -33.491424      50.388056      338.08297    
 404940000  -19.416958      46.600447      312.66969    
 404950000  -32.668671      57.840042      388.08271    
 404960000  -14.432955      50.838589      341.10586    
 404970000  -26.390949      41.549869      278.7824     
 404980000  -23.638437      42.601         285.83505    
 404990000  -23.854985      40.692429      273.02933    
 405000000  -15.112822      49.116386      329.55059    
 405010000  -23.850071      53.6986        360.29535    
 405020000  -7.6807046      42.017492      281.91995    
 405030000  -11.322358      46.528309      312.18567    
 405040000  -19.971833      48.117568      322.84894    
 405050000  -22.770852      48.736217      326.99982    
 405060000  -28.865104      49.523488      332.28208    
 405070000  -33.608068      42.891278      287.7827     
 405080000  -27.965033      48.082981      322.61687    
 405090000  -29.799096      51.765718      347.32651    
 405100000  -12.083867      38.643249      259.28019    
 405110000  -38.556989      42.667857      286.28364    
 405120000  -36.494382      43.325192      290.69408    
 405130000  -36.729713      43.625547      292.70934    
 405140000  -40.119641      41.84832       280.78488    
 405150000  -33.778834      37.238439      249.85449    
 405160000  -27.821951      47.416586      318.14564    
 405170000  -20.140311      43.67349       293.03102    
 405180000  -26.056313      44.596627      299.22489    
 405190000  -29.145941      38.775868      260.17       
 405200000  -30.888191      44.467549      298.35882    
 405210000  -34.411849      47.816761      320.83065    
 405220000  -34.413495      42.282494      283.69801    
 405230000  -36.89612       50.232675      337.04043    
 405240000  -29.630587      39.642102      265.98207    
 405250000  -29.075324      34.012173      228.20758    
 405260000  -28.586983      58.325742      391.34156    
 405270000  -28.892318      50.945888      341.82579    
 405280000  -34.548295      55.112169      369.77981    
 405290000  -37.603143      43.734741      293.44199    
 405300000  -25.459655      45.353922      304.30602    
 405310000  -40.220325      45.246971      303.58842    
 405320000  -32.72725       44.250068      296.89962    
 405330000  -20.429618      42.577803      285.67941    
 405340000  -9.8714897      47.617156      319.49138    
 405350000  -5.1956845      51.709708      346.95071    
 405360000  -16.303809      52.081535      349.44551    
 405370000  -28.638541      47.46634       318.47947    
 405380000  -27.053418      47.904484      321.41923    
 405390000  -27.111717      39.242084      263.29812    
 405400000  -32.204329      36.504835      244.93231    
 405410000  -23.718806      40.138768      269.3145     
 405420000  -24.825571      56.564834      379.5266     
 405430000  -26.992839      59.072322      396.3508     
 405440000  -10.327686      50.7298        340.37593    
 405450000  -33.220962      46.838591      314.26753    
 405460000  -33.556389      42.587785      285.74639    
 405470000  -25.138078      43.666137      292.98168    
 405480000  -31.958801      48.111404      322.80758    
 405490000  -33.546983      42.549976      285.49271    
 405500000  -25.564978      35.557831      238.57831    
 405510000  -29.179763      44.709947      299.98522    
 405520000  -25.262717      46.192679      309.93373    
 405530000  -28.402502      47.875248      321.22307    
 405540000  -21.858425      39.241312      263.29294    
 405550000  -31.077096      53.787163      360.88957    
 405560000  -24.470465      45.932299      308.18669    
 405570000  -24.454441      43.273243      290.34553    
 405580000  -25.521224      43.304953      290.55829    
 405590000  -34.090362      58.463641      392.2668     
 405600000  -26.305136      46.552957      312.35105    
 405610000  -43.631857      38.68719       259.57501    
 405620000  -26.198777      44.273935      297.05976    
 405630000  -32.235562      51.975694      348.73537    
 405640000  -25.589444      38.448212      257.97157    
 405650000  -26.343738      39.90908       267.77338    
 405660000  -37.72414       40.900992      274.42871    
 405670000  -33.667377      35.769571      239.999      
 405680000  -44.452119      45.645069      306.2595     
 405690000  -33.551521      36.093398      242.17174    
 405700000  -42.649063      37.19207       249.54337    
 405710000  -48.855983      51.360781      344.60955    
 405720000  -37.053401      42.505111      285.19168    
 405730000  -35.456847      44.369775      297.7028     
 405740000  -34.687702      50.015638      335.5842     
 405750000  -20.450289      39.811783      267.12056    
 405760000  -7.5010186      41.053739      275.45357    
 405770000  -16.057359      53.92517       361.81554    
 405780000  -15.813955      49.093975      329.40022    
 405790000  -24.708592      48.25295       323.7573     
 405800000  -26.014401      39.490999      264.96823    
 405810000  -18.715849      36.825407      247.08322    
 405820000  -33.800324      45.309424      304.00746    
 405830000  -29.515295      45.938247      308.2266     
 405840000  -8.484102       42.411648      284.56458    
 405850000  -25.73574       43.828365      294.07016    
 405860000  -30.995039      37.293655      250.22497    
 405870000  -34.726572      38.400191      257.64937    
 405880000  -21.65641       39.953822      268.07359    
 405890000  -31.740048      47.223516      316.85022    
 405900000  -33.894013      42.40882       284.54561    
 405910000  -36.648088      51.296241      344.17651    
 405920000  -39.70885       44.510795      298.64898    
 405930000  -33.358901      39.214009      263.10975    
 405940000  -39.608037      37.828909      253.8163     
 405950000  -33.838077      41.006715      275.13806    
 405960000  -28.692573      46.464732      311.75909    
 405970000  -28.905992      48.392444      324.69324    
 405980000  -34.046009      50.410988      338.23683    
 405990000  -27.16192       44.979799      301.79581    
 406000000  -22.63567       50.325903      337.66595    
 406010000  -33.353811      54.109279      363.05084    
 406020000  -20.548579      47.164082      316.45144    
 406030000  -23.264161      48.072906      322.54927    
 406040000  -31.638903      50.197397      336.80373    
 406050000  -29.878974      44.38338       297.79409    
 406060000  -23.378983      47.463108      318.45778    
 406070000  -25.327143      36.312138      243.6394     
 406080000  -29.652136      42.071088      282.27956    
 406090000  -33.07246       44.647326      299.56505    
 406100000  -33.903584      39.487922      264.94759    
 406110000  -25.798591      40.629695      272.60842    
 406120000  -36.207756      54.635681      366.58278    
 406130000  -20.62444       44.010884      295.29479    
 406140000  -28.590653      46.110848      309.38468    
 406150000  -24.741779      46.366327      311.09883    
 406160000  -26.128358      42.247531      283.46342    
 406170000  -33.140383      40.265596      270.16546    
 406180000  -26.363186      44.297136      297.21542    
 406190000  -24.696799      52.465546      352.02207    
 406200000  -12.128207      42.105518      282.51057    
 406210000  -23.873228      56.484032      378.98445    
 406220000  -37.139848      47.043926      315.64525    
 406230000  -38.069205      48.690434      326.69263    
 406240000  -34.217464      46.171421      309.7911     
 406250000  -29.092283      39.792045      266.98813    
 406260000  -40.225887      46.627122      312.84866    
 406270000  -32.286177      35.791111      240.14352    
 406280000  -30.211085      43.389507      291.12561    
 406290000  -32.979899      33.686577      226.02297    
 406300000  -29.853831      37.751604      253.29762    
 406310000  -22.357266      37.632508      252.49853    
 406320000  -29.968789      38.946519      261.315      
 406330000  -29.040471      47.680016      319.91315    
 406340000  -31.612227      47.625197      319.54533    
 406350000  -30.46339       50.287032      337.40514    
 406360000  -25.578419      37.361284      250.67873    
 406370000  -20.213245      48.665097      326.52263    
 406380000  -18.920737      51.20189       343.54346    
 406390000  -31.11885       44.677439      299.7671     
 406400000  -28.05947       47.9204        321.52602    
 406410000  -36.298425      54.378636      364.85811    
 406420000  -43.434021      50.935367      341.7552     
 406430000  -34.385409      44.683592      299.80838    
 406440000  -29.455565      49.957647      335.19511    
 406450000  -22.911169      42.581732      285.70577    
 406460000  -39.059248      45.210002      303.34038    
 406470000  -27.713881      34.80265       233.51136    
 406480000  -41.045478      41.427614      277.96212    
 406490000  -27.753409      41.636557      279.36404    
 406500000  -26.339137      36.130743      242.42231    
 406510000  -42.059338      47.235221      316.92876    
 406520000  -22.482783      53.869598      361.44268    
 406530000  -25.064018      43.619331      292.66763    
 406540000  -29.727391      42.783973      287.06273    
 406550000  -26.700041      44.595798      299.21932    
 406560000  -29.992197      44.8388        300.84976    
 406570000  -20.985502      43.989766      295.1531     
 406580000  -18.447937      39.354074      264.04953    
 406590000  -27.204806      40.394981      271.03358    
 406600000  -27.09938       42.25368       283.50468    
 406610000  -33.310308      52.905856      354.97636    
 406620000  -26.275737      41.637814      279.37248    
 406630000  -30.439965      47.637032      319.62474    
 406640000  -24.485679      48.715261      326.85921    
 406650000  -22.961481      36.966495      248.02986    
 406660000  -33.727476      43.427387      291.37977    
 406670000  -22.054002      38.199822      256.30497    
 406680000  -22.173849      30.480353      204.51054    
 406690000  -28.099196      54.956024      368.73214    
 406700000  -25.008818      47.707649      320.09855    
 406710000  -25.934482      46.521647      312.14097    
 406720000  -33.097073      55.683465      373.61297    
 406730000  -30.964889      44.225948      296.73778    
 406740000  -24.1093        34.603538      232.1754     
 406750000  -30.522211      39.65543       266.0715     
 406760000  -23.336433      39.964903      268.14794    
 406770000  -20.296592      44.475209      298.41022    
 406780000  -25.895704      37.147944      249.24731    
 406790000  -32.231277      35.197529      236.16083    
 406800000  -28.105897      37.50906       251.67025    
 406810000  -28.538946      40.999584      275.09022    
 406820000  -24.500813      51.353325      344.55953    
 406830000  -30.368698      40.710915      273.15337    
 406840000  -23.40005       45.892802      307.92168    
 406850000  -35.352106      43.880423      294.41945    
 406860000  -22.499221      47.550514      319.04424    
 406870000  -9.5612243      46.08389       309.2038     
 406880000  -11.183497      41.932862      281.35213    
 406890000  -21.764356      47.610459      319.44645    
 406900000  -18.759738      46.168373      309.77065    
 406910000  -27.737687      48.706012      326.79715    
 406920000  -19.116631      41.510153      278.51592    
 406930000  -20.507566      50.038417      335.73704    
 406940000  -19.987433      40.14438       269.35215    
 406950000  -18.252711      42.359244      284.21297    
 406960000  -19.843112      43.539917      292.1348     
 406970000  -24.432113      37.776791      253.46661    
 406980000  -23.792123      42.681383      286.37439    
 406990000  -33.651957      46.434249      311.55457    
 407000000  -33.636115      45.358868      304.33921    
 407010000  -22.958246      41.91257       281.21597    
 407020000  -24.39279       39.680913      266.24248    
 407030000  -33.605014      46.212247      310.06502    
 407040000  -22.496076      48.722876      326.9103     
 407050000  -27.682973      52.05727       349.2827     
 407060000  -23.960467      48.234939      323.63645    
 407070000  -24.30821       39.377707      264.20809    
 407080000  -32.480139      31.412331      210.76372    
 407090000  -43.026874      37.543868      251.9038     
 407100000  -41.079251      41.92768       281.31735    
 407110000  -45.987745      48.624782      326.25213    
 407120000  -30.37629       37.101976      248.93888    
 407130000  -37.523486      43.840273      294.15006    
 407140000  -40.195479      50.569628      339.30124    
 407150000  -34.883419      51.387823      344.79099    
 407160000  -17.378031      37.155947      249.301      
 407170000  -9.6009062      37.283416      250.15627    
 407180000  -22.245974      43.797795      293.86505    
 407190000  -21.324156      49.549078      332.45378    
 407200000  -21.626081      44.330781      297.44117    
 407210000  -14.642269      45.267299      303.72481    
 407220000  -14.407246      46.216689      310.09483    
 407230000  -17.00283       55.137084      369.94698    
 407240000  -17.00646       45.077065      302.44842    
 407250000  -14.925552      41.68166       279.66666    
 407260000  -17.945024      54.607137      366.39126    
 407270000  -21.662631      53.909154      361.70808    
 407280000  -33.794546      44.147388      296.21068    
 407290000  -30.253046      49.893746      334.76636    
 407300000  -31.772284      41.079017      275.62318    
 407310000  -38.008359      46.514949      312.09603    
 407320000  -44.749918      48.712246      326.83898    
 407330000  -29.801742      45.163         303.02501    
 407340000  -38.297551      37.174659      249.42655    
 407350000  -44.878061      45.32861       304.13618    
 407360000  -33.172341      37.227444      249.78072    
 407370000  -39.679283      56.095221      376.37568    
 407380000  -30.524243      37.128842      249.11914    
 407390000  -37.612802      40.892446      274.37136    
 407400000  -36.091969      39.742325      266.65453    
 407410000  -36.8796        53.14225       356.56247    
 407420000  -22.842148      46.787759      313.92647    
 407430000  -30.452748      49.361948      331.19821    
 407440000  -18.724818      40.406492      271.11081    
 407450000  -28.286129      48.310264      324.14185    
 407460000  -25.285167      47.833513      320.94305    
 407470000  -19.472741      41.250268      276.7722     
 407480000  -30.377113      40.889059      274.34864    
 407490000  -34.91795       47.218956      316.81963    
 407500000  -44.624289      46.4623        311.74278    
 407510000  -42.058008      42.373153      284.3063     
 407520000  -33.672607      42.370242      284.28676    
 407530000  -37.874795      45.045253      302.23498    
 407540000  -33.616962      46.855201      314.37898    
 407550000  -29.120983      44.544355      298.87416    
 407560000  -21.454145      42.444766      284.78679    
 407570000  -38.667573      55.082901      369.58344    
 407580000  -30.250885      44.369071      297.69808    
 407590000  -35.631222      46.754679      313.70452    
 407600000  -24.403487      46.186819      309.89441    
 407610000  -34.813587      53.473927      358.78789    
 407620000  -30.469844      40.46188       271.48244    
 407630000  -39.529467      43.644867      292.83897    
 407640000  -30.142789      36.260924      243.29577    
 407650000  -36.069045      45.794322      307.26092    
 407660000  -31.538354      45.68303       306.5142     
 407670000  -31.975219      39.982794      268.26798    
 407680000  -26.784847      47.620947      319.51682    
 407690000  -33.824059      49.075662      329.27735    
 407700000  -22.67724       44.354518      297.60043    
 407710000  -36.280954      48.285254      323.97404    
 407720000  -32.826166      37.662639      252.7007     
 407730000  -32.379781      40.629714      272.60854    
 407740000  -31.193947      37.357047      250.6503     
 407750000  -28.215719      39.463057      264.78075    
 407760000  -16.124066      45.458604      305.00839    
 407770000  -31.209638      51.027852      342.37574    
 407780000  -37.964099      50.442915      338.45105    
 407790000  -22.327525      49.683705      333.35707    
 407800000  -26.203719      53.198212      356.93796    
 407810000  -22.212626      49.721265      333.60908    
 407820000  -31.724283      48.178851      323.26012    
 407830000  -22.171479      50.216814      336.93401    
 407840000  -23.225714      53.107687      356.33057    
 407850000  -25.908329      42.935359      288.07846    
 407860000  -33.500279      42.196498      283.12101    
 407870000  -24.215939      44.091624      295.83653    
 407880000  -24.675859      43.03036       288.71588    
 407890000  -24.12507       45.00752       301.9818     
 407900000  -34.452043      37.803591      253.64642    
 407910000  -37.244528      46.949814      315.0138     
 407920000  -26.282531      43.782605      293.76313    
 407930000  -34.041136      56.321611      377.89466    
 407940000  -28.986544      46.924733      314.84551    
 407950000  -23.196508      48.538418      325.67267    
 407960000  -42.140472      52.020356      349.03503    
 407970000  -26.353145      40.40997       271.13415    
 407980000  -33.615337      42.590072      285.76173    
 407990000  -32.928659      41.024476      275.25723    
 408000000  -36.35962       44.350256      297.57184    
Loop time of 190.803 on 1 procs for 4000000 steps with 51 atoms

Performance: 18112.912 ns/day, 0.001 hours/ns, 20964.019 timesteps/s, 1.069 Matom-step/s
99.6% CPU use with 1 MPI tasks x 1 OpenMP threads

MPI task timing breakdown:
Section |  min time  |  avg time  |  max time  |%varavg| %total
---------------------------------------------------------------
Pair    | 163.87     | 163.87     | 163.87     |   0.0 | 85.88
Bond    | 17.277     | 17.277     | 17.277     |   0.0 |  9.05
Neigh   | 0.98069    | 0.98069    | 0.98069    |   0.0 |  0.51
Comm    | 2.5336     | 2.5336     | 2.5336     |   0.0 |  1.33
Output  | 0.079601   | 0.079601   | 0.079601   |   0.0 |  0.04
Modify  | 5.3844     | 5.3844     | 5.3844     |   0.0 |  2.82
Other   |            | 0.6803     |            |       |  0.36

Nlocal:             51 ave          51 max          51 min
Histogram: 1 0 0 0 0 0 0 0 0 0
Nghost:             16 ave          16 max          16 min
Histogram: 1 0 0 0 0 0 0 0 0 0
Neighs:            427 ave         427 max         427 min
Histogram: 1 0 0 0 0 0 0 0 0 0

Total # of neighbors = 427
Ave neighs/atom = 8.372549
Ave special neighs/atom = 5.7647059
Neighbor list builds = 6935
Dangerous builds = 0

write_data outputs_wk4/${tag}_final.data
write_data outputs_wk4/config_6_4OJI_A.dat_final.data
System init for write_data ...
Generated 0 of 6 mixed pair_coeff terms from geometric mixing rule
Total wall time: 3:27:16
