
# ===============================
# FORCE FIELD
# ===============================
bond_style harmonic
bond_coeff 1 7.5 5.9

angle_style harmonic
angle_coeff 1 5.0 150.0

pair_style hybrid/overlay lj/cut 10.0 base/rna 18.0
pair_modify shift yes
pair_coeff * * lj/cut 2.0 8.9089871814

# Base-pair interactions
pair_coeff 1 1 base/rna 0.00000 3.0 13.8 1.5 0.5 1.8326 0.9425 1.8326 1.1345
pair_coeff 1 2 base/rna 0.00000 3.0 13.8 1.5 0.5 1.8326 0.9425 1.8326 1.1345
pair_coeff 1 3 base/rna 0.00000 3.0 13.8 1.5 0.5 1.8326 0.9425 1.8326 1.1345
pair_coeff 1 4 base/rna 3.33333 3.0 13.8 1.5 0.5 1.8326 0.9425 1.8326 1.1345
pair_coeff 2 2 base/rna 0.00000 3.0 13.8 1.5 0.5 1.8326 0.9425 1.8326 1.1345
pair_coeff 2 3 base/rna 5.00000 3.0 13.8 1.5 0.5 1.8326 0.9425 1.8326 1.1345
pair_coeff 2 4 base/rna 0.00000 3.0 13.8 1.5 0.5 1.8326 0.9425 1.8326 1.1345
pair_coeff 3 3 base/rna 0.00000 3.0 13.8 1.5 0.5 1.8326 0.9425 1.8326 1.1345
pair_coeff 3 4 base/rna 3.33333 3.0 13.8 1.5 0.5 1.8326 0.9425 1.8326 1.1345
pair_coeff 4 4 base/rna 0.00000 3.0 13.8 1.5 0.5 1.8326 0.9425 1.8326 1.1345

special_bonds lj 0.0 0.0 1.0
Finding 1-2 1-3 1-4 neighbors ...
  special bond factors lj:    0        0        1       
  special bond factors coul:  0        0        0       
     2 = max # of 1-2 neighbors
     2 = max # of 1-3 neighbors
     4 = max # of 1-4 neighbors
     6 = max # of special neighbors
  special bonds CPU = 0.000 seconds
neighbor 15.0 bin
neigh_modify every 10 delay 0
comm_style tiled
timestep 10

# ===============================
# DUMPS
# ===============================
dump d1 all custom ${dump_stride} outputs_wk4/${tag}.lammpstrj id mol type q xu yu zu
dump d1 all custom 50000 outputs_wk4/${tag}.lammpstrj id mol type q xu yu zu
dump d1 all custom 50000 outputs_wk4/config_2_6CK4_A.dat.lammpstrj id mol type q xu yu zu
dump_modify d1 sort id

# ===============================
# THERMO
# ===============================
thermo_style custom step pe ke temp
thermo ${thermo_stride}
thermo 10000
thermo_modify flush yes

variable vpe equal pe
variable vke equal ke
variable vT  equal temp

fix fa all ave/time ${thermo_stride} 10 ${stride10} v_vpe v_vke v_vT file outputs_wk4/thermo_${tag}_averaged.dat
fix fa all ave/time 10000 10 ${stride10} v_vpe v_vke v_vT file outputs_wk4/thermo_${tag}_averaged.dat
fix fa all ave/time 10000 10 100000 v_vpe v_vke v_vT file outputs_wk4/thermo_${tag}_averaged.dat
fix fa all ave/time 10000 10 100000 v_vpe v_vke v_vT file outputs_wk4/thermo_config_2_6CK4_A.dat_averaged.dat

# ===============================
# EQUILIBRATION (40 ns)
# ===============================
fix fxnve all nve
variable seed0 equal 43001
fix fxl all langevin ${T_eq} ${T_eq} 100000.0 ${seed0}
fix fxl all langevin 298 ${T_eq} 100000.0 ${seed0}
fix fxl all langevin 298 298 100000.0 ${seed0}
fix fxl all langevin 298 298 100000.0 43001

run ${n_eq}
run 4000000

CITE-CITE-CITE-CITE-CITE-CITE-CITE-CITE-CITE-CITE-CITE-CITE-CITE

Your simulation uses code contributions which should be cited:

- Type Label Framework: https://doi.org/10.1021/acs.jpcb.3c08419

@Article{Gissinger24,
 author = {Jacob R. Gissinger, Ilia Nikiforov, Yaser Afshar, Brendon Waters, Moon-ki Choi, Daniel S. Karls, Alexander Stukowski, Wonpil Im, Hendrik Heinz, Axel Kohlmeyer, and Ellad B. Tadmor},
 title = {Type Label Framework for Bonded Force Fields in LAMMPS},
 journal = {J. Phys. Chem. B},
 year =    2024,
 volume =  128,
 number =  13,
 pages =   {3282–-3297}
}

CITE-CITE-CITE-CITE-CITE-CITE-CITE-CITE-CITE-CITE-CITE-CITE-CITE

Generated 0 of 6 mixed pair_coeff terms from geometric mixing rule
Neighbor list info ...
  update: every = 10 steps, delay = 0 steps, check = yes
  max neighbors/atom: 2000, page size: 100000
  master list distance cutoff = 33
  ghost atom cutoff = 33
  binsize = 16.5, bins = 61 61 61
  2 neighbor lists, perpetual/occasional/extra = 2 0 0
  (1) pair lj/cut, perpetual, trim from (2)
      attributes: half, newton on, cut 25
      pair build: trim
      stencil: none
      bin: none
  (2) pair base/rna, perpetual
      attributes: half, newton on
      pair build: half/bin/newton
      stencil: half/bin/3d
      bin: standard
Per MPI rank memory allocation (min/avg/max) = 8.371 | 8.371 | 8.371 Mbytes
   Step         PotEng         KinEng          Temp     
         0   135.70706      0              0            
     10000   50.829797      81.905792      274.77696    
     20000   47.932375      88.401412      296.56842    
     30000   63.957667      109.54105      367.48751    
     40000   62.357556      88.920589      298.31015    
     50000   53.159361      95.289559      319.67672    
     60000   48.24012       95.462394      320.25655    
     70000   44.047525      98.12464       329.18783    
     80000   41.122278      95.356967      319.90286    
     90000   18.11719       89.134706      299.02847    
    100000   10.846113      91.339417      306.42481    
    110000   1.607297       96.737251      324.53343    
    120000   8.6429809      82.091287      275.39925    
    130000   10.911423      85.639145      287.30158    
    140000  -13.877605      84.059678      282.0028     
    150000  -12.533072      91.749076      307.79914    
    160000  -15.154817      89.962126      301.80429    
    170000  -22.212515      87.553571      293.72409    
    180000  -24.351806      72.170801      242.11808    
    190000  -34.016952      86.255566      289.36955    
    200000  -31.571089      78.772541      264.26555    
    210000  -9.1515503      94.579107      317.2933     
    220000  -19.079751      89.33392       299.69679    
    230000  -6.1800719      89.519338      300.31883    
    240000  -15.753576      81.452624      273.25667    
    250000  -24.954359      103.06068      345.74724    
    260000  -18.674622      94.346183      316.51189    
    270000  -25.67235       87.528306      293.63933    
    280000  -14.296138      85.871459      288.08095    
    290000  -1.4379745      97.661674      327.63468    
    300000  -4.0720348      92.522079      310.3924     
    310000  -8.0646733      78.558174      263.54639    
    320000  -7.8867079      94.477106      316.95111    
    330000  -6.8861017      90.691043      304.24966    
    340000  -9.3507757      92.901175      311.66419    
    350000  -1.9526599      83.852158      281.30661    
    360000  -1.5535395      87.412422      293.25056    
    370000  -5.7687117      91.525714      307.0498     
    380000  -6.6127835      85.495527      286.81978    
    390000  -17.656648      88.037279      295.34683    
    400000  -6.5322463      90.215671      302.65488    
    410000  -6.6775294      97.477339      327.01627    
    420000  -19.090332      98.809756      331.48626    
    430000  -11.13283       91.485306      306.91424    
    440000  -41.888436      97.253937      326.2668     
    450000  -23.743513      89.89859       301.59114    
    460000  -29.704473      86.281644      289.45703    
    470000  -28.614222      82.115571      275.48072    
    480000  -26.549863      95.841074      321.52694    
    490000  -30.238685      79.137484      265.48986    
    500000  -31.397773      88.810702      297.9415     
    510000  -17.887335      85.285497      286.11517    
    520000  -7.6212072      82.768181      277.67009    
    530000  -27.11273       114.62648      384.54808    
    540000  -25.396292      86.842744      291.33941    
    550000  -43.988323      83.898931      281.46353    
    560000  -50.998289      83.288854      279.41684    
    570000  -59.447909      87.594686      293.86202    
    580000  -44.288801      84.90778       284.84801    
    590000  -52.104639      84.77031       284.38682    
    600000  -47.714639      90.741314      304.4183     
    610000  -24.374578      95.32215       319.78606    
    620000  -30.255029      97.350606      326.59111    
    630000  -26.662903      101.38114      340.1127     
    640000  -33.725416      101.66043      341.04968    
    650000  -17.204299      87.550655      293.7143     
    660000  -36.490333      95.084767      318.98969    
    670000  -17.122148      95.006645      318.72761    
    680000  -23.388542      89.952684      301.77261    
    690000  -38.088582      102.72133      344.60877    
    700000  -24.197565      81.160032      272.27509    
    710000  -42.070796      92.134214      309.09119    
    720000  -35.487187      88.670484      297.4711     
    730000  -49.45519       93.590296      313.97605    
    740000  -43.70957       88.450255      296.73228    
    750000  -43.695301      91.734338      307.74969    
    760000  -37.598227      87.122599      292.27827    
    770000  -50.162012      77.199553      258.9885     
    780000  -56.388151      72.708326      243.92137    
    790000  -55.975685      87.819237      294.61534    
    800000  -36.126676      98.0528        328.94682    
    810000  -10.004806      84.362902      283.02005    
    820000  -43.744746      93.441595      313.47719    
    830000  -46.926562      92.723546      311.06828    
    840000  -27.612323      116.20381      389.83969    
    850000  -11.530492      83.139467      278.91568    
    860000  -16.799957      92.282913      309.59005    
    870000  -17.710582      95.269504      319.60944    
    880000  -12.943851      93.172249      312.57359    
    890000  -18.783399      92.178925      309.24119    
    900000  -16.69688       79.689622      267.34217    
    910000  -20.363058      79.060476      265.23151    
    920000  -11.154423      80.408995      269.75551    
    930000  -17.477985      92.160016      309.17776    
    940000  -16.154947      101.7168       341.23879    
    950000  -7.4349034      98.908799      331.81852    
    960000  -13.371759      96.037916      322.18731    
    970000  -1.2397855      95.557242      320.57475    
    980000  -8.6791869      90.919652      305.01659    
    990000  -6.1905841      85.956414      288.36596    
   1000000  -12.231158      86.627655      290.61783    
   1010000  -38.718352      91.016428      305.34125    
   1020000  -34.079142      85.839503      287.97374    
   1030000  -39.806425      98.870277      331.68929    
   1040000  -27.377709      95.288218      319.67223    
   1050000  -33.277932      92.436637      310.10576    
   1060000  -32.307129      83.290264      279.42157    
   1070000  -36.50876       89.444472      300.06767    
   1080000  -29.559538      94.354833      316.54091    
   1090000  -26.02904       87.26038       292.74049    
   1100000  -31.608437      102.3837       343.47609    
   1110000  -24.159571      91.237915      306.0843     
   1120000  -32.228381      91.193645      305.93578    
   1130000  -35.760839      79.456797      266.56109    
   1140000  -37.011902      94.94906       318.53442    
   1150000  -34.231463      88.338909      296.35873    
   1160000  -46.816311      86.611213      290.56267    
   1170000  -28.419632      83.550368      280.29417    
   1180000  -25.334131      83.885493      281.41844    
   1190000  -31.671802      91.96628       308.52781    
   1200000  -30.184938      88.936057      298.36204    
   1210000  -21.507668      78.088887      261.97203    
   1220000  -15.595401      88.065099      295.44016    
   1230000  -27.174837      81.504577      273.43097    
   1240000  -31.4649        79.551177      266.87771    
   1250000  -33.346096      91.064489      305.50249    
   1260000  -29.346027      84.620663      283.88479    
   1270000  -41.394081      106.06824      355.83697    
   1280000  -34.213673      85.331454      286.26934    
   1290000  -25.703523      91.165687      305.84199    
   1300000  -40.343133      76.434203      256.42091    
   1310000  -27.038315      88.521228      296.97037    
   1320000  -19.305121      78.382674      262.95763    
   1330000  -21.081094      92.850791      311.49516    
   1340000  -9.1104676      86.062666      288.72241    
   1350000  -3.6491528      90.467055      303.49822    
   1360000  -14.749641      77.255233      259.1753     
   1370000  -34.246254      93.146605      312.48756    
   1380000  -40.212466      83.23176       279.22531    
   1390000  -12.469854      80.528192      270.1554     
   1400000  -18.991875      91.104134      305.63549    
   1410000  -21.507948      100.99055      338.80238    
   1420000  -31.515448      96.454109      323.58355    
   1430000  -21.891805      77.549977      260.1641     
   1440000  -34.352166      89.210709      299.28344    
   1450000  -30.627732      77.201102      258.9937     
   1460000  -35.931128      84.051196      281.97434    
   1470000  -30.458123      94.511368      317.06605    
   1480000  -33.759271      95.10349       319.0525     
   1490000  -25.886877      99.353091      333.30903    
   1500000  -23.727224      89.011321      298.61454    
   1510000  -42.529771      102.60551      344.22023    
   1520000  -29.026065      82.889221      278.07616    
   1530000  -47.914699      89.198677      299.24308    
   1540000  -33.576218      92.486388      310.27267    
   1550000  -22.015801      90.689676      304.24507    
   1560000  -26.75494       93.136242      312.45279    
   1570000  -26.016547      97.22803       326.17989    
   1580000  -23.892381      103.48903      347.18426    
   1590000  -26.917058      87.243247      292.68301    
   1600000  -35.019385      92.198352      309.30636    
   1610000  -28.436781      100.64029      337.62732    
   1620000  -15.845496      88.65299       297.41241    
   1630000  -27.239251      89.114981      298.96229    
   1640000  -39.063771      100.09398      335.79455    
   1650000  -24.208704      98.177614      329.36555    
   1660000  -34.679288      87.08938       292.16682    
   1670000  -55.160164      77.991669      261.64589    
   1680000  -48.364156      84.432158      283.25239    
   1690000  -44.732282      92.810113      311.35869    
   1700000  -51.79031       102.17437      342.77384    
   1710000  -34.356947      94.080499      315.62058    
   1720000  -20.569435      94.845071      318.18556    
   1730000  -23.887088      91.531118      307.06793    
   1740000  -46.164612      100.59062      337.46068    
   1750000  -39.795719      88.399072      296.56057    
   1760000  -35.021559      99.355057      333.31563    
   1770000  -29.345655      96.7916        324.71576    
   1780000  -62.564423      88.07471       295.4724     
   1790000  -55.257198      92.95116       311.83188    
   1800000  -63.722772      85.878347      288.10406    
   1810000  -64.629324      91.17628       305.87752    
   1820000  -66.208977      93.003956      312.009      
   1830000  -52.550007      88.516235      296.95362    
   1840000  -54.973579      94.033195      315.46188    
   1850000  -59.383459      86.391506      289.8256     
   1860000  -38.356643      82.643225      277.25089    
   1870000  -31.492929      80.420042      269.79258    
   1880000  -45.735676      84.622074      283.88952    
   1890000  -51.242992      102.14419      342.67258    
   1900000  -55.161437      82.869382      278.0096     
   1910000  -49.940885      84.723196      284.22876    
   1920000  -32.580439      82.759904      277.64233    
   1930000  -55.386194      91.961638      308.51224    
   1940000  -43.050556      80.778681      270.99574    
   1950000  -59.880103      85.369898      286.39832    
   1960000  -35.705321      73.827379      247.67556    
   1970000  -52.080026      82.531624      276.8765     
   1980000  -49.289215      75.737127      254.08237    
   1990000  -44.178228      93.622272      314.08332    
   2000000  -42.859961      91.398434      306.6228     
   2010000  -49.220803      73.299731      245.90541    
   2020000  -50.289883      83.977884      281.7284     
   2030000  -36.592784      78.368109      262.90877    
   2040000  -60.271923      100.10317      335.82541    
   2050000  -32.598181      94.680371      317.63302    
   2060000  -36.034116      106.98448      358.91075    
   2070000  -14.581607      98.595337      330.76692    
   2080000  -30.488119      92.724065      311.07002    
   2090000  -37.610848      75.54101       253.42443    
   2100000  -45.980847      87.059044      292.06505    
   2110000  -43.374142      94.270978      316.25959    
   2120000  -48.468874      95.490782      320.35179    
   2130000  -44.118153      93.691162      314.31443    
   2140000  -33.616442      106.18933      356.2432     
   2150000  -30.437223      91.450545      306.79763    
   2160000  -43.992666      90.075029      302.18306    
   2170000  -38.843832      88.096523      295.54558    
   2180000  -24.290189      76.841473      257.78722    
   2190000  -44.006889      104.78274      351.52437    
   2200000  -40.995543      98.17327       329.35098    
   2210000  -28.867363      98.486658      330.40233    
   2220000  -26.217092      95.642802      320.86178    
   2230000  -32.059373      116.84181      391.98007    
   2240000  -16.728887      91.276605      306.2141     
   2250000  -31.532434      91.852533      308.14621    
   2260000  -34.051545      94.271447      316.26117    
   2270000  -31.036595      89.229371      299.34605    
   2280000  -47.362404      88.997797      298.56917    
   2290000  -51.100738      90.979637      305.21783    
   2300000  -46.088543      90.554221      303.79065    
   2310000  -42.534835      92.5368        310.44179    
   2320000  -46.266463      84.264218      282.68899    
   2330000  -40.19437       95.968892      321.95575    
   2340000  -41.816938      95.348008      319.87281    
   2350000  -38.039797      96.902919      325.08921    
   2360000  -36.195214      91.469537      306.86134    
   2370000  -26.78002       95.508496      320.41121    
   2380000  -10.918805      84.668117      284.04399    
   2390000  -51.757219      103.11892      345.94261    
   2400000  -40.089172      95.272255      319.61867    
   2410000  -40.804194      87.944242      295.03471    
   2420000  -56.026812      81.556898      273.60649    
   2430000  -63.101537      106.14768      356.10348    
   2440000  -50.929751      102.03974      342.32217    
   2450000  -36.414276      95.980562      321.9949     
   2460000  -35.34783       106.22909      356.37658    
   2470000  -32.884492      85.358549      286.36024    
   2480000  -35.452114      70.648172      237.00998    
   2490000  -37.065231      87.852852      294.72811    
   2500000  -26.392451      85.076275      285.41327    
   2510000  -44.99305       96.388083      323.36204    
   2520000  -44.338921      80.589076      270.35965    
   2530000  -35.790137      87.629778      293.97975    
   2540000  -61.215881      98.518419      330.50888    
   2550000  -44.965237      86.49778       290.18213    
   2560000  -51.673042      96.481941      323.67692    
   2570000  -40.130032      80.730823      270.83518    
   2580000  -46.423531      75.464938      253.16923    
   2590000  -51.340852      91.240616      306.09336    
   2600000  -37.671391      87.535958      293.665      
   2610000  -45.588054      90.38644       303.22778    
   2620000  -44.582226      89.751626      301.09811    
   2630000  -40.744606      79.744715      267.52699    
   2640000  -28.584869      92.985599      311.94741    
   2650000  -41.489795      94.877708      318.29505    
   2660000  -38.190564      78.234482      262.46047    
   2670000  -48.571487      96.19655       322.71949    
   2680000  -39.748014      100.1549       335.99892    
   2690000  -26.617296      95.106729      319.06337    
   2700000  -30.089275      93.620546      314.07753    
   2710000  -29.490113      99.276193      333.05106    
   2720000  -5.4768383      96.426703      323.4916     
   2730000  -17.194188      82.608196      277.13338    
   2740000  -29.819151      83.085308      278.73399    
   2750000  -32.294573      87.375925      293.12812    
   2760000  -39.609129      87.378488      293.13672    
   2770000  -40.087893      90.519862      303.67538    
   2780000  -42.570533      97.495548      327.07736    
   2790000  -36.011295      98.668116      331.01108    
   2800000  -43.212668      92.039899      308.77479    
   2810000  -42.386524      82.076707      275.35034    
   2820000  -45.239342      85.61763       287.2294     
   2830000  -50.293077      89.435634      300.03802    
   2840000  -49.772571      91.066237      305.50835    
   2850000  -43.595239      90.533821      303.72221    
   2860000  -32.748109      99.51386       333.84838    
   2870000  -48.3713        86.24569       289.33642    
   2880000  -44.27166       85.229716      285.92803    
   2890000  -65.295524      99.062588      332.33445    
   2900000  -42.447097      77.043238      258.4641     
   2910000  -46.49095       86.601643      290.53057    
   2920000  -36.956602      73.869374      247.81644    
   2930000  -52.611236      99.154563      332.64301    
   2940000  -26.598137      82.990583      278.41621    
   2950000  -36.513026      92.328897      309.74431    
   2960000  -31.262056      100.15844      336.01081    
   2970000  -39.756379      95.258759      319.5734     
   2980000  -51.350705      87.126732      292.29213    
   2990000  -41.407569      86.137501      288.97347    
   3000000  -34.970392      81.649194      273.91613    
   3010000  -45.683658      93.679055      314.27382    
   3020000  -27.536582      84.605741      283.83473    
   3030000  -33.269785      77.826122      261.09051    
   3040000  -35.460804      78.576436      263.60766    
   3050000  -25.178146      89.770028      301.15984    
   3060000  -35.685332      93.763244      314.55625    
   3070000  -22.876623      87.15372       292.38267    
   3080000  -28.84113       98.361591      329.98275    
   3090000   0.19543438     82.536493      276.89283    
   3100000  -28.163898      71.270977      239.09936    
   3110000  -59.590835      76.839228      257.77969    
   3120000  -36.277426      81.302755      272.7539     
   3130000  -51.297606      91.371717      306.53318    
   3140000  -61.867152      76.162193      255.50837    
   3150000  -57.405268      81.482996      273.35857    
   3160000  -45.683153      83.821235      281.20287    
   3170000  -30.621885      94.088451      315.64725    
   3180000  -32.215586      93.267173      312.89204    
   3190000  -24.363712      82.686883      277.39736    
   3200000  -50.453743      101.77506      341.43422    
   3210000  -27.978884      85.602844      287.1798     
   3220000  -39.796433      90.077249      302.1905     
   3230000  -47.945902      98.580921      330.71856    
   3240000  -38.318692      87.58105       293.81627    
   3250000  -36.771329      78.208355      262.37282    
   3260000  -40.314577      88.220245      295.96064    
   3270000  -39.859021      90.388632      303.23513    
   3280000  -33.694691      96.47158       323.64216    
   3290000  -40.852725      93.452188      313.51272    
   3300000  -42.429225      99.482908      333.74454    
   3310000  -23.700834      91.374252      306.54168    
   3320000  -43.087969      85.031006      285.2614     
   3330000  -31.67813       99.245687      332.94871    
   3340000  -30.966257      86.038534      288.64145    
   3350000  -42.969429      98.213561      329.48614    
   3360000  -26.078787      94.234251      316.13638    
   3370000  -40.627289      91.764596      307.8512     
   3380000  -50.58191       95.912385      321.76617    
   3390000  -38.520399      83.346406      279.60992    
   3400000  -43.030403      94.747915      317.85962    
   3410000  -44.269374      84.478901      283.40921    
   3420000  -51.209732      96.806062      324.76428    
   3430000  -53.011629      82.100255      275.42934    
   3440000  -42.106036      74.735337      250.72157    
   3450000  -56.850831      79.552974      266.88374    
   3460000  -51.535733      94.961146      318.57497    
   3470000  -48.990009      76.475727      256.56022    
   3480000  -37.530999      88.450406      296.73278    
   3490000  -28.995318      88.140192      295.69208    
   3500000  -33.605661      95.852106      321.56395    
   3510000  -40.764745      87.052163      292.04197    
   3520000  -46.21175       92.089142      308.93999    
   3530000  -42.137482      87.312743      292.91616    
   3540000  -46.468414      92.071965      308.88236    
   3550000  -45.836678      86.393644      289.83277    
   3560000  -49.355172      99.947328      335.30257    
   3570000  -50.159556      92.111044      309.01346    
   3580000  -61.750365      91.501762      306.96945    
   3590000  -56.783642      88.606573      297.25669    
   3600000  -41.999245      79.500456      266.70755    
   3610000  -50.616439      95.874031      321.63751    
   3620000  -36.464167      83.216847      279.17528    
   3630000  -43.779173      79.081056      265.30055    
   3640000  -50.625476      94.328894      316.45389    
   3650000  -36.863393      87.602449      293.88806    
   3660000  -51.127773      92.447646      310.1427     
   3670000  -47.043285      98.971704      332.02956    
   3680000  -29.205222      89.758023      301.11956    
   3690000  -42.122283      104.9851       352.20325    
   3700000  -24.617716      84.114508      282.18674    
   3710000  -30.084868      85.717069      287.563      
   3720000  -24.306441      85.197502      285.81996    
   3730000  -31.211866      84.001213      281.80666    
   3740000  -37.93254       92.137992      309.10387    
   3750000  -34.918046      96.923206      325.15727    
   3760000  -36.466082      88.757438      297.76281    
   3770000  -26.525774      90.769738      304.51366    
   3780000  -40.86176       103.26368      346.42825    
   3790000  -32.285119      92.400611      309.9849     
   3800000  -30.506033      89.042225      298.71821    
   3810000  -26.881459      95.778783      321.31797    
   3820000  -17.738176      86.286505      289.47334    
   3830000  -33.509447      95.388925      320.01008    
   3840000  -33.807056      85.783216      287.78491    
   3850000  -30.488511      94.566492      317.25098    
   3860000  -47.114206      76.191897      255.60803    
   3870000  -55.600887      87.907804      294.91247    
   3880000  -42.830572      86.267848      289.41075    
   3890000  -21.258819      68.402773      229.47713    
   3900000  -41.979189      91.479768      306.89566    
   3910000  -46.796275      78.610487      263.72189    
   3920000  -38.433546      94.464462      316.9087     
   3930000  -32.557549      85.207056      285.85202    
   3940000  -49.0448        91.130005      305.72228    
   3950000  -48.670698      101.57349      340.75801    
   3960000  -41.608938      89.154697      299.09553    
   3970000  -34.2075        96.069362      322.2928     
   3980000  -27.992912      95.580257      320.65195    
   3990000  -45.174378      97.188619      326.04768    
   4000000  -51.133367      109.83987      368.48999    
Loop time of 329.586 on 1 procs for 4000000 steps with 101 atoms

Performance: 10485.885 ns/day, 0.002 hours/ns, 12136.441 timesteps/s, 1.226 Matom-step/s
99.3% CPU use with 1 MPI tasks x 1 OpenMP threads

MPI task timing breakdown:
Section |  min time  |  avg time  |  max time  |%varavg| %total
---------------------------------------------------------------
Pair    | 296.6      | 296.6      | 296.6      |   0.0 | 89.99
Bond    | 20.14      | 20.14      | 20.14      |   0.0 |  6.11
Neigh   | 1.8317     | 1.8317     | 1.8317     |   0.0 |  0.56
Comm    | 1.7628     | 1.7628     | 1.7628     |   0.0 |  0.53
Output  | 0.12343    | 0.12343    | 0.12343    |   0.0 |  0.04
Modify  | 8.3878     | 8.3878     | 8.3878     |   0.0 |  2.54
Other   |            | 0.744      |            |       |  0.23

Nlocal:            101 ave         101 max         101 min
Histogram: 1 0 0 0 0 0 0 0 0 0
Nghost:              0 ave           0 max           0 min
Histogram: 1 0 0 0 0 0 0 0 0 0
Neighs:            981 ave         981 max         981 min
Histogram: 1 0 0 0 0 0 0 0 0 0

Total # of neighbors = 981
Ave neighs/atom = 9.7128713
Ave special neighs/atom = 5.8811881
Neighbor list builds = 8685
Dangerous builds = 0

# ===============================
# MAIN SA LOOP — 10 cycles
# ===============================
variable c loop ${ncycle}
variable c loop 10
label cyc

  # Heat 298 → 500
  variable seedH equal 44000+${c}
  variable seedH equal 44000+1
  unfix fxl
  fix fxl all langevin ${T_eq} ${T_high} 100000.0 ${seedH}
  fix fxl all langevin 298 ${T_high} 100000.0 ${seedH}
  fix fxl all langevin 298 500 100000.0 ${seedH}
  fix fxl all langevin 298 500 100000.0 44001
  run ${n_heat}
  run 8000000
Generated 0 of 6 mixed pair_coeff terms from geometric mixing rule
Per MPI rank memory allocation (min/avg/max) = 9.632 | 9.632 | 9.632 Mbytes
   Step         PotEng         KinEng          Temp     
   4000000  -51.133367      109.83987      368.48999    
   4010000  -49.209116      82.722312      277.51621    
   4020000  -43.54538       91.834764      308.0866     
   4030000  -49.938904      101.04367      338.98057    
   4040000  -36.234534      84.570242      283.71564    
   4050000  -49.188821      81.830047      274.52285    
   4060000  -43.020195      90.543569      303.75491    
   4070000  -34.545198      89.191767      299.21989    
   4080000  -44.300549      93.408241      313.36529    
   4090000  -45.470173      88.340188      296.36302    
   4100000  -45.161448      93.001071      311.99932    
   4110000  -49.316911      92.900319      311.66132    
   4120000  -56.024907      85.567895      287.06256    
   4130000  -47.700135      79.612039      267.08189    
   4140000  -44.993858      87.51515       293.59519    
   4150000  -47.438892      96.572159      323.97958    
   4160000  -35.732989      83.954082      281.64855    
   4170000  -31.490971      72.87437       244.47841    
   4180000  -48.239079      87.818109      294.61156    
   4190000  -29.460968      82.111625      275.46749    
   4200000  -46.43317       85.980587      288.44705    
   4210000  -19.369228      89.607277      300.61384    
   4220000  -31.184111      86.808357      291.22405    
   4230000  -37.973707      93.101213      312.33528    
   4240000  -24.280366      84.566816      283.70414    
   4250000  -42.681012      98.458214      330.3069     
   4260000  -33.468389      79.484989      266.65566    
   4270000  -42.078288      90.828257      304.70998    
   4280000  -32.310866      96.778665      324.67237    
   4290000  -25.152428      91.027995      305.38006    
   4300000  -28.912235      86.845596      291.34898    
   4310000  -23.453138      80.664989      270.61432    
   4320000  -24.643951      93.188129      312.62686    
   4330000  -15.275265      88.038115      295.34963    
   4340000  -20.4453        85.142755      285.6363     
   4350000  -36.369754      86.962857      291.74236    
   4360000  -38.517639      89.359366      299.78215    
   4370000  -36.845686      84.647488      283.97478    
   4380000  -47.222232      98.636326      330.90443    
   4390000  -50.80526       89.416046      299.9723     
   4400000  -47.163287      87.51371       293.59036    
   4410000  -25.408661      80.0887        268.68099    
   4420000  -32.061311      105.67608      354.52136    
   4430000  -26.591061      92.586234      310.60763    
   4440000  -11.254902      100.57975      337.42421    
   4450000  -24.807693      106.55868      357.4823     
   4460000  -10.643242      90.691844      304.25234    
   4470000  -17.839285      97.825982      328.1859     
   4480000  -4.3157352      88.810248      297.93998    
   4490000  -15.598896      95.767901      321.28146    
   4500000  -21.149712      111.396        373.71048    
   4510000  -12.974683      86.188367      289.14411    
   4520000  -13.054324      93.304062      313.01579    
   4530000  -6.8965634      94.366693      316.5807     
   4540000  -13.455449      110.60741      371.06492    
   4550000  -8.0725078      104.17716      349.49279    
   4560000   6.6513571      94.118757      315.74893    
   4570000  -3.8346226      87.196088      292.52481    
   4580000  -8.3313277      89.878071      301.5223     
   4590000  -0.54820305     87.217912      292.59802    
   4600000  -9.9826249      91.98887       308.6036     
   4610000  -14.273015      77.319344      259.39038    
   4620000  -14.935475      93.224153      312.74771    
   4630000  -24.133084      87.038602      291.99647    
   4640000  -18.333023      98.737625      331.24427    
   4650000  -4.7173095      93.920605      315.08417    
   4660000  -1.2643674      101.21145      339.54344    
   4670000  -5.4546472      103.823        348.30464    
   4680000  -6.7043107      87.872113      294.79273    
   4690000  -21.639398      99.587344      334.0949     
   4700000  -10.571803      88.620557      297.3036     
   4710000  -4.3510493      93.753436      314.52335    
   4720000  -13.911792      92.530323      310.42006    
   4730000  -4.8241828      84.710336      284.18562    
   4740000  -11.206865      80.809832      271.10024    
   4750000  -16.086253      100.74251      337.97025    
   4760000  -19.54053       104.9798       352.18547    
   4770000   3.087625       88.915922      298.29449    
   4780000  -7.7053651      79.439726      266.50382    
   4790000  -13.820721      98.020878      328.83973    
   4800000  -0.9720776      77.5028        260.00583    
   4810000  -5.0463781      93.83271       314.7893     
   4820000   0.18010972     100.88918      338.46231    
   4830000  -17.738381      103.60085      347.5594     
   4840000   10.897158      101.10534      339.18746    
   4850000   19.920293      115.64413      387.96209    
   4860000   27.476795      99.048077      332.28577    
   4870000   19.282173      108.68669      364.62133    
   4880000   19.599856      112.71742      378.1436     
   4890000   13.147561      114.66214      384.6677     
   4900000   10.945578      106.363        356.82584    
   4910000   19.670066      109.24562      366.49642    
   4920000   21.111066      114.52646      384.21253    
   4930000   33.318241      103.14833      346.04126    
   4940000   26.432923      112.75279      378.26224    
   4950000   32.340031      92.327533      309.73974    
   4960000   13.835398      101.74609      341.33704    
   4970000   33.15235       88.051387      295.39416    
   4980000   9.8423192      100.45643      337.01051    
   4990000   5.0531658      92.95072       311.8304     
   5000000   18.443897      113.28375      380.0435     
   5010000   16.050981      89.838575      301.3898     
   5020000   0.45028767     87.545413      293.69672    
   5030000   4.7458327      100.34092      336.623      
   5040000   6.4828183      99.027471      332.21664    
   5050000   34.450354      101.98323      342.13259    
   5060000   29.946739      95.671879      320.95933    
   5070000   36.227483      115.67255      388.05744    
   5080000   37.020792      89.565288      300.47298    
   5090000   26.680012      95.519225      320.44721    
   5100000   19.075372      95.474136      320.29594    
   5110000   0.084587036    104.34335      350.05032    
   5120000   10.255097      96.724981      324.49227    
   5130000   14.409532      99.102649      332.46885    
   5140000   10.149532      108.72012      364.73346    
   5150000   6.5298001      102.94738      345.36713    
   5160000  -17.036181      102.08176      342.46316    
   5170000  -21.584079      95.584385      320.6658     
   5180000  -6.6751101      102.14663      342.68076    
   5190000   2.3089152      93.055817      312.18298    
   5200000  -12.06903       111.91767      375.4606     
   5210000  -7.549296       86.925889      291.61834    
   5220000  -15.73253       94.000265      315.35141    
   5230000  -2.0973492      87.111488      292.24099    
   5240000  -0.057293092    101.93969      341.98652    
   5250000   3.3345         93.036326      312.11759    
   5260000  -13.628364      108.16679      362.87716    
   5270000   10.999556      82.497996      276.76368    
   5280000  -5.4906953      109.02521      365.75698    
   5290000  -4.6852493      100.81393      338.20986    
   5300000   4.2494426      97.598822      327.42382    
   5310000  -13.606823      98.161198      329.31048    
   5320000   5.5023342      91.401318      306.63248    
   5330000   3.3205228      104.90758      351.9432     
   5340000  -19.515271      104.55769      350.76937    
   5350000  -4.5742166      94.143222      315.831      
   5360000  -17.59465       97.877742      328.35954    
   5370000  -14.271815      95.049247      318.87053    
   5380000  -10.322606      92.987767      311.95469    
   5390000  -14.936193      93.607538      314.03389    
   5400000  -17.592513      97.657196      327.61965    
   5410000  -24.501575      95.067409      318.93146    
   5420000  -4.8907271      100.9674       338.7247     
   5430000  -1.9003888      96.502659      323.74642    
   5440000   13.062419      99.394901      333.4493     
   5450000  -2.9746428      98.105089      329.12224    
   5460000  -9.571881       100.1337       335.9278     
   5470000   3.3216586      105.4757       353.8491     
   5480000   9.94417        95.774786      321.30456    
   5490000  -9.2954327      104.05149      349.07119    
   5500000   25.144333      109.04615      365.82725    
   5510000   12.648298      107.87007      361.88174    
   5520000   20.945242      109.7919       368.32909    
   5530000   22.560228      96.174071      322.64408    
   5540000   11.31055       93.64485       314.15907    
   5550000   14.115893      98.313698      329.82208    
   5560000   7.7150892      97.927154      328.52531    
   5570000  -0.15547118     95.279526      319.64307    
   5580000   3.6576961      95.730206      321.155      
   5590000  -8.8515806      101.62741      340.93891    
   5600000   3.0971833      105.82797      355.0309     
   5610000   8.8228579      119.41684      400.61877    
   5620000   17.511827      107.3575       360.16218    
   5630000   8.9885476      105.1178       352.64845    
   5640000   17.263421      103.43592      347.00609    
   5650000  -13.576663      101.58606      340.80018    
   5660000  -5.3520611      98.012253      328.8108     
   5670000  -1.179729       99.766868      334.69717    
   5680000   22.174836      96.509337      323.76882    
   5690000   10.898855      107.09621      359.28559    
   5700000   24.649445      113.97775      382.37173    
   5710000   46.878283      101.94141      341.99232    
   5720000   29.919054      124.34173      417.14073    
   5730000   45.726313      96.014756      322.10961    
   5740000   36.467314      99.136775      332.58334    
   5750000   28.281587      112.29048      376.71128    
   5760000   11.918125      94.111075      315.72315    
   5770000   35.298325      90.68952       304.24454    
   5780000   18.196075      100.78385      338.10894    
   5790000   27.73505       94.742128      317.8402     
   5800000   34.036137      93.132685      312.44086    
   5810000   31.103099      100.20461      336.16569    
   5820000   36.183235      112.89636      378.74388    
   5830000   14.737         130.07034      436.35902    
   5840000   6.017628       95.595146      320.70191    
   5850000   6.9790716      95.952901      321.9021     
   5860000  -10.322135      98.853201      331.632      
   5870000   21.427636      103.46675      347.10949    
   5880000   11.521172      102.44526      343.68262    
   5890000   21.112864      113.19622      379.74986    
   5900000   24.517231      108.3319       363.43106    
   5910000   19.390944      111.38617      373.67751    
   5920000   35.263027      105.87428      355.18627    
   5930000   52.126647      104.57089      350.81365    
   5940000   33.806408      122.71017      411.66718    
   5950000   56.157242      103.53537      347.33972    
   5960000   51.47427       94.381688      316.631      
   5970000   22.332891      100.0124       335.52089    
   5980000   4.9539754      117.43279      393.96266    
   5990000   18.129506      99.312341      333.17232    
   6000000   26.804336      93.266093      312.88841    
   6010000   7.4183112      106.91097      358.66415    
   6020000   18.790439      101.92118      341.92445    
   6030000   19.627791      115.66976      388.04807    
   6040000   36.245499      99.537984      333.92931    
   6050000   34.027732      110.97375      372.29392    
   6060000   30.521437      107.20444      359.64868    
   6070000   43.413056      104.60226      350.91891    
   6080000   53.558378      98.427992      330.20551    
   6090000   52.472968      106.14401      356.09117    
   6100000   45.463738      112.69305      378.06184    
   6110000   34.770911      105.24246      353.06666    
   6120000   32.857164      128.03625      429.5351     
   6130000   30.525258      106.22611      356.36657    
   6140000   22.886072      110.56486      370.92219    
   6150000   21.593888      111.97033      375.63725    
   6160000   16.428606      107.00417      358.97682    
   6170000   9.3607185      100.30104      336.48922    
   6180000  -3.4115632      93.837698      314.80603    
   6190000   6.1669383      103.7507       348.06209    
   6200000   14.478893      109.45386      367.19503    
   6210000   28.30701       103.24939      346.38031    
   6220000   32.79634       108.39465      363.6416     
   6230000   31.708466      106.65258      357.7973     
   6240000   23.960932      93.719026      314.40791    
   6250000   30.481299      111.85371      375.246      
   6260000   32.837617      123.84544      415.47578    
   6270000   40.185531      112.13349      376.18463    
   6280000   23.421173      100.34539      336.63798    
   6290000   47.280007      101.85578      341.70502    
   6300000   17.755557      100.22735      336.24198    
   6310000   27.474584      109.65406      367.86666    
   6320000   38.551943      110.07882      369.29163    
   6330000   40.961971      97.522079      327.16637    
   6340000   44.719147      97.248701      326.24924    
   6350000   35.139075      111.81857      375.12812    
   6360000   64.493031      105.06008      352.4548     
   6370000   36.252527      108.80953      365.03341    
   6380000   37.964252      111.70663      374.75259    
   6390000   26.263405      121.62734      408.03453    
   6400000   39.397616      108.94895      365.50115    
   6410000   52.217297      91.116032      305.67541    
   6420000   39.51708       104.91291      351.96106    
   6430000   31.579964      114.75337      384.97377    
   6440000   23.885364      118.20796      396.56323    
   6450000   30.339413      114.16149      382.98815    
   6460000   44.939295      116.2751       390.07886    
   6470000   46.168041      104.66786      351.139      
   6480000   55.980003      100.64572      337.64553    
   6490000   44.540104      116.75125      391.67625    
   6500000   17.340796      97.155197      325.93555    
   6510000   25.692637      100.8388       338.29326    
   6520000   20.664558      109.57978      367.61745    
   6530000   16.164288      109.67801      367.94699    
   6540000   36.909805      100.78385      338.10892    
   6550000   34.990027      101.18939      339.46944    
   6560000   51.737139      119.23749      400.01706    
   6570000   46.213119      120.50662      404.27474    
   6580000   32.398587      119.1          399.55583    
   6590000   35.088946      118.25042      396.70565    
   6600000   51.78399       119.18215      399.8314     
   6610000   54.003587      104.19814      349.56317    
   6620000   39.492706      93.875653      314.93336    
   6630000   58.565617      96.169358      322.62827    
   6640000   64.587502      103.32764      346.64283    
   6650000   69.626         103.1876       346.173      
   6660000   37.667261      109.96977      368.92578    
   6670000   36.747905      110.1845       369.64616    
   6680000   27.705903      103.63404      347.67074    
   6690000   51.068218      96.544313      323.88616    
   6700000   43.155193      113.31336      380.14285    
   6710000   38.492736      111.2895       373.35321    
   6720000   48.519941      101.06707      339.05906    
   6730000   50.322788      104.50907      350.60628    
   6740000   39.516286      116.68076      391.43977    
   6750000   39.870481      104.79829      351.57654    
   6760000   42.588284      109.17518      366.26011    
   6770000   38.769684      122.24153      410.09502    
   6780000   21.562872      113.96016      382.31273    
   6790000   42.940986      107.34034      360.1046     
   6800000   41.546445      119.86357      402.11745    
   6810000   41.887404      115.9603       389.02278    
   6820000   36.487979      101.29921      339.83785    
   6830000   23.367375      124.03408      416.10864    
   6840000   36.344558      99.960853      335.34795    
   6850000   46.649738      91.235746      306.07702    
   6860000   12.428339      104.68261      351.18847    
   6870000   21.054349      110.2707       369.93535    
   6880000   43.761199      110.32438      370.11542    
   6890000   53.225028      122.40183      410.63279    
   6900000   34.541225      139.91507      469.38606    
   6910000   47.520873      107.65092      361.14653    
   6920000   42.679373      114.90112      385.46944    
   6930000   36.208827      117.92673      395.61974    
   6940000   10.060554      108.20723      363.01284    
   6950000   30.751368      112.28238      376.68413    
   6960000   44.075983      117.09881      392.84225    
   6970000   37.181428      112.27742      376.66748    
   6980000   35.763071      105.20745      352.94919    
   6990000   40.106687      119.19348      399.86942    
   7000000   54.406134      114.74478      384.94495    
   7010000   55.414018      127.4881       427.69614    
   7020000   55.653641      110.64572      371.19346    
   7030000   59.374338      121.83185      408.72062    
   7040000   61.208534      108.36111      363.52907    
   7050000   50.771712      130.1343       436.5736     
   7060000   45.665262      127.09509      426.37769    
   7070000   52.835828      113.50771      380.79483    
   7080000   52.469048      132.88495      445.80148    
   7090000   58.086483      111.92155      375.47361    
   7100000   43.927551      116.75645      391.6937     
   7110000   24.03101       116.61447      391.21737    
   7120000   35.635873      104.84699      351.73993    
   7130000   48.736926      122.45025      410.7952     
   7140000   50.046182      95.921945      321.79825    
   7150000   33.628704      120.65649      404.77752    
   7160000   47.833785      102.28104      343.13169    
   7170000   42.507715      98.889388      331.7534     
   7180000   37.590859      129.87995      435.72032    
   7190000   41.226982      116.31963      390.22824    
   7200000   42.955912      109.65644      367.87463    
   7210000   41.671999      124.7575       418.53557    
   7220000   52.6607        103.92889      348.65989    
   7230000   61.812774      125.18602      419.97314    
   7240000   57.516544      113.05782      379.28554    
   7250000   50.318942      103.76716      348.1173     
   7260000   67.447175      100.14267      335.95791    
   7270000   37.447592      127.26627      426.95197    
   7280000   43.805566      106.91157      358.66616    
   7290000   62.342743      109.44034      367.14965    
   7300000   41.300998      127.01134      426.09674    
   7310000   71.61455       124.62315      418.08485    
   7320000   53.951144      116.14555      389.64426    
   7330000   54.230409      125.23376      420.13333    
   7340000   52.692537      99.496048      333.78862    
   7350000   49.143456      108.28724      363.28126    
   7360000   53.315845      121.83041      408.71579    
   7370000   53.296859      116.96924      392.40756    
   7380000   41.474838      131.03702      439.60205    
   7390000   52.696516      115.20499      386.48887    
   7400000   41.096346      119.64989      401.4006     
   7410000   54.911019      125.88866      422.33036    
   7420000   52.6941        114.31768      383.51214    
   7430000   53.477369      134.62856      451.65092    
   7440000   39.570235      113.6867       381.39533    
   7450000   12.53362       111.55224      374.23465    
   7460000   10.547749      117.3551       393.70204    
   7470000   25.102117      112.57547      377.66736    
   7480000   25.091136      117.68614      394.81261    
   7490000   44.679242      105.51064      353.96635    
   7500000   42.559625      120.52702      404.34317    
   7510000   46.276684      121.57969      407.87465    
   7520000   54.212934      107.6814       361.24879    
   7530000   44.600789      110.20189      369.70452    
   7540000   39.853688      124.43396      417.45014    
   7550000   35.655634      124.23234      416.77377    
   7560000   46.396816      112.35794      376.93761    
   7570000   30.462883      112.5788       377.67853    
   7580000   28.578788      115.08169      386.07522    
   7590000   31.610608      106.49265      357.26079    
   7600000   22.509964      106.4528       357.12708    
   7610000  -3.1808533      131.96746      442.72349    
   7620000   31.955524      109.0326       365.78176    
   7630000  -2.4294988      120.34796      403.74248    
   7640000   23.877271      112.45451      377.26159    
   7650000   12.198556      128.96754      432.65937    
   7660000   18.043058      110.05454      369.21017    
   7670000   15.707777      115.67286      388.05847    
   7680000   28.850963      110.95478      372.23029    
   7690000   32.236288      106.61815      357.6818     
   7700000   38.839789      119.21143      399.92965    
   7710000   33.838606      127.49355      427.71445    
   7720000   35.961063      116.73688      391.62805    
   7730000   33.088924      126.44698      424.20341    
   7740000   39.975223      104.70685      351.26979    
   7750000   21.579036      105.99314      355.58502    
   7760000   39.201957      102.1245       342.60655    
   7770000   13.84501       109.68289      367.96336    
   7780000   27.323933      113.87596      382.03025    
   7790000   18.756586      117.82776      395.28771    
   7800000   28.442848      103.46382      347.09968    
   7810000   3.3836244      110.69542      371.36021    
   7820000   15.212228      123.62486      414.7358     
   7830000   35.230904      121.07902      406.19504    
   7840000   30.768729      119.19634      399.87901    
   7850000   27.455931      109.34446      366.82802    
   7860000   30.619222      111.51517      374.11029    
   7870000   21.74938       109.6126       367.72755    
   7880000   31.383759      118.70563      398.2328     
   7890000   21.614156      135.37829      454.16611    
   7900000   41.966388      123.54207      414.45805    
   7910000   52.78944       110.06314      369.23902    
   7920000   30.110175      111.41179      373.76346    
   7930000   44.988883      119.15966      399.75595    
   7940000   21.712751      117.51575      394.241      
   7950000   30.423906      110.84307      371.85554    
   7960000   12.172985      134.4176       450.94319    
   7970000   31.74117       114.73928      384.92652    
   7980000   35.642923      109.00015      365.67291    
   7990000   39.398364      109.68376      367.9663     
   8000000   27.419339      137.31906      460.67698    
   8010000   39.18926       120.0978       402.90322    
   8020000   51.443428      122.51779      411.02179    
   8030000   27.478627      118.4799       397.4755     
   8040000   29.776101      127.3849       427.34995    
   8050000   31.442658      107.9222       362.05661    
   8060000   42.493211      116.07687      389.41385    
   8070000   38.389819      125.48451      420.97452    
   8080000   36.903284      119.18281      399.83364    
   8090000   40.739097      118.55793      397.7373     
   8100000   35.308228      124.44898      417.50055    
   8110000   43.613878      130.83278      438.91685    
   8120000   55.360357      113.64186      381.24489    
   8130000   46.353203      132.80876      445.54586    
   8140000   66.420027      135.51421      454.6221     
   8150000   45.993815      114.5679       384.35156    
   8160000   43.336644      99.880356      335.07789    
   8170000   55.113551      124.46512      417.55468    
   8180000   50.45419       111.71946      374.79562    
   8190000   49.550332      119.63918      401.36464    
   8200000   60.049297      119.66346      401.44609    
   8210000   51.725883      114.05008      382.61438    
   8220000   51.687444      122.03305      409.39561    
   8230000   55.917994      115.59         387.78051    
   8240000   35.558858      125.98354      422.64867    
   8250000   44.084034      129.82245      435.52743    
   8260000   38.259186      134.39186      450.85685    
   8270000   64.894837      138.89389      465.96022    
   8280000   55.273208      158.47155      531.63921    
   8290000   59.167288      139.89469      469.31771    
   8300000   60.332785      110.94658      372.20278    
   8310000   54.168532      129.44778      434.27048    
   8320000   54.387616      133.22554      446.94408    
   8330000   53.145545      114.21469      383.1666     
   8340000   61.362738      111.76027      374.93255    
   8350000   74.625613      140.97324      472.93599    
   8360000   78.987146      140.76378      472.23331    
   8370000   76.777368      104.79335      351.55996    
   8380000   78.354165      102.76472      344.75432    
   8390000   76.344109      111.88911      375.36477    
   8400000   66.018092      116.89506      392.15871    
   8410000   69.198326      125.49132      420.99739    
   8420000   61.038154      119.9582       402.43491    
   8430000   83.710325      118.05082      396.03603    
   8440000   76.70527       125.50296      421.03643    
   8450000   80.241182      117.65124      394.69551    
   8460000   89.008908      129.92218      435.86197    
   8470000   64.520956      118.74634      398.36938    
   8480000   75.310113      128.15906      429.94707    
   8490000   70.684119      114.3224       383.52796    
   8500000   76.243938      125.44313      420.8357     
   8510000   82.675421      117.80237      395.20254    
   8520000   67.744551      142.96031      479.60222    
   8530000   88.363214      132.84275      445.65989    
   8540000   76.381809      124.1547       416.51328    
   8550000   71.784131      124.62105      418.07781    
   8560000   70.51386       121.74827      408.44022    
   8570000   64.546224      131.25026      440.31743    
   8580000   89.710852      124.82177      418.75117    
   8590000   79.166637      122.34756      410.45072    
   8600000   85.787651      116.81246      391.88161    
   8610000   69.403727      135.11813      453.29331    
   8620000   86.049042      125.96162      422.57513    
   8630000   79.992206      123.33394      413.75981    
   8640000   68.825881      128.50904      431.1212     
   8650000   91.117538      107.04724      359.12131    
   8660000   73.757943      128.29123      430.39048    
   8670000   74.978         106.71464      358.00549    
   8680000   60.244332      123.46929      414.21387    
   8690000   83.441632      105.76567      354.82192    
   8700000   59.143915      135.49111      454.5446     
   8710000   84.767975      135.81743      455.63932    
   8720000   94.490355      123.20599      413.33058    
   8730000   63.060106      157.39599      528.03093    
   8740000   86.777766      123.42038      414.04981    
   8750000   83.843443      120.5556       404.43906    
   8760000   69.177282      115.53628      387.60029    
   8770000   65.08331       132.42928      444.2728     
   8780000   52.045796      132.11516      443.21897    
   8790000   74.173922      110.34473      370.18369    
   8800000   63.792926      125.27358      420.26691    
   8810000   59.780148      116.25944      390.02631    
   8820000   54.535465      140.17418      470.25534    
   8830000   58.468254      124.35252      417.17693    
   8840000   64.369263      119.1462       399.7108     
   8850000   60.292765      114.55644      384.31311    
   8860000   57.172025      126.98092      425.99469    
   8870000   57.0216        142.05936      476.57971    
   8880000   52.735211      119.62068      401.30258    
   8890000   63.81036       128.03384      429.527      
   8900000   34.214147      125.67688      421.61988    
   8910000   53.205573      123.58338      414.59664    
   8920000   81.314209      121.42526      407.35659    
   8930000   61.143885      117.63519      394.64167    
   8940000   82.259954      142.86037      479.26693    
   8950000   74.239159      138.70336      465.32104    
   8960000   76.706425      122.76711      411.85822    
   8970000   56.8018        139.07833      466.57897    
   8980000   80.725897      114.91763      385.52483    
   8990000   89.27178       130.67142      438.37555    
   9000000   77.970667      136.07231      456.4944     
   9010000   82.70405       142.00087      476.38349    
   9020000   70.042068      119.17996      399.82408    
   9030000   90.188606      146.64407      491.96046    
   9040000   83.527429      130.07622      436.37878    
   9050000   75.543574      140.71113      472.05669    
   9060000   83.619479      127.7732       428.6526     
   9070000   76.982359      125.96513      422.58692    
   9080000   83.121958      122.67336      411.54371    
   9090000   70.832067      112.72693      378.1755     
   9100000   92.344565      106.46222      357.15867    
   9110000   97.598361      110.86521      371.92981    
   9120000   76.639746      110.16326      369.57492    
   9130000   73.959794      116.37234      390.40509    
   9140000   83.143474      115.06577      386.02182    
   9150000   78.648294      102.49959      343.86488    
   9160000   95.762288      107.21185      359.67354    
   9170000   67.067363      129.36516      433.99331    
   9180000   75.831362      119.33332      400.33856    
   9190000   62.645699      134.74827      452.05253    
   9200000   66.895938      123.50826      414.34463    
   9210000   62.50106       121.73987      408.41203    
   9220000   80.01491       125.00307      419.35938    
   9230000   78.207962      124.05772      416.18794    
   9240000   62.09303       136.19542      456.9074     
   9250000   76.706984      125.34         420.48973    
   9260000   84.110342      133.51359      447.91044    
   9270000   68.564092      121.35647      407.12581    
   9280000   83.545379      96.688163      324.36875    
   9290000   76.3203        126.49813      424.37502    
   9300000   81.638147      120.44793      404.07785    
   9310000   73.402497      122.66082      411.50162    
   9320000   78.450151      144.44722      484.59048    
   9330000   99.102727      124.58483      417.9563     
   9340000   84.627341      115.68267      388.09139    
   9350000   77.526487      130.06561      436.34315    
   9360000   81.849357      125.50774      421.05247    
   9370000   80.61318       147.54922      494.99705    
   9380000   84.077958      141.24718      473.85502    
   9390000   82.978222      130.91177      439.18186    
   9400000   85.120399      125.42625      420.77907    
   9410000   75.16876       124.114        416.37675    
   9420000   94.198821      132.86678      445.74052    
   9430000   79.256722      110.86263      371.92114    
   9440000   80.190729      115.08924      386.10055    
   9450000   85.211246      144.0575       483.28306    
   9460000   82.020884      137.11181      459.98169    
   9470000   78.53256       136.38723      457.55088    
   9480000   73.589308      154.11077      517.0097     
   9490000   78.969948      129.5752       434.69796    
   9500000   78.981002      125.15589      419.87206    
   9510000   66.337719      124.7993       418.6758     
   9520000   61.931604      133.3721       447.43576    
   9530000   74.582405      116.29141      390.13359    
   9540000   74.401915      122.35993      410.49219    
   9550000   69.954861      122.91417      412.35157    
   9560000   79.064207      133.59839      448.1949     
   9570000   78.214124      128.45827      430.95087    
   9580000   94.669526      136.99655      459.59503    
   9590000   71.777269      152.22578      510.68596    
   9600000   95.735639      145.48222      488.06271    
   9610000   76.943526      135.49386      454.55383    
   9620000   80.179972      148.12428      496.92625    
   9630000   93.767718      147.29504      494.14433    
   9640000   98.981755      122.26406      410.1706     
   9650000   88.378359      137.58904      461.58271    
   9660000   97.339114      128.47628      431.0113     
   9670000   95.779028      132.95119      446.02371    
   9680000   87.785465      113.27421      380.01151    
   9690000   79.408549      123.85526      415.50873    
   9700000   89.082119      133.54632      448.02022    
   9710000   85.758012      146.18254      490.41213    
   9720000   93.726249      130.50258      437.80912    
   9730000   105.68218      130.48836      437.76139    
   9740000   85.19202       131.1547       439.99684    
   9750000   80.46539       133.87431      449.12056    
   9760000   75.219321      119.52345      400.9764     
   9770000   75.070361      132.8012       445.52052    
   9780000   92.708387      135.65761      455.10318    
   9790000   83.751557      159.88133      536.36872    
   9800000   95.416842      127.11992      426.46098    
   9810000   78.075972      132.22461      443.58615    
   9820000   84.486107      130.59995      438.13578    
   9830000   83.259101      122.44031      410.76185    
   9840000   85.17633       135.90058      455.91828    
   9850000   87.017321      124.44238      417.47841    
   9860000   83.027474      139.1281       466.74593    
   9870000   79.082684      127.64158      428.21105    
   9880000   76.135894      133.40154      447.53453    
   9890000   85.648207      134.67085      451.79279    
   9900000   85.389582      132.80793      445.54309    
   9910000   83.66806       133.55807      448.05963    
   9920000   71.758243      138.27979      463.90005    
   9930000   74.984522      132.43057      444.27712    
   9940000   89.980592      132.96155      446.05844    
   9950000   91.211296      147.79152      495.80992    
   9960000   86.743527      130.4651       437.68338    
   9970000   78.060198      148.40141      497.85598    
   9980000   86.633104      136.28915      457.22184    
   9990000   76.036684      128.49924      431.08832    
  10000000   84.756001      125.40843      420.7193     
  10010000   87.133229      138.54113      464.77678    
  10020000   82.510932      155.05103      520.16409    
  10030000   95.078037      130.19309      436.77083    
  10040000   89.497248      127.70668      428.42946    
  10050000   95.251271      139.31264      467.36502    
  10060000   76.125109      151.32213      507.65439    
  10070000   77.556135      139.61402      468.37612    
  10080000   78.972077      126.64922      424.88189    
  10090000   98.234775      116.68119      391.44122    
  10100000   91.741743      141.25136      473.86904    
  10110000   78.187034      154.93335      519.76927    
  10120000   85.769845      127.1964       426.71758    
  10130000   100.60812      142.4814       477.99556    
  10140000   77.47544       130.90418      439.15641    
  10150000   91.848022      127.37881      427.3295     
  10160000   82.447819      137.59419      461.59999    
  10170000   78.530472      125.75875      421.89456    
  10180000   84.557355      142.92164      479.47248    
  10190000   74.701297      139.13596      466.77233    
  10200000   97.756778      122.57708      411.22069    
  10210000   91.190171      138.94132      466.11933    
  10220000   74.595308      149.61902      501.9408     
  10230000   74.989206      142.38096      477.6586     
  10240000   62.73019       138.08125      463.23398    
  10250000   72.139898      133.35113      447.3654     
  10260000   42.803178      132.28814      443.79929    
  10270000   57.211682      131.16504      440.03153    
  10280000   71.698056      119.72108      401.63943    
  10290000   79.462204      144.3013       484.10094    
  10300000   75.086918      138.43977      464.43675    
  10310000   77.033269      161.12248      540.53253    
  10320000   94.606327      138.64233      465.11627    
  10330000   94.053856      137.65154      461.79241    
  10340000   73.668272      141.3528       474.20936    
  10350000   89.387001      130.31567      437.18208    
  10360000   93.660704      133.5156       447.91715    
  10370000   88.643424      133.31472      447.24325    
  10380000   92.100773      146.1805       490.40529    
  10390000   94.067689      143.19346      480.38437    
  10400000   96.024475      156.71097      525.73282    
  10410000   81.114857      136.41879      457.65677    
  10420000   78.350004      134.67373      451.80246    
  10430000   89.562067      123.82014      415.39092    
  10440000   105.83016      141.35016      474.20051    
  10450000   96.43472       140.00895      469.70101    
  10460000   93.697575      132.39228      444.14867    
  10470000   85.92652       121.81903      408.67761    
  10480000   81.653831      157.02281      526.77898    
  10490000   82.930733      145.03885      486.5753     
  10500000   90.026972      145.64464      488.6076     
  10510000   84.776827      135.2071       453.59181    
  10520000   75.059354      153.70938      515.66313    
  10530000   70.062826      146.3836       491.08665    
  10540000   84.096264      138.24413      463.78041    
  10550000   101.16939      122.45653      410.81629    
  10560000   90.553338      135.57419      454.8233     
  10570000   97.684487      130.25427      436.97608    
  10580000   79.50155       133.36654      447.41709    
  10590000   87.649888      126.05977      422.90439    
  10600000   82.865036      133.01699      446.24445    
  10610000   80.903156      130.80436      438.82154    
  10620000   73.041439      126.13356      423.15197    
  10630000   83.086613      130.41054      437.50035    
  10640000   83.763075      137.01486      459.65645    
  10650000   76.43223       144.16708      483.65068    
  10660000   72.014248      124.93662      419.13646    
  10670000   70.457504      133.56515      448.08342    
  10680000   62.152724      156.42133      524.76114    
  10690000   82.754884      136.67386      458.51247    
  10700000   82.174302      147.98953      496.47419    
  10710000   76.45246       158.29946      531.06188    
  10720000   87.100272      132.78343      445.46088    
  10730000   72.550715      133.80737      448.89599    
  10740000   68.193861      126.88891      425.68601    
  10750000   64.98547       141.85202      475.88413    
  10760000   93.258546      142.93324      479.5114     
  10770000   82.979754      125.76803      421.92569    
  10780000   84.472094      141.24413      473.84479    
  10790000   85.03893       130.51046      437.83553    
  10800000   96.315839      135.71574      455.29819    
  10810000   83.478911      151.04528      506.72561    
  10820000   97.837632      132.52635      444.59845    
  10830000   92.691089      149.08146      500.1374     
  10840000   71.454041      150.22312      503.96744    
  10850000   74.757678      142.47498      477.97403    
  10860000   71.13601       150.39596      504.54729    
  10870000   73.747515      112.62519      377.83419    
  10880000   92.784488      121.2973       406.9273     
  10890000   76.761243      148.99786      499.85693    
  10900000   84.656701      146.73029      492.24973    
  10910000   91.467675      146.55941      491.67646    
  10920000   90.079555      113.44223      380.57517    
  10930000   87.073298      134.11712      449.93515    
  10940000   88.558124      140.57405      471.59679    
  10950000   112.33958      149.31802      500.931      
  10960000   79.341881      159.27272      534.32696    
  10970000   77.531775      134.25074      450.38342    
  10980000   85.595436      147.15296      493.6677     
  10990000   97.213142      143.59296      481.72462    
  11000000   101.56052      146.9973       493.1455     
  11010000   94.64094       153.50898      514.99081    
  11020000   89.056336      142.70861      478.75783    
  11030000   104.31524      142.67563      478.64718    
  11040000   80.697061      159.20314      534.09353    
  11050000   85.667201      141.17764      473.62172    
  11060000   85.523968      137.75116      462.12659    
  11070000   80.822506      131.95037      442.66614    
  11080000   88.867033      140.27         470.57677    
  11090000   85.976929      113.87959      382.04244    
  11100000   82.862622      137.79134      462.26139    
  11110000   85.72539       122.40102      410.63006    
  11120000   86.579487      128.61393      431.47309    
  11130000   93.990605      153.116        513.67245    
  11140000   92.032389      130.9725       439.3856     
  11150000   87.82723       137.31453      460.66179    
  11160000   88.260168      137.61543      461.67124    
  11170000   97.8296        145.61311      488.5018     
  11180000   98.729267      143.56142      481.61881    
  11190000   94.172128      149.41932      501.27085    
  11200000   104.80434      141.42019      474.43544    
  11210000   78.458036      144.15735      483.61803    
  11220000   81.170029      142.87888      479.32905    
  11230000   82.854681      152.581        511.87762    
  11240000   82.079778      128.42977      430.85527    
  11250000   87.375315      148.9447       499.67862    
  11260000   106.78433      138.12092      463.36705    
  11270000   89.717016      148.89252      499.50355    
  11280000   87.43614       165.21497      554.26199    
  11290000   90.808863      144.01148      483.12866    
  11300000   90.357498      149.25174      500.70867    
  11310000   82.180924      125.33839      420.48432    
  11320000   65.619768      161.14963      540.6236     
  11330000   87.938129      147.47412      494.7451     
  11340000   99.877602      124.20655      416.68725    
  11350000   98.787359      126.19578      423.36069    
  11360000   90.472165      133.77879      448.80012    
  11370000   105.52035      148.37037      497.75184    
  11380000   91.865956      146.31257      490.84834    
  11390000   86.579139      121.94502      409.10028    
  11400000   102.77705      125.09841      419.67923    
  11410000   96.970646      134.21536      450.26471    
  11420000   66.358257      156.55509      525.20987    
  11430000   96.36399       124.12152      416.40199    
  11440000   109.27977      140.26735      470.56788    
  11450000   103.79771      148.05091      496.68013    
  11460000   88.560576      156.40886      524.7193     
  11470000   87.525273      127.80558      428.76124    
  11480000   84.863436      146.13854      490.2645     
  11490000   102.0336       120.49915      404.24966    
  11500000   88.590486      126.73223      425.16036    
  11510000   84.701727      154.56357      518.52875    
  11520000   97.399079      137.66016      461.82132    
  11530000   102.99754      147.76796      495.73089    
  11540000   102.19201      173.92081      583.46828    
  11550000   96.556858      149.17932      500.4657     
  11560000   95.24961       123.126        413.06222    
  11570000   85.280169      147.53198      494.93921    
  11580000   95.753728      141.17128      473.6004     
  11590000   86.652103      146.96431      493.0348     
  11600000   96.328132      161.47036      541.6996     
  11610000   102.67918      141.10838      473.38936    
  11620000   82.091836      132.43582      444.29474    
  11630000   91.884935      129.52378      434.52544    
  11640000   92.325565      165.78622      556.1784     
  11650000   104.73723      146.14472      490.28525    
  11660000   96.176397      144.08309      483.36889    
  11670000   116.63223      156.41983      524.75613    
  11680000   102.38149      165.04635      553.69631    
  11690000   74.810784      148.1036       496.85689    
  11700000   97.674483      150.32052      504.2942     
  11710000   82.019057      144.0526       483.26662    
  11720000   102.62564      143.12753      480.1632     
  11730000   90.240023      157.21143      527.41176    
  11740000   101.58053      164.4704       551.7641     
  11750000   95.85407       160.96055      539.98929    
  11760000   103.51995      153.59522      515.28012    
  11770000   102.65571      164.84129      553.00837    
  11780000   111.58589      128.20372      430.0969     
  11790000   94.186383      175.60543      589.11982    
  11800000   94.937576      147.37567      494.41485    
  11810000   100.60966      157.09497      527.02108    
  11820000   94.98269       143.94516      482.90617    
  11830000   100.88674      137.70572      461.97415    
  11840000   92.774309      148.09805      496.83828    
  11850000   93.652088      143.32531      480.8267     
  11860000   98.037777      153.40874      514.65452    
  11870000   83.829264      133.45927      447.7282     
  11880000   91.649063      139.35488      467.50675    
  11890000   83.219288      168.54024      565.41757    
  11900000   96.872502      162.4993       545.15147    
  11910000   92.210148      144.44019      484.56691    
  11920000   103.44821      149.44886      501.36994    
  11930000   86.69551       147.50149      494.83694    
  11940000   80.481772      146.47932      491.40777    
  11950000   87.261169      137.92478      462.70906    
  11960000   81.337865      147.04773      493.31467    
  11970000   81.783391      143.48447      481.36065    
  11980000   100.86288      134.77711      452.14926    
  11990000   91.911981      164.94546      553.35783    
  12000000   85.32498       148.93718      499.65337    
Loop time of 347.579 on 1 procs for 8000000 steps with 101 atoms

Performance: 19886.126 ns/day, 0.001 hours/ns, 23016.349 timesteps/s, 2.325 Matom-step/s
99.2% CPU use with 1 MPI tasks x 1 OpenMP threads

MPI task timing breakdown:
Section |  min time  |  avg time  |  max time  |%varavg| %total
---------------------------------------------------------------
Pair    | 281.34     | 281.34     | 281.34     |   0.0 | 80.94
Bond    | 39.577     | 39.577     | 39.577     |   0.0 | 11.39
Neigh   | 4.1443     | 4.1443     | 4.1443     |   0.0 |  1.19
Comm    | 4.1647     | 4.1647     | 4.1647     |   0.0 |  1.20
Output  | 0.23071    | 0.23071    | 0.23071    |   0.0 |  0.07
Modify  | 16.67      | 16.67      | 16.67      |   0.0 |  4.80
Other   |            | 1.455      |            |       |  0.42

Nlocal:            101 ave         101 max         101 min
Histogram: 1 0 0 0 0 0 0 0 0 0
Nghost:              0 ave           0 max           0 min
Histogram: 1 0 0 0 0 0 0 0 0 0
Neighs:            419 ave         419 max         419 min
Histogram: 1 0 0 0 0 0 0 0 0 0

Total # of neighbors = 419
Ave neighs/atom = 4.1485149
Ave special neighs/atom = 5.8811881
Neighbor list builds = 23240
Dangerous builds = 0

  # Hold at 500
  variable seedHH equal 45000+${c}
  variable seedHH equal 45000+1
  unfix fxl
  fix fxl all langevin ${T_high} ${T_high} 100000.0 ${seedHH}
  fix fxl all langevin 500 ${T_high} 100000.0 ${seedHH}
  fix fxl all langevin 500 500 100000.0 ${seedHH}
  fix fxl all langevin 500 500 100000.0 45001
  run ${n_holdH}
  run 8000000
Generated 0 of 6 mixed pair_coeff terms from geometric mixing rule
Per MPI rank memory allocation (min/avg/max) = 9.633 | 9.633 | 9.633 Mbytes
   Step         PotEng         KinEng          Temp     
  12000000   85.32498       148.93718      499.65337    
  12010000   104.48102      165.286        554.50029    
  12020000   88.698         141.54379      474.85008    
  12030000   81.0717        154.10631      516.99473    
  12040000   92.419796      160.85258      539.62707    
  12050000   96.953513      155.72865      522.43736    
  12060000   96.794806      141.03127      473.13068    
  12070000   84.84961       143.02028      479.8034     
  12080000   91.548646      167.48022      561.86145    
  12090000   86.49638       130.97235      439.38509    
  12100000   86.790024      144.70898      485.46863    
  12110000   83.947702      150.09576      503.54019    
  12120000   100.85857      157.57544      528.63295    
  12130000   108.59028      148.73064      498.96046    
  12140000   83.261451      156.57055      525.26175    
  12150000   91.096571      143.55792      481.60709    
  12160000   91.046899      147.0732       493.40012    
  12170000   94.386381      144.63207      485.21063    
  12180000   82.425896      146.80701      492.5071     
  12190000   86.612517      137.1624       460.15143    
  12200000   92.238588      148.56702      498.41156    
  12210000   98.320016      147.57072      495.06919    
  12220000   76.944524      145.93669      489.58734    
  12230000   99.284764      147.85323      496.01695    
  12240000   90.673488      140.36913      470.90933    
  12250000   95.786611      150.75719      505.75914    
  12260000   86.305408      156.0079       523.37416    
  12270000   100.33616      135.39737      454.23011    
  12280000   102.336        168.58126      565.5552     
  12290000   93.224446      157.62136      528.78699    
  12300000   96.154704      166.67629      559.16441    
  12310000   78.549212      147.77801      495.7646     
  12320000   91.123339      161.10637      540.47848    
  12330000   107.27357      147.54046      494.96768    
  12340000   86.014367      138.63183      465.08107    
  12350000   86.038358      158.32087      531.13371    
  12360000   82.986825      161.31402      541.17509    
  12370000   77.567837      150.58927      505.19579    
  12380000   95.976502      161.42054      541.53248    
  12390000   89.437156      160.09607      537.08915    
  12400000   105.85554      150.13309      503.66542    
  12410000   88.096859      158.87002      532.97599    
  12420000   86.314252      148.36415      497.73098    
  12430000   101.84672      151.79828      509.25177    
  12440000   100.19947      143.20379      480.41905    
  12450000   90.641791      150.16812      503.78292    
  12460000   96.075803      139.21881      467.05027    
  12470000   105.5336       155.39947      521.33303    
  12480000   90.534709      167.97388      563.51754    
  12490000   96.466546      154.94247      519.79988    
  12500000   105.36527      160.43141      538.21413    
  12510000   100.54296      151.61495      508.63674    
  12520000   99.391785      145.40894      487.81687    
  12530000   86.341264      139.78637      468.9543     
  12540000   79.998968      136.13317      456.69856    
  12550000   102.22242      173.18457      580.99833    
  12560000   91.406019      159.93818      536.55943    
  12570000   104.51485      148.64101      498.65978    
  12580000   108.21064      135.51114      454.61181    
  12590000   102.33833      156.26189      524.22625    
  12600000   104.83635      142.83395      479.17832    
[...]
 404760000  -55.816304      82.715661      277.4939     
 404770000  -47.117254      82.825074      277.86096    
 404780000  -42.296812      82.572364      277.01317    
 404790000  -43.099314      84.823169      284.56415    
 404800000  -33.228209      92.045142      308.79238    
 404810000  -20.548528      105.14839      352.75105    
 404820000  -29.194271      100.7446       337.97726    
 404830000  -20.239304      95.60339       320.72956    
 404840000  -29.12151       94.844069      318.1822     
 404850000  -16.366101      86.185253      289.13366    
 404860000  -43.411058      95.356629      319.90173    
 404870000  -33.233112      86.722455      290.93587    
 404880000  -39.590763      85.080908      285.42882    
 404890000  -35.038509      97.314074      326.46855    
 404900000  -50.427009      90.120474      302.33552    
 404910000  -54.965532      96.824273      324.82537    
 404920000  -35.142885      77.495467      259.98123    
 404930000  -38.27089       84.371189      283.04786    
 404940000  -44.169495      94.1899        315.9876     
 404950000  -30.473417      98.144574      329.25471    
 404960000  -20.244607      94.340805      316.49385    
 404970000  -28.199351      88.648574      297.39759    
 404980000  -28.184094      96.01207       322.1006     
 404990000  -34.68091       86.802626      291.20482    
 405000000  -31.422106      95.013941      318.75208    
 405010000  -29.753914      87.209189      292.56876    
 405020000  -32.621456      89.415125      299.96922    
 405030000  -31.479858      99.473995      333.71464    
 405040000  -28.147118      94.889069      318.33316    
 405050000  -41.328071      97.021351      325.48653    
 405060000  -24.165879      80.517744      270.12034    
 405070000  -39.045674      95.438295      320.1757     
 405080000  -31.862501      87.473485      293.45542    
 405090000  -27.035517      82.477111      276.69361    
 405100000  -14.387389      86.581494      290.46297    
 405110000  -31.911117      96.487919      323.69697    
 405120000  -35.374567      92.47298       310.22768    
 405130000  -29.910139      94.797747      318.0268     
 405140000  -37.254517      100.09906      335.81161    
 405150000  -28.467091      99.38336       333.41058    
 405160000  -41.710149      99.900819      335.14655    
 405170000  -50.090626      101.15574      339.35655    
 405180000  -26.066651      93.465807      313.55841    
 405190000  -34.928345      88.453869      296.7444     
 405200000  -32.877012      78.582876      263.62926    
 405210000  -45.557347      88.966673      298.46475    
 405220000  -31.734642      88.787673      297.86424    
 405230000  -34.045562      106.11457      355.99239    
 405240000  -40.164116      85.28723       286.12098    
 405250000  -41.578898      98.586563      330.73749    
 405260000  -33.554351      87.979486      295.15294    
 405270000  -50.680936      86.977447      291.79131    
 405280000  -55.307616      86.168989      289.0791     
 405290000  -65.700429      82.490519      276.7386     
 405300000  -62.655189      93.117324      312.38933    
 405310000  -49.213168      91.471517      306.86798    
 405320000  -48.076804      90.146104      302.4215     
 405330000  -49.351274      91.026604      305.37539    
 405340000  -42.31519       90.26376       302.81621    
 405350000  -50.998043      104.62299      350.98845    
 405360000  -39.83745       105.27708      353.18277    
 405370000  -57.541006      84.283689      282.75431    
 405380000  -63.968862      100.1958       336.13616    
 405390000  -38.840381      102.37534      343.44807    
 405400000  -48.847398      91.670078      307.53412    
 405410000  -47.499399      82.450836      276.60547    
 405420000  -59.370245      86.790308      291.1635     
 405430000  -37.30572       88.062372      295.43101    
 405440000  -34.218512      83.716896      280.85284    
 405450000  -48.352005      84.44574       283.29796    
 405460000  -41.031676      90.373574      303.18461    
 405470000  -60.017389      100.18798      336.10992    
 405480000  -46.792629      86.327128      289.60962    
 405490000  -53.395391      84.676041      284.07057    
 405500000  -63.459995      100.33351      336.59812    
 405510000  -56.087872      87.360732      293.07715    
 405520000  -39.488838      90.175327      302.51953    
 405530000  -24.260936      92.671012      310.89204    
 405540000  -39.215244      88.042209      295.36337    
 405550000  -41.897546      82.943353      278.25776    
 405560000  -43.262159      85.904762      288.19267    
 405570000  -28.136199      87.846073      294.70537    
 405580000  -39.486501      88.69408       297.55026    
 405590000  -43.324876      95.098504      319.03577    
 405600000  -40.466745      78.684011      263.96855    
 405610000  -49.034906      93.12898       312.42843    
 405620000  -33.771252      82.780027      277.70984    
 405630000  -25.596008      80.039876      268.5172     
 405640000  -30.668865      94.185513      315.97288    
 405650000  -42.755939      90.22414       302.68329    
 405660000  -26.854275      80.844002      271.21487    
 405670000  -36.179731      90.335335      303.05633    
 405680000  -61.586394      88.616412      297.2897     
 405690000  -39.85425       80.584727      270.34506    
 405700000  -44.206231      89.849029      301.42487    
 405710000  -52.597686      91.116376      305.67656    
 405720000  -43.043398      84.372904      283.05361    
 405730000  -53.922569      85.681394      287.44332    
 405740000  -49.695643      80.264823      269.27185    
 405750000  -52.433268      98.114582      329.15409    
 405760000  -44.731437      88.288636      296.19008    
 405770000  -47.413294      92.80587       311.34446    
 405780000  -53.740084      92.004619      308.65643    
 405790000  -59.676907      89.170078      299.14713    
 405800000  -41.721285      82.116819      275.48491    
 405810000  -39.440282      100.69834      337.82207    
 405820000  -51.810503      100.61278      337.53502    
 405830000  -45.530708      87.932204      294.99432    
 405840000  -45.543422      82.476917      276.69296    
 405850000  -23.337384      92.412278      310.02404    
 405860000  -45.521768      98.444195      330.25987    
 405870000  -37.423286      85.111927      285.53288    
 405880000  -27.712494      88.169477      295.79032    
 405890000  -47.162092      90.39159       303.24505    
 405900000  -41.508124      89.175832      299.16644    
 405910000  -58.424545      88.947029      298.39885    
 405920000  -56.916852      90.767454      304.506      
 405930000  -62.122844      104.07553      349.15182    
 405940000  -51.235341      93.663908      314.223      
 405950000  -63.535808      82.362955      276.31064    
 405960000  -68.051583      81.629539      273.85019    
 405970000  -64.245247      81.994647      275.07505    
 405980000  -54.012964      94.125914      315.77294    
 405990000  -52.412997      77.957482      261.5312     
 406000000  -49.156561      86.38455       289.80226    
 406010000  -42.599138      89.05058       298.74624    
 406020000  -32.370942      85.681254      287.44285    
 406030000  -43.479772      84.634846      283.93237    
 406040000  -48.190198      84.155345      282.32374    
 406050000  -28.637007      81.582041      273.69084    
 406060000  -37.487438      84.424362      283.22624    
 406070000  -58.513458      92.377277      309.90662    
 406080000  -41.709788      88.391579      296.53543    
 406090000  -32.437957      84.325937      282.89604    
 406100000  -35.123816      104.68344      351.19126    
 406110000  -35.577579      96.714811      324.45815    
 406120000  -34.032841      91.82546       308.05539    
 406130000  -48.223276      99.888514      335.10526    
 406140000  -48.949747      84.536924      283.60386    
 406150000  -45.677649      92.228476      309.40742    
 406160000  -49.871634      85.890555      288.14501    
 406170000  -64.887936      87.414484      293.25748    
 406180000  -43.088175      85.651744      287.34385    
 406190000  -39.407758      79.938045      268.17557    
 406200000  -66.561327      94.363519      316.57005    
 406210000  -48.002146      84.67979       284.08315    
 406220000  -41.87127       89.169301      299.14452    
 406230000  -46.812767      90.793512      304.59342    
 406240000  -38.861727      81.923918      274.83777    
 406250000  -48.887324      97.367169      326.64667    
 406260000  -42.352219      86.019607      288.57795    
 406270000  -32.836191      77.265778      259.21067    
 406280000  -32.795354      102.06932      342.42142    
 406290000  -59.893629      101.43891      340.30653    
 406300000  -61.507343      77.357195      259.51736    
 406310000  -62.294456      84.481205      283.41694    
 406320000  -43.561752      83.052369      278.62349    
 406330000  -34.759032      81.135327      272.19221    
 406340000  -41.662775      93.935551      315.13431    
 406350000  -35.586271      86.81903       291.25985    
 406360000  -38.916637      84.376351      283.06517    
 406370000  -64.105787      97.018788      325.47793    
 406380000  -68.520382      87.784082      294.4974     
 406390000  -60.845197      94.367761      316.58428    
 406400000  -46.613638      94.723691      317.77835    
 406410000  -33.05881       96.619483      324.13834    
 406420000  -49.642936      98.793808      331.43275    
 406430000  -33.963575      95.097601      319.03274    
 406440000  -33.385054      95.870011      321.62402    
 406450000  -44.254716      91.594317      307.27995    
 406460000  -48.470061      90.628445      304.03965    
 406470000  -58.442128      87.697682      294.20755    
 406480000  -38.979275      88.499777      296.89841    
 406490000  -50.678628      90.845562      304.76803    
 406500000  -56.54099       80.839609      271.20013    
 406510000  -51.415282      90.553638      303.78869    
 406520000  -45.391146      96.108585      322.42439    
 406530000  -49.498362      103.57366      347.46818    
 406540000  -40.442526      90.642598      304.08713    
 406550000  -31.671581      94.204578      316.03684    
 406560000  -45.320129      97.492749      327.06797    
 406570000  -45.685732      93.42019       313.40538    
 406580000  -40.104474      94.158985      315.88388    
 406590000  -42.762136      94.108282      315.71378    
 406600000  -49.350826      84.885731      284.77404    
 406610000  -60.590191      92.562689      310.52864    
 406620000  -62.665725      106.28886      356.5771     
 406630000  -65.211195      97.339388      326.55348    
 406640000  -42.834407      81.12131       272.14518    
 406650000  -43.563332      93.545742      313.82658    
 406660000  -58.021435      82.816774      277.83311    
 406670000  -48.046827      69.057406      231.67329    
 406680000  -43.314272      89.400239      299.91928    
 406690000  -56.152478      91.279167      306.22269    
 406700000  -32.46368       87.104445      292.21736    
 406710000  -43.322595      88.418843      296.6269     
 406720000  -29.792543      85.401992      286.50598    
 406730000  -52.342494      81.550427      273.58478    
 406740000  -36.964896      85.119405      285.55796    
 406750000  -35.346631      82.741256      277.57977    
 406760000  -33.137983      87.008628      291.89591    
 406770000  -41.160134      82.9732        278.35789    
 406780000  -29.421721      89.370345      299.81899    
 406790000  -42.805426      96.203694      322.74346    
 406800000  -17.861089      88.394506      296.54525    
 406810000  -20.190491      97.814289      328.14667    
 406820000  -36.726388      95.000375      318.70657    
 406830000  -39.889611      94.86364       318.24785    
 406840000  -36.88895       84.564548      283.69653    
 406850000  -52.532175      76.34412       256.1187     
 406860000  -51.684118      75.328228      252.7106     
 406870000  -38.040661      79.713585      267.42256    
 406880000  -27.491407      86.626873      290.61521    
 406890000  -28.126271      83.525521      280.21081    
 406900000  -39.218697      82.927056      278.20309    
 406910000  -36.310395      85.804588      287.85661    
 406920000  -33.973031      80.381216      269.66232    
 406930000  -53.009521      101.74421      341.33076    
 406940000  -34.07273       90.309738      302.97046    
 406950000  -17.039842      82.968082      278.34072    
 406960000  -38.196331      89.082872      298.85457    
 406970000  -33.161033      92.308451      309.67572    
 406980000  -27.224102      80.138834      268.84918    
 406990000  -35.877243      85.172033      285.73452    
 407000000  -60.000042      97.509022      327.12256    
 407010000  -38.4051        91.178968      305.88654    
 407020000  -53.161132      83.642116      280.60197    
 407030000  -63.070519      83.86008       281.33319    
 407040000  -41.357072      93.251041      312.83792    
 407050000  -48.130622      97.750889      327.93397    
 407060000  -51.189395      86.778508      291.12391    
 407070000  -57.334668      70.441045      236.31511    
 407080000  -67.365436      76.852779      257.82515    
 407090000  -57.919961      83.992195      281.77641    
 407100000  -63.128636      87.406297      293.23001    
 407110000  -64.457083      81.272874      272.65365    
 407120000  -58.748959      95.335339      319.83031    
 407130000  -59.449542      79.87216       267.95455    
 407140000  -57.569481      74.846593      251.09481    
 407150000  -36.462692      82.471418      276.67452    
 407160000  -42.901951      82.847499      277.93619    
 407170000  -50.932406      95.993525      322.03838    
 407180000  -54.730678      85.064758      285.37464    
 407190000  -55.958079      85.642797      287.31384    
 407200000  -53.376458      90.460902      303.47758    
 407210000  -51.798887      91.073781      305.53366    
 407220000  -60.866405      84.837088      284.61085    
 407230000  -46.035018      90.348034      303.09893    
 407240000  -50.733458      77.984969      261.62341    
 407250000  -66.742357      99.993377      335.45706    
 407260000  -42.401976      89.092784      298.88783    
 407270000  -34.077713      95.160378      319.24335    
 407280000  -37.305473      88.056096      295.40995    
 407290000  -31.000448      99.057531      332.31749    
 407300000  -37.278316      80.451385      269.89773    
 407310000  -34.372154      96.677138      324.33176    
 407320000  -37.142261      84.186855      282.42945    
 407330000  -28.071798      77.942839      261.48207    
 407340000  -34.404306      90.704439      304.2946     
 407350000  -34.757253      80.633915      270.51008    
 407360000  -57.417089      87.050534      292.0365     
 407370000  -39.275961      95.209508      319.40817    
 407380000  -41.336655      84.43154       283.25032    
 407390000  -48.736526      101.77414      341.43116    
 407400000  -40.99402       91.722836      307.71111    
 407410000  -42.725998      101.0231       338.91156    
 407420000  -45.821265      70.14931       235.3364     
 407430000  -48.178164      89.071066      298.81497    
 407440000  -40.053273      83.984217      281.74964    
 407450000  -33.100975      82.710978      277.47819    
 407460000  -32.749652      80.703535      270.74364    
 407470000  -38.955811      93.848688      314.8429     
 407480000  -43.787262      82.092876      275.40459    
 407490000  -35.708625      86.317687      289.57795    
 407500000  -51.944716      92.900132      311.66069    
 407510000  -43.680581      98.253437      329.61992    
 407520000  -33.998429      94.168553      315.91598    
 407530000  -27.423898      77.528212      260.09108    
 407540000  -52.923899      88.42876       296.66017    
 407550000  -36.498618      98.571841      330.6881     
 407560000  -30.736758      83.055399      278.63365    
 407570000  -32.504431      84.1531        282.31621    
 407580000  -38.978388      98.721477      331.1901     
 407590000  -37.106443      102.46702      343.75563    
 407600000  -35.588471      94.815113      318.08506    
 407610000  -40.823314      97.678187      327.69008    
 407620000  -42.334056      95.058768      318.90247    
 407630000  -38.518849      88.039945      295.35577    
 407640000  -22.52569       99.749215      334.63795    
 407650000  -48.914568      93.807243      314.70386    
 407660000  -39.864507      89.60364       300.60164    
 407670000  -45.678459      107.08813      359.25847    
 407680000  -39.139014      97.275989      326.34078    
 407690000  -36.428271      79.942488      268.19048    
 407700000  -44.181121      86.934754      291.64808    
 407710000  -42.957432      101.08122      339.10656    
 407720000  -50.182195      92.583883      310.59974    
 407730000  -36.585009      88.921796      298.3142     
 407740000  -38.587908      98.848833      331.61735    
 407750000  -30.617589      85.543114      286.97942    
 407760000  -38.082349      96.735218      324.52661    
 407770000  -48.008148      100.80594      338.18304    
 407780000  -39.573026      96.388628      323.36387    
 407790000  -34.360577      86.68923       290.8244     
 407800000  -30.526193      75.952496      254.80488    
 407810000  -25.718726      74.947629      251.43376    
 407820000  -46.174599      86.393986      289.83392    
 407830000  -24.524942      88.337634      296.35446    
 407840000  -14.340546      97.278964      326.35076    
 407850000  -26.167554      101.8684       341.74736    
 407860000  -38.862779      91.960109      308.50711    
 407870000  -56.727021      95.560767      320.58657    
 407880000  -33.388919      85.176687      285.75013    
 407890000  -35.14716       91.877343      308.22945    
 407900000  -52.073529      95.631573      320.82411    
 407910000  -42.013366      89.075592      298.83015    
 407920000  -33.184749      98.083781      329.05076    
 407930000  -33.092125      91.527735      307.05658    
 407940000  -25.150128      82.994146      278.42816    
 407950000  -36.938219      101.81462      341.56697    
 407960000  -46.930163      90.032424      302.04013    
 407970000  -44.610595      102.29536      343.17975    
 407980000  -28.587292      88.401929      296.57015    
 407990000  -26.135586      93.207537      312.69197    
 408000000  -25.556377      92.032152      308.7488     
Loop time of 423.732 on 1 procs for 4000000 steps with 101 atoms

Performance: 8156.098 ns/day, 0.003 hours/ns, 9439.928 timesteps/s, 953.433 katom-step/s
99.2% CPU use with 1 MPI tasks x 1 OpenMP threads

MPI task timing breakdown:
Section |  min time  |  avg time  |  max time  |%varavg| %total
---------------------------------------------------------------
Pair    | 391.21     | 391.21     | 391.21     |   0.0 | 92.32
Bond    | 19.942     | 19.942     | 19.942     |   0.0 |  4.71
Neigh   | 1.691      | 1.691      | 1.691      |   0.0 |  0.40
Comm    | 1.7189     | 1.7189     | 1.7189     |   0.0 |  0.41
Output  | 0.1406     | 0.1406     | 0.1406     |   0.0 |  0.03
Modify  | 8.3075     | 8.3075     | 8.3075     |   0.0 |  1.96
Other   |            | 0.7257     |            |       |  0.17

Nlocal:            101 ave         101 max         101 min
Histogram: 1 0 0 0 0 0 0 0 0 0
Nghost:             15 ave          15 max          15 min
Histogram: 1 0 0 0 0 0 0 0 0 0
Neighs:           1279 ave        1279 max        1279 min
Histogram: 1 0 0 0 0 0 0 0 0 0

Total # of neighbors = 1279
Ave neighs/atom = 12.663366
Ave special neighs/atom = 5.8811881
Neighbor list builds = 8627
Dangerous builds = 0

write_data outputs_wk4/${tag}_final.data
write_data outputs_wk4/config_2_6CK4_A.dat_final.data
System init for write_data ...
Generated 0 of 6 mixed pair_coeff terms from geometric mixing rule
Total wall time: 5:17:56
