LAMMPS data file via write_data, version 29 Aug 2024, timestep = 408000000, units = real

47 atoms
4 atom types
46 bonds
1 bond types
45 angles
1 angle types

-500.6 500.6 xlo xhi
-500.6 500.6 ylo yhi
-500.6 500.6 zlo zhi

Masses

1 329.2
2 305.2
3 345.2
4 306.2

Bond Coeffs # harmonic

1 7.5 5.9

Angle Coeffs # harmonic

1 5 150

Atoms # full

47 1 1 0 468.34845789382 494.32647931503834 193.10026798788684 1 0 -1
46 1 2 0 468.2134972566392 489.6452907580315 196.93414704578703 1 0 -1
3 1 3 0 463.4502729924171 -499.7658946655391 201.70267709982755 1 1 -1
2 1 3 0 468.49767417551203 -499.3607041996153 203.9237809180136 1 1 -1
1 1 3 0 471.720484324983 -497.4169604920504 208.4251276205082 1 1 -1
22 1 4 0 418.3813749324979 443.5557662523466 213.43808356445925 1 0 -1
23 1 4 0 418.13597863814255 449.030796754216 215.20666057515436 1 0 -1
35 1 1 0 449.27120396769726 476.0354597372967 204.48961859281002 1 0 -1
36 1 1 0 448.388309414235 481.2025243228754 203.7006017775244 1 0 -1
34 1 2 0 447.64186691725894 471.46446590513875 207.7382476669935 1 0 -1
33 1 1 0 448.3942464830263 468.30916341526876 212.51339502829796 1 0 -1
12 1 2 0 439.15777331270704 479.814263998583 217.5131806389384 1 0 -1
8 1 4 0 459.9950985248949 479.3855104943879 212.74554712470234 1 0 -1
7 1 4 0 462.61175015908475 481.51654931485484 208.07742300878436 1 0 -1
37 1 1 0 447.65285921452175 486.71413549101385 206.2260601242562 1 0 -1
6 1 3 0 461.43073708619926 485.7679115478715 204.25393181098474 1 0 -1
5 1 4 0 460.14143592728175 490.9993609402591 202.75265247480837 1 0 -1
4 1 2 0 460.9638653610984 496.2463665624755 200.36631337871762 1 0 -1
38 1 1 0 450.46942855815155 490.92200362389946 208.98558375656188 1 0 -1
39 1 1 0 454.1459592591894 491.2214519646066 213.65275205941967 1 0 -1
44 1 1 0 473.3088583045865 487.3763353723829 206.8772489390356 1 0 -1
45 1 3 0 471.477536785308 487.3968903673708 201.2409106452777 1 0 -1
43 1 2 0 472.4753767058751 485.43525767809956 212.57869299698098 1 0 -1
20 1 2 0 425.6447397532365 440.14733408142297 220.29679137115832 1 0 -1
21 1 4 0 420.9338028465641 439.514908028622 216.57075879308232 1 0 -1
18 1 3 0 433.954219993963 448.13188262057713 220.90375335893089 1 0 -1
19 1 1 0 429.1124483847791 444.88909628505 221.21933837606275 1 0 -1
24 1 2 0 421.0702120523551 452.27279523293754 219.75089801664203 1 0 -1
25 1 1 0 423.58650921992364 455.5034981787687 224.04071131004275 1 0 -1
26 1 3 0 428.1085944328303 455.90161095821975 227.7000385989061 1 0 -1
27 1 2 0 433.0139042766753 458.22456865107677 230.02417338637576 1 0 -1
17 1 4 0 436.11391465554607 453.29030341301296 219.226065873128 1 0 -1
15 1 3 0 438.87727858553507 464.4273729939244 218.78829522772185 1 0 -1
16 1 2 0 438.9822819489765 458.7442526852829 219.7153391868511 1 0 -1
30 1 2 0 446.4068341605945 463.21283057501086 227.28611810088367 1 0 -1
29 1 2 0 443.7937177520481 459.68125405000274 230.72968994904238 1 0 -1
28 1 2 0 438.4650787772888 457.37703299297664 230.6371032370198 1 0 -1
13 1 4 0 436.66791850533684 474.65446512949876 216.71453909748266 1 0 -1
14 1 2 0 436.0144340685262 469.5791612011826 219.21432533642306 1 0 -1
31 1 1 0 450.5279307387593 464.51683922305205 222.9543484057189 1 0 -1
32 1 1 0 448.5663754136905 467.60093058842193 218.45358604632037 1 0 -1
11 1 4 0 444.4178160797307 481.4290398043535 214.9817903713088 1 0 -1
10 1 4 0 449.67933657875847 481.51512602401914 217.54056811983295 1 0 -1
9 1 4 0 455.00938316711347 479.7362662079669 215.80225873819236 1 0 -1
40 1 1 0 459.04507036574086 493.0963216974682 217.2917334330411 1 0 -1
41 1 3 0 463.7551754773265 489.74796258969275 219.01127398040558 1 0 -1
42 1 4 0 468.4363700083319 487.0559328789671 216.79441928433258 1 0 -1

Velocities

47 0.0020403708709737477 0.0004859954885203979 -0.0004070496059095833
46 -0.0005466324690947015 -0.00015521055563066022 -0.0013915145477687593
3 -0.0005205847248760297 -0.0005212205102440754 -0.0002726819908356366
2 -0.0007459333803396229 0.00033056718509181637 0.0003362705529599231
1 0.0012918360716606282 -0.0010820958232564274 -0.00014917060384310918
22 0.0020444002793044013 0.0005006918457261648 0.0011313259955131104
23 -0.000558155746719089 -0.001049753307830198 0.0005870668668910131
35 -0.0008659155783896441 0.002423842267205162 0.0014317371158323584
36 0.0013932276177275225 0.0018207101358955647 0.0007342735214484272
34 -0.0006554581471974566 0.0014202850086880382 0.0002810883104878857
33 0.0007860061721283853 -0.00040943323777048614 -0.0018753129847681599
12 -0.00018605145475586565 -0.0009257815112123452 5.1621963540504924e-05
8 0.0010645640864739387 0.00042318922596391346 -0.003133635015268688
7 0.0016227754394267824 2.099474784249106e-05 0.00024189067078780164
37 0.0009447318374384415 0.0019636167148161013 0.000949107829024444
6 -0.0005039112460845194 -0.001879721106150017 -0.0008398095047495318
5 -7.053954849513051e-05 -0.0016837004059764129 -0.0009447944248543847
4 0.000350923445785824 -0.0005793891126263488 7.585804930631155e-05
38 -0.000535643053196963 -0.00022618960389326863 -0.0014516287801926008
39 -0.0015240591650746507 0.0006078371346486075 -0.0006367466356126571
44 -0.0006499207482315862 -5.792786946429702e-05 -0.0006793548016690214
45 2.051394512970845e-05 0.0006813727109975049 0.0008942613787151462
43 -0.00029215529409413397 0.00032665176021573803 0.00102465854274423
20 -0.0004303053833619498 -0.001027073357583164 -0.000840365413672775
21 0.0010681890504641834 -1.1750625961830685e-05 0.0007911213422555722
18 -0.00016401680036545169 -0.0005222639308832476 -0.0006400423108382471
19 0.0012751979240160642 0.0009538106295901339 -0.0005375602108282802
24 -0.0011894379902025617 -0.0004973371155308315 0.0004134659578730255
25 0.00012587279571208036 9.020138029919204e-05 1.0872325501602279e-05
26 0.00022570748392383225 -0.0002666068032298342 -0.0006013222063036656
27 -0.0008917521516590706 0.00016052178024376766 -8.618441125727764e-05
17 -0.00044509472979593114 -0.0010187338841143275 0.0012054328586891111
15 0.0005015314699423458 -0.00030754638974514177 0.0008226207196850788
16 0.00022620918446647392 0.0005424814185478862 0.0007677486700662093
30 -0.001478473846930562 0.0002510404762149816 -0.00016380903558404168
29 -0.00035873531660903136 -0.000520255291504726 -0.0007726502285081168
28 -0.0012345829432607058 0.00040449570277962166 -0.0003887185361440291
13 0.001429365101137679 -0.00025017508989065026 -0.001746810733589457
14 0.0002629375538361059 -0.0012717140220042515 0.0002452635184186565
31 0.0009797579884428106 0.00010379043242086582 0.0008056411541948465
32 -0.0007415543013926724 -0.0009405471899375915 0.0004113088149212886
11 -0.00018185672126099658 0.0013949878822738882 -0.0006760893691320302
10 0.00022424345012654726 -1.1776560565667754e-05 0.0005621941376333387
9 -0.0002307100068701611 -0.00081534105290603 -0.00024318276815696858
40 0.00028008026437897454 0.0009911113844579445 -0.0013048911253752537
41 -5.978502821970883e-05 0.0004396825752496206 -0.0007388148691717628
42 -0.0005812865772199069 -0.00014884481500944153 -0.00039344418757919156

Bonds

1 1 46 47
2 1 3 4
3 1 2 3
4 1 1 2
5 1 22 23
6 1 23 24
7 1 35 36
8 1 36 37
9 1 34 35
10 1 33 34
11 1 12 13
12 1 8 9
13 1 7 8
14 1 37 38
15 1 6 7
16 1 5 6
17 1 4 5
18 1 38 39
19 1 39 40
20 1 44 45
21 1 45 46
22 1 43 44
23 1 20 21
24 1 21 22
25 1 18 19
26 1 19 20
27 1 24 25
28 1 25 26
29 1 26 27
30 1 27 28
31 1 17 18
32 1 15 16
33 1 16 17
34 1 30 31
35 1 29 30
36 1 28 29
37 1 13 14
38 1 14 15
39 1 31 32
40 1 32 33
41 1 11 12
42 1 10 11
43 1 9 10
44 1 40 41
45 1 41 42
46 1 42 43

Angles

1 1 45 46 47
2 1 2 3 4
3 1 1 2 3
4 1 21 22 23
5 1 22 23 24
6 1 34 35 36
7 1 35 36 37
8 1 33 34 35
9 1 32 33 34
10 1 11 12 13
11 1 7 8 9
12 1 6 7 8
13 1 36 37 38
14 1 5 6 7
15 1 4 5 6
16 1 3 4 5
17 1 37 38 39
18 1 38 39 40
19 1 43 44 45
20 1 44 45 46
21 1 42 43 44
22 1 19 20 21
23 1 20 21 22
24 1 17 18 19
25 1 18 19 20
26 1 23 24 25
27 1 24 25 26
28 1 25 26 27
29 1 26 27 28
30 1 16 17 18
31 1 14 15 16
32 1 15 16 17
33 1 29 30 31
34 1 28 29 30
35 1 27 28 29
36 1 12 13 14
37 1 13 14 15
38 1 30 31 32
39 1 31 32 33
40 1 10 11 12
41 1 9 10 11
42 1 8 9 10
43 1 39 40 41
44 1 40 41 42
45 1 41 42 43
