LAMMPS data file via write_data, version 29 Aug 2024, timestep = 408000000, units = real

42 atoms
4 atom types
40 bonds
1 bond types
38 angles
1 angle types

-500.6 500.6 xlo xhi
-500.6 500.6 ylo yhi
-500.6 500.6 zlo zhi

Masses

1 329.2
2 305.2
3 345.2
4 306.2

Bond Coeffs # harmonic

1 7.5 5.9

Angle Coeffs # harmonic

1 5 150

Atoms # full

1 1 3 0 463.924523474168 -64.42453579402431 271.59978785433566 3 9 -2
4 1 2 0 467.8178794692969 -65.38000474917743 286.2121042088836 3 9 -2
3 1 3 0 469.2756143849352 -63.79010554355313 280.8683824415595 3 9 -2
2 1 3 0 468.3285187002344 -64.43661335259169 275.2950605281139 3 9 -2
5 1 4 0 469.14934419474395 -68.85772532605428 290.6564211327874 3 9 -2
7 1 4 0 474.6305289032753 -78.01050184932302 294.51593010485885 3 9 -2
6 1 3 0 472.55708151088925 -72.82842031669509 292.9806544041536 3 9 -2
8 1 4 0 478.746574925386 -81.33065383222812 297.08537807963165 3 9 -2
9 1 4 0 481.7004032138157 -80.06428360232977 302.29462704566964 3 9 -2
10 1 4 0 481.96528887525704 -81.63267457257275 308.0134359763063 3 9 -2
18 2 4 0 382.39537779093877 273.83601317885535 387.2693275682074 1 -2 -1
16 2 2 0 393.91761693413673 273.53136852530497 386.4797928714554 1 -2 -1
28 2 1 0 355.0556817081661 304.57435880634654 388.9202042736024 1 -2 -1
41 2 3 0 404.57739183227415 270.8448537955976 397.36576479412696 1 -2 -1
22 2 3 0 360.44169355868604 279.3236383243189 390.54886928233924 1 -2 -1
21 2 1 0 366.1591019325212 279.6105913421252 391.122482801667 1 -2 -1
23 2 2 0 355.36159070213057 281.02144327409286 388.06620366637344 1 -2 -1
20 2 2 0 372.0537500763461 278.9577095310211 389.92592508785293 1 -2 -1
19 2 4 0 376.79828833514244 275.9372973787873 387.38933118543804 1 -2 -1
37 2 3 0 384.87802456330303 272.93317834125645 396.9534669259536 1 -2 -1
36 2 1 0 383.75757312470853 278.4611543208282 397.4702235756569 1 -2 -1
35 2 1 0 383.00385793569706 283.98933049397453 396.5454777066599 1 -2 -1
17 2 4 0 388.0110265725694 273.43461236641093 385.8301709798852 1 -2 -1
39 2 2 0 394.67971439213886 267.6361110443522 394.127929793922 1 -2 -1
40 2 1 0 400.0976391803361 269.5001410850188 393.54481981935453 1 -2 -1
38 2 4 0 388.98136819561455 269.39408186915097 394.2795729550986 1 -2 -1
15 2 1 0 397.59830414164446 277.988739465323 388.74186545222534 1 -2 -1
14 2 3 0 400.4462632608631 280.3328839073567 393.5345940050744 1 -2 -1
13 2 4 0 400.7573876895024 282.2315165081127 399.24301221675915 1 -2 -1
42 2 2 0 407.83267809381204 273.3618815826789 402.06933256498263 1 -2 -1
24 2 2 0 351.8221556513043 285.1661810305492 385.68644704612154 1 -2 -1
25 2 2 0 349.93041482866283 290.69815471850086 383.8024027032789 1 -2 -1
27 2 1 0 350.30449681269045 301.1731157293736 387.9410332107772 1 -2 -1
26 2 2 0 348.3721253573233 295.7820555870841 385.9046367311357 1 -2 -1
34 2 1 0 382.01116200052365 287.2260359916642 391.85605865532926 1 -2 -1
33 2 1 0 379.0562261589848 291.6480064365597 389.2336229625201 1 -2 -1
31 2 1 0 369.8403973266117 297.56387692409214 390.7756389932095 1 -2 -1
32 2 1 0 374.4736775343229 295.09334957646297 388.3753324552858 1 -2 -1
29 2 1 0 361.0597751195063 304.0939472960106 388.01351900519666 1 -2 -1
30 2 2 0 365.0510059902469 301.2407045209242 390.48482993738986 1 -2 -1
11 2 3 0 399.5394671181286 279.0225177217928 410.77973845025844 1 -2 -1
12 2 2 0 400.91106153608507 281.63836976695063 405.4323508391148 1 -2 -1

Velocities

1 -0.0010959765869961906 -0.0003409739672040582 0.001109659259241427
4 -0.00020691663209034415 0.0007216019596036773 0.00014630679178996152
3 0.0010802668953234346 0.0008097148960275133 0.0010142390555733097
2 0.0001190947327273946 0.0005229028355297336 -0.00019041021403388083
5 -0.000245927459621174 0.00031988921248102264 0.0006199478534784843
7 0.0008408667932840588 0.0005570753865347941 0.0005629331578975626
6 -0.00031098778438686946 -0.0005241820642412289 -0.0007778256792312711
8 -0.0009393811981387622 -0.001436306531778698 -0.00011669049303854179
9 0.00038289008761721393 0.00010346162735416566 -0.0017422689628830217
10 -0.0005854165672795441 -0.0003593595501203985 -3.629988641847703e-05
18 -0.0005588422826261455 0.0005547272634249939 0.0002582113370942305
16 0.0002270683000729738 -0.0006686370666845907 -0.000403560967442865
28 -0.0003425239314320458 0.00030096916058241954 -4.56477504309565e-05
41 0.0006578710882921963 -0.0002536019258878397 0.0016733430691640038
22 0.0002504677426439141 -0.00018107619120030037 -0.0003949209006059773
21 0.0010012536391041482 -0.0007699492544352732 0.00018406378105851438
23 0.0010816765008892237 -0.0006910715767728642 0.0006772712527663183
20 0.00018526421796370127 -0.0008196722739793398 -0.00023615664292097084
19 0.0005036979506379808 9.453273899749621e-05 -0.0005755443435752327
37 -0.0004183000566377731 0.00247552295460689 0.001211744456119044
36 0.00031345031779821814 0.0002525906997224057 0.0011837530083719874
35 -0.0008837856334999319 9.538711574342189e-05 -0.0023468163499881355
17 0.0018298587557944502 0.0006953576815789282 -0.0004210197681340878
39 0.0006260892099289102 -0.0007937820600210027 0.002355496230483157
40 0.0002119280500787942 0.0009618052603633596 0.0013146074244578384
38 -5.781423741697941e-05 -0.0006817387621932898 0.002786667668821524
15 0.0009807618277520456 0.003001267425815533 -0.0004819601892402511
14 -0.0006440449263475514 -0.0009307623858982492 0.00034767614243186355
13 0.00025508784471517387 0.00011014948749490526 -0.0016344941019494654
42 0.00084106441968919 -0.0002632391537453584 -0.0006709098240583006
24 0.0006087244848463187 0.0030342392727506153 -0.0015739856377457227
25 -0.0011442063873242552 0.0009335431886619979 -0.0016052369769962004
27 -0.0008712532597192379 -0.0011722201515029541 -0.0010988560667908411
26 -0.0002980018441069953 -0.0008527814648181587 -0.00033036175725257395
34 0.00013663621641839857 -0.0015631598733269307 4.5244670862838564e-05
33 0.0002606390746885563 -0.00034319021140349014 0.0007468952535015831
31 0.0005360568909834937 -0.00024402125992045322 0.00018578079853708067
32 0.002595379789204575 0.00019901369088045194 -0.0013284517634547554
29 0.0006946515158006086 -0.0004815350460412216 0.001571859628843616
30 -0.0005087795543867167 0.0004572050049250101 0.0011804145253742954
11 -0.0012204086116633013 -9.124671506914657e-05 5.1014305245784195e-06
12 0.0006623111251537208 0.00026225943987514015 0.00018350038359571537

Bonds

1 1 1 2
2 1 4 5
3 1 3 4
4 1 2 3
5 1 5 6
6 1 7 8
7 1 6 7
8 1 8 9
9 1 9 10
10 1 18 19
11 1 16 17
12 1 28 29
13 1 41 42
14 1 22 23
15 1 21 22
16 1 23 24
17 1 20 21
18 1 19 20
19 1 37 38
20 1 36 37
21 1 35 36
22 1 17 18
23 1 39 40
24 1 40 41
25 1 38 39
26 1 15 16
27 1 14 15
28 1 13 14
29 1 24 25
30 1 25 26
31 1 27 28
32 1 26 27
33 1 34 35
34 1 33 34
35 1 31 32
36 1 32 33
37 1 29 30
38 1 30 31
39 1 11 12
40 1 12 13

Angles

1 1 3 4 5
2 1 2 3 4
3 1 1 2 3
4 1 4 5 6
5 1 6 7 8
6 1 5 6 7
7 1 7 8 9
8 1 8 9 10
9 1 17 18 19
10 1 15 16 17
11 1 27 28 29
12 1 40 41 42
13 1 21 22 23
14 1 20 21 22
15 1 22 23 24
16 1 19 20 21
17 1 18 19 20
18 1 36 37 38
19 1 35 36 37
20 1 34 35 36
21 1 16 17 18
22 1 38 39 40
23 1 39 40 41
24 1 37 38 39
25 1 14 15 16
26 1 13 14 15
27 1 12 13 14
28 1 23 24 25
29 1 24 25 26
30 1 26 27 28
31 1 25 26 27
32 1 33 34 35
33 1 32 33 34
34 1 30 31 32
35 1 31 32 33
36 1 28 29 30
37 1 29 30 31
38 1 11 12 13
