LAMMPS data file via write_data, version 29 Aug 2024, timestep = 10000000, units = real

61 atoms
4 atom types
60 bonds
1 bond types
59 angles
1 angle types

-500.6 500.6 xlo xhi
-500.6 500.6 ylo yhi
-500.6 500.6 zlo zhi

Masses

1 329.2
2 305.2
3 345.2
4 306.2

Bond Coeffs # harmonic

1 7.5 5.9

Angle Coeffs # harmonic

1 5 150

Atoms # full

42 1 1 0 -360.7422423313007 -231.32548795507964 -450.57456756739026 1 0 1
43 1 3 0 -355.02942353182016 -230.7480683647654 -452.4763779157177 1 0 1
44 1 4 0 -349.6111695870703 -228.6889883380491 -452.2912653913813 1 0 1
45 1 4 0 -345.58890660404546 -224.2893647390479 -451.70563109979696 1 0 1
39 1 3 0 -363.3753613345505 -234.66337961031437 -434.12569240786223 1 0 1
41 1 3 0 -362.4225916421985 -233.72539216494974 -445.25458935896074 1 0 1
19 1 2 0 -344.84837910456093 -238.45415025596708 -437.41305554304756 1 0 1
18 1 4 0 -341.0451168508156 -242.2978780309102 -439.38557385635255 1 0 1
17 1 3 0 -336.5584457159994 -243.32764100573422 -443.10416587517705 1 0 1
20 1 3 0 -347.6365250737051 -234.93245625635188 -441.12600911816577 1 0 1
16 1 4 0 -331.18826703766103 -242.88267821670672 -445.5187962941115 1 0 1
15 1 2 0 -326.05079663815775 -241.11376213429878 -447.07270816320437 1 0 1
14 1 2 0 -320.95401212383683 -240.28584299479252 -445.1001555966648 1 0 1
50 1 3 0 -330.0498523727288 -237.64293006404944 -435.0519535926496 1 0 1
13 1 2 0 -318.6314290205803 -235.73605356690413 -442.83510224813364 1 0 1
26 1 1 0 -371.4767284030808 -216.97434755276345 -442.05560924491357 1 0 1
40 1 1 0 -364.00162692430627 -232.4772222569289 -439.77127586739954 1 0 1
24 1 3 0 -361.36586071663896 -220.91696812875512 -441.43238724222107 1 0 1
23 1 4 0 -355.64222011982065 -221.6025832791034 -442.8595890336655 1 0 1
22 1 4 0 -350.93834759629425 -224.24360039579975 -440.8155958162475 1 0 1
25 1 4 0 -367.02941260243244 -220.59430515449216 -442.97559862257845 1 0 1
46 1 2 0 -340.6809503089344 -223.19520475427473 -448.37138079389956 1 0 1
47 1 2 0 -338.2660387714235 -225.04586184457617 -443.39552647443134 1 0 1
21 1 3 0 -348.7152485629051 -229.54765086072192 -439.5886045161092 1 0 1
48 1 2 0 -335.97233455834134 -229.79724452249167 -440.2738163319758 1 0 1
49 1 2 0 -333.5630165352962 -232.86705797535058 -436.0720717956471 1 0 1
11 1 2 0 -323.2224747894383 -225.6600753325904 -438.73799606307495 1 0 1
10 1 3 0 -325.616629343781 -222.27852327611564 -434.7867890457858 1 0 1
12 1 4 0 -320.09204027586924 -230.5411998086904 -440.4518306645991 1 0 1
29 1 4 0 -385.0677807929457 -210.59049277266067 -437.62199248393966 1 0 1
27 1 1 0 -376.21593143377714 -213.36358224168555 -441.8842159242723 1 0 1
28 1 4 0 -381.8075347043835 -214.5356187709959 -440.68020318424055 1 0 1
51 1 2 0 -324.1969633314421 -238.76241658351992 -433.82925357563903 1 0 1
52 1 3 0 -319.9417634290291 -236.17113911151216 -430.55662280861696 1 0 1
36 1 3 0 -368.19191881988667 -225.77264746757297 -423.0377360322338 1 0 1
35 1 4 0 -372.1134812934777 -221.26055081838942 -422.3553413549729 1 0 1
34 1 1 0 -375.9764154168292 -218.12552434855428 -418.74391764778807 1 0 1
38 1 4 0 -361.21727827907614 -231.89832437462306 -429.3553461487346 1 0 1
37 1 4 0 -363.718191555994 -228.6331355482185 -424.78850911457675 1 0 1
9 1 3 0 -327.3043342631985 -221.70132293804843 -429.61281489579454 1 0 1
8 1 3 0 -329.4857629906202 -225.33413082014664 -425.36732712529937 1 0 1
7 1 2 0 -327.9892226782301 -229.8575654803474 -421.7112903900179 1 0 1
58 1 3 0 -325.3751317178114 -217.20111119429444 -417.41239040547214 1 0 1
6 1 2 0 -323.64532095050316 -231.59150437685375 -418.3133424396618 1 0 1
53 1 2 0 -316.7815506837052 -231.14565863880537 -429.59707797310733 1 0 1
54 1 2 0 -316.95255450258634 -225.4319558780443 -428.4562250090384 1 0 1
55 1 1 0 -315.60714244445694 -219.6391433790184 -429.7725187752272 1 0 1
30 1 3 0 -385.1176369241906 -206.89129219528428 -433.1333423712237 1 0 1
31 1 1 0 -383.2200606709289 -205.95047668294092 -427.342337410685 1 0 1
32 1 4 0 -381.407163911224 -209.79844805376985 -422.9261459128279 1 0 1
33 1 1 0 -380.4787204852139 -214.2372482092249 -419.0615049712265 1 0 1
57 1 2 0 -320.71442253588884 -215.74019635058212 -420.6066736063003 1 0 1
56 1 3 0 -317.71399784684405 -215.83336812441456 -425.7803582231457 1 0 1
4 1 1 0 -318.3848941498858 -233.969277574742 -409.36545508486967 1 0 1
5 1 1 0 -321.1161515797249 -235.13179606322072 -414.56946989451586 1 0 1
3 1 1 0 -315.383124102352 -236.01049685080642 -404.488775612837 1 0 1
59 1 3 0 -330.44127427100307 -219.71570988110116 -416.5592884555014 1 0 1
60 1 3 0 -333.1200863987982 -223.45335235959112 -412.81922755853304 1 0 1
61 1 3 0 -332.6939784724487 -226.2473563177152 -407.5414248978735 1 0 1
1 1 1 0 -318.7254491793044 -237.70849124787586 -393.1753030346653 1 0 1
2 1 4 0 -316.2416426350108 -237.18332024116904 -398.41209397659975 1 0 1

Velocities

42 2.5312463837687142e-05 -0.00025276241381276467 0.0005798023543372536
43 -0.0004826707070088709 -0.00014776441809013913 -0.0008416740160025204
44 -0.0006223762085556375 -0.0003551040281988894 0.001967136195525313
45 -0.0003489785014005655 0.0002819460273359636 -0.00026132196963157687
39 -0.0006954501905048043 0.0003631147306010556 6.797081682000386e-05
41 0.0010883785331281812 3.34169546635759e-05 -0.0005535036089178246
19 0.0004545844407957082 0.00029119303977928753 0.0009003941298595039
18 -0.00016679050489449174 0.0014936843075179424 0.0007713355765099242
17 0.0003525231690224616 0.00042257294737309964 9.073825078512098e-05
20 0.0015215565724815518 -0.0011228740372486732 -0.0008207734435970962
16 -0.0004501899349399356 -0.0008777845669893968 -0.0013760739765384961
15 -0.0012799379644435954 0.0007107053271009938 -2.2499287763070834e-05
14 0.0012602796583971586 0.0004234673112952807 0.0005673651491053457
50 0.0004944783955190666 -0.001137660301656095 0.0017851380628555495
13 -0.0019281529362985771 -0.0007474588214022048 0.0003998582620960008
26 -0.00040746517452706275 0.0009790004493610833 0.0011295963702148476
40 -0.0011854386955635905 0.0001117209705444198 -0.0010799052666371465
24 -0.0006174574377228568 0.0015463181861930114 -0.0005580748492463742
23 0.001042893310583232 -0.000164222296908274 -0.0008977512359114862
22 0.00025556658321894345 0.00040609474554604034 -0.0007836137704339861
25 -0.0018607051146966862 -0.000313712251013393 0.00012192761179647686
46 0.00015811496631118414 -0.0006334734476484057 -0.0018629879745467757
47 -0.0010225058177977195 -0.0008224705738527592 0.0005576161444704377
21 0.0006166921031951396 0.0007010571331606581 0.0002660513577614037
48 -0.0002616244483618374 0.0002825691535387568 0.00020084946868280758
49 0.0015454285856138276 0.0004285804192114105 0.00015611116496272857
11 -0.00040794734550999727 0.0007778086920957972 0.0014147159678106055
10 0.0007100231267001773 -0.0005286105264332945 -0.001216359969215185
12 -0.0006129767298226603 -0.0005516342481044343 0.00024431555020265524
29 3.353414261280359e-05 0.0005699356850579697 0.0008962311378758997
27 0.0011625643495259694 0.001182567491679875 0.00043679427977871214
28 0.001377036517373575 -0.0008268765065607134 0.0008398984555183665
51 -0.0002011316248804972 0.0005829409980700702 0.0008666890025834143
52 0.001374064983469102 0.0014890763428431245 0.00018252510170827947
36 0.00031854567326388073 -0.00031889466286041593 0.0007248264688168624
35 -0.0003490252960041116 0.0003577665817884238 0.0006256400203691962
34 0.001785291820029073 -0.0004914180676556532 0.00021069821176728193
38 0.0004973561222944646 -0.0017013387998893305 0.0021800110943321796
37 0.0003313166317385975 -0.0001856944884834587 1.7262928438575063e-05
9 0.0006568935580121931 -0.0008484973975197852 0.0005062159745437473
8 0.00040798997529093383 -0.0005708653449566993 -0.0011302006759993728
7 -0.0008628808123354913 -0.00016969098148079427 0.0008141746590905935
58 0.00034169617724044693 -0.0005622961065104647 0.0010584114893675198
6 -0.0004521192775281692 0.0020532612300123046 0.00044367077212632535
53 -9.764068470289171e-05 0.00022718815152117063 -0.00020035368957481103
54 0.0014362826992325261 0.0016859936540884446 0.0008098535082951831
55 0.0008344892436629776 0.0015749931421976074 -0.0009347599293886201
30 0.0005068222690870733 -0.0016068845217854855 0.0010934832521230366
31 -0.00076682535043133 -0.0010043359568927207 -0.0009586259724986179
32 2.4543572498820742e-05 0.0005771090330755858 -0.0017522595150591296
33 0.00023793873557225804 9.809994954485773e-06 -0.00020336168641100968
57 -0.0006515761641328713 -0.00032958550132593825 -0.00031783755409338935
56 -0.0011007283065905104 0.0005341198803971035 0.0007248318966380858
4 -0.0013314120363033914 0.0008496852655477331 0.00016150751090928696
5 0.0004015357220244452 0.0002519712207614695 -0.0008338946397342633
3 -0.0001266884796254438 6.808478667241508e-05 -0.0011229791703738837
59 9.868460031165117e-05 0.00020700718686516946 0.0005254292905169795
60 0.0007448125024930585 -0.000535660873179497 0.0004852843773203922
61 0.0002253669742500507 -0.0008736470161854361 0.0001130228168918032
1 -0.0001963348241598772 -9.932778287615373e-06 -0.0012001883475060825
2 0.0011913871607459393 -0.0007804543257790758 -0.0011723919759451824

Bonds

1 1 42 43
2 1 43 44
3 1 44 45
4 1 45 46
5 1 39 40
6 1 41 42
7 1 19 20
8 1 18 19
9 1 17 18
10 1 20 21
11 1 16 17
12 1 15 16
13 1 14 15
14 1 50 51
15 1 13 14
16 1 26 27
17 1 40 41
18 1 24 25
19 1 23 24
20 1 22 23
21 1 25 26
22 1 46 47
23 1 47 48
24 1 21 22
25 1 48 49
26 1 49 50
27 1 11 12
28 1 10 11
29 1 12 13
30 1 29 30
31 1 27 28
32 1 28 29
33 1 51 52
34 1 52 53
35 1 36 37
36 1 35 36
37 1 34 35
38 1 38 39
39 1 37 38
40 1 9 10
41 1 8 9
42 1 7 8
43 1 58 59
44 1 6 7
45 1 53 54
46 1 54 55
47 1 55 56
48 1 30 31
49 1 31 32
50 1 32 33
51 1 33 34
52 1 57 58
53 1 56 57
54 1 4 5
55 1 5 6
56 1 3 4
57 1 59 60
58 1 60 61
59 1 1 2
60 1 2 3

Angles

1 1 41 42 43
2 1 42 43 44
3 1 43 44 45
4 1 44 45 46
5 1 38 39 40
6 1 40 41 42
7 1 18 19 20
8 1 17 18 19
9 1 16 17 18
10 1 19 20 21
11 1 15 16 17
12 1 14 15 16
13 1 13 14 15
14 1 49 50 51
15 1 12 13 14
16 1 25 26 27
17 1 39 40 41
18 1 23 24 25
19 1 22 23 24
20 1 21 22 23
21 1 24 25 26
22 1 45 46 47
23 1 46 47 48
24 1 20 21 22
25 1 47 48 49
26 1 48 49 50
27 1 10 11 12
28 1 9 10 11
29 1 11 12 13
30 1 28 29 30
31 1 26 27 28
32 1 27 28 29
33 1 50 51 52
34 1 51 52 53
35 1 35 36 37
36 1 34 35 36
37 1 33 34 35
38 1 37 38 39
39 1 36 37 38
40 1 8 9 10
41 1 7 8 9
42 1 6 7 8
43 1 57 58 59
44 1 5 6 7
45 1 52 53 54
46 1 53 54 55
47 1 54 55 56
48 1 29 30 31
49 1 30 31 32
50 1 31 32 33
51 1 32 33 34
52 1 56 57 58
53 1 55 56 57
54 1 3 4 5
55 1 4 5 6
56 1 2 3 4
57 1 58 59 60
58 1 59 60 61
59 1 1 2 3
