LAMMPS data file via write_data, version 29 Aug 2024, timestep = 8807520, units = real

101 atoms
4 atom types
100 bonds
1 bond types
99 angles
1 angle types

-500.6 500.6 xlo xhi
-500.6 500.6 ylo yhi
-500.6 500.6 zlo zhi

Masses

1 329.2
2 305.2
3 345.2
4 306.2

Bond Coeffs # harmonic

1 7.5 5.9

Angle Coeffs # harmonic

1 5 150

Atoms # full

101 1 4 0 347.5772315662076 -128.0064667740749 220.2567980441109 0 0 0
1 1 4 0 346.03542958152457 -135.0027552589309 231.66042684912617 0 0 0
99 1 1 0 350.5968281771313 -119.18883997900188 225.13324661673693 0 0 0
100 1 2 0 350.878825998385 -122.9816158265409 220.50081575805714 0 0 0
3 1 1 0 354.49159149887043 -127.33547538006158 232.3743922841482 0 0 0
2 1 3 0 350.5734750566841 -131.6838112043182 231.09839564227295 0 0 0
98 1 2 0 347.39047278511117 -117.77375442229905 230.18729985285668 0 0 0
97 1 4 0 343.28590601703814 -119.27127118481032 234.18393653567864 0 0 0
96 1 4 0 343.2387268472944 -122.49632249549364 238.9463992613421 0 0 0
95 1 4 0 344.9039158350199 -123.85124955604842 244.19099071649626 0 0 0
94 1 3 0 346.7566173644487 -123.1514106801012 249.3982134234127 0 0 0
4 1 1 0 356.1761361412268 -122.58134298328584 235.27486821122108 0 0 0
5 1 1 0 355.4115870169578 -116.88620372848354 235.50200982907646 0 0 0
8 1 3 0 347.0841725128428 -109.87959788382216 249.29054553133344 0 0 0
7 1 4 0 349.3361233280152 -111.2219056421039 243.55335040889526 0 0 0
6 1 3 0 353.186852992187 -113.30516633868667 239.9503535913663 0 0 0
62 1 2 0 324.5838492952206 -131.99620344621306 264.92426850548685 0 0 0
61 1 2 0 327.28747247441214 -136.40802421749584 267.04193662222707 0 0 0
93 1 3 0 350.4400357494894 -120.75969080555895 253.73064304839872 0 0 0
92 1 1 0 354.1039119295286 -116.1438542063647 255.22780256708143 0 0 0
9 1 4 0 346.19487883731045 -108.58443885749072 254.87884657325574 0 0 0
10 1 1 0 345.7860274171426 -109.96417411954783 260.86605103904606 0 0 0
11 1 2 0 348.66429209845774 -110.50279388316922 265.71229544756847 0 0 0
91 1 4 0 357.6567247697022 -111.86551807086586 258.42577238001303 0 0 0
90 1 1 0 357.10702635472165 -106.07655862552056 260.3927088385073 0 0 0
89 1 3 0 358.72709301597774 -101.67986956500128 263.73364086154277 0 0 0
86 1 3 0 347.99874876617076 -96.85697234477814 265.4310282607933 0 0 0
88 1 3 0 357.88645118347273 -96.2489207644764 266.34754580870907 0 0 0
87 1 1 0 352.9276962510678 -93.54855560235418 265.5914932550051 0 0 0
43 1 2 0 320.55747342434074 -152.01227136260334 279.51250783997415 0 0 0
40 1 3 0 318.487667656098 -138.29140333983315 270.9597624505466 0 0 0
39 1 3 0 316.5407094268867 -134.8323743219324 275.31091207012963 0 0 0
41 1 1 0 321.7228909289987 -143.55195092591947 271.78441204869796 0 0 0
59 1 4 0 334.7441108835397 -138.90875903041643 274.83656080608364 0 0 0
42 1 2 0 322.99417492946225 -148.40222940150744 275.2099497331962 0 0 0
58 1 1 0 334.90760544353606 -139.8764320495042 280.63348481384077 0 0 0
64 1 2 0 319.0877326508484 -124.64077413857461 271.9956696175044 0 0 0
38 1 2 0 318.90623634918904 -131.98241073114204 280.0621774016009 0 0 0
37 1 4 0 324.1237121786632 -130.9704159873428 281.54783171792 0 0 0
63 1 1 0 320.63964580326706 -128.74471634206827 268.17369942499954 0 0 0
60 1 1 0 332.09257372342785 -137.70908924628327 269.44173491052555 0 0 0
65 1 1 0 317.9006860245515 -121.39389443334775 276.915773103787 0 0 0
36 1 4 0 328.08401803362483 -127.26132103567963 280.02250498292705 0 0 0
35 1 3 0 328.4448190581857 -121.5793115364238 281.72868910776197 0 0 0
31 1 1 0 322.7379083021204 -100.99762338749836 276.36364645516187 0 0 0
33 1 3 0 328.7356692297636 -109.76849583895897 280.56240212815766 0 0 0
32 1 3 0 326.19462145871205 -104.95135616244019 279.0450551109436 0 0 0
83 1 2 0 341.3964599296572 -104.25653420820198 278.62579223737947 0 0 0
82 1 2 0 343.424187842381 -108.64749866325421 282.3098249368536 0 0 0
12 1 2 0 353.21123948526986 -108.80218021078426 269.1372531650314 0 0 0
13 1 4 0 355.8620554451862 -105.26136028677593 273.0020928713177 0 0 0
29 1 3 0 318.8584872030312 -91.74326170679049 279.20225907506097 0 0 0
30 1 4 0 320.00476630181515 -95.83002665858486 275.1828440009833 0 0 0
85 1 1 0 344.3301507993345 -99.8699498230532 268.98882275444123 0 0 0
84 1 3 0 343.2781309175602 -100.99926529210228 274.4558406960674 0 0 0
16 1 3 0 351.5556310494875 -97.92343890348363 285.3342685814221 0 0 0
14 1 1 0 356.1030062303819 -100.66493327103979 276.64883333233485 0 0 0
15 1 3 0 353.0149054657586 -96.58519906844006 279.72824188888933 0 0 0
48 1 3 0 300.7737237466466 -156.9085338066522 284.84627843144153 0 0 0
49 1 3 0 299.30645897257494 -151.25214933437388 286.1328661259909 0 0 0
47 1 2 0 304.9940604257586 -161.31743102569072 285.0776045601551 0 0 0
46 1 3 0 309.7355333479216 -161.30750638194283 287.96779082773395 0 0 0
45 1 1 0 314.4248505727241 -159.42847140543725 284.578405719056 0 0 0
44 1 3 0 316.2177992442378 -154.14949932325655 282.3898870518159 0 0 0
50 1 4 0 300.3358014308982 -145.96874502849144 289.15827238358315 0 0 0
51 1 1 0 302.41745719056223 -140.33008422160248 289.2265818804864 0 0 0
52 1 2 0 306.9462105964279 -136.6755521345877 287.9100943604134 0 0 0
53 1 1 0 311.69410486567017 -139.41489807366622 287.63656297058765 0 0 0
54 1 3 0 315.47391677954323 -143.53412949930876 289.18722271035807 0 0 0
55 1 3 0 321.2469814346319 -145.05713180346814 288.6567777431443 0 0 0
56 1 4 0 325.121884728499 -143.2214240875921 284.42203446122073 0 0 0
57 1 1 0 330.91107510457067 -143.62820395764197 282.43278318634515 0 0 0
66 1 2 0 318.5119482627953 -118.77321164513339 282.2303146172059 0 0 0
67 1 2 0 319.7794103317998 -114.54481728420761 286.07638350128923 0 0 0
68 1 4 0 318.9813304885465 -108.8771961026473 287.92273168908355 0 0 0
34 1 4 0 329.7641031329164 -115.64586752278535 280.75425572075574 0 0 0
69 1 4 0 321.50980882811797 -103.45736045185623 290.1115167525587 0 0 0
81 1 2 0 347.0843798587507 -111.23357323898917 286.53431322242375 0 0 0
80 1 3 0 350.81425732837573 -111.95720223274536 291.0505511061553 0 0 0
20 1 2 0 338.11926612779325 -102.43306451011192 301.84929746308507 0 0 0
19 1 4 0 341.86136010861946 -102.72229489622009 297.142761196636 0 0 0
79 1 1 0 352.94587441148263 -110.54115000271925 296.1789680889586 0 0 0
78 1 1 0 355.45263776467004 -105.3862383900075 297.76078463440024 0 0 0
70 1 1 0 326.2430624648281 -100.43531158188775 289.5096011204791 0 0 0
71 1 3 0 330.08202857630124 -97.15871723951325 292.0762027974866 0 0 0
72 1 3 0 333.564040881529 -92.82824563305077 293.21805686265225 0 0 0
28 1 4 0 317.5684594316736 -90.7397012091495 285.0952326745647 0 0 0
27 1 1 0 319.24024569052284 -87.6281874665822 290.0061807763588 0 0 0
26 1 4 0 323.03803694133416 -85.3981031235649 293.98520849857016 0 0 0
25 1 2 0 325.5500233214517 -86.01043316232494 298.87626012884147 0 0 0
17 1 3 0 347.0650334400245 -97.71625325130643 289.15810483298225 0 0 0
18 1 4 0 343.34469160250035 -101.94670610900961 291.8630823104461 0 0 0
74 1 1 0 341.2153231643571 -89.4726253433323 300.3246403383923 0 0 0
75 1 2 0 346.1260460534557 -92.33992007018067 302.0025381611187 0 0 0
73 1 3 0 336.27982388539715 -89.79977201151583 297.0747560610162 0 0 0
76 1 1 0 351.1587841561977 -95.91808827646538 301.8975041790274 0 0 0
77 1 1 0 354.1333456303971 -100.22333049242833 298.9646526679864 0 0 0
23 1 3 0 327.39551528824035 -91.87559432590352 309.0936579234041 0 0 0
24 1 2 0 325.63561055285265 -89.47569525559558 303.99276927305874 0 0 0
21 1 2 0 335.11368854818585 -98.8171612980703 304.9349735130059 0 0 0
22 1 1 0 330.8576376963994 -96.66240420326379 308.53942599036844 0 0 0

Velocities

101 -0.0002670117017400387 -0.0005643754118688826 0.0019368650975522337
1 -0.0003919919717621157 -0.00038468430093112083 0.0016439662737525063
99 9.79923327571559e-05 -0.0005586817411606078 -0.0007526190888551973
100 0.00020985732427919663 0.0001176997425987704 -0.0007593623922798201
3 -0.00022257936426932172 -7.958598922047095e-05 0.0005935508085473175
2 -0.00020803025943419694 0.0001990488245691454 -0.0004810768853555633
98 0.0006034635580006584 -0.0013390058985177139 -0.0002221251192892671
97 0.00033120706046020133 -0.0011769085155115312 -0.0004190770927995637
96 -0.0004926088796886587 0.000566458969175828 0.0006868817010719318
95 -0.0008848136122408392 -0.00024523246013618486 -0.0002990026510467876
94 0.00019602280174710348 0.0003464253527008127 -0.0005135854074032448
4 0.00025143601241640114 -5.167654480327014e-05 -0.0006237345963610005
5 -0.0008524899703150257 -0.0005773864157572106 -0.0014938933387763224
8 0.00029508294762297077 0.0011257116935074344 -0.0005645722376941545
7 0.00011652965399352124 0.0008316658349356375 0.0019769601020201083
6 -0.00038505234140192576 0.000949568261183821 0.0006620982902252857
62 -0.0015251384104757125 -0.0015418890089408108 0.0005705552657496058
61 0.0006030927178273507 0.0004930705682613496 -0.0018749884630867525
93 -0.0006844929896548158 0.0012403655541428666 0.00018999995140488106
92 -0.0009395354062707668 0.00026714760719370826 -0.0005131560886748977
9 -0.0007169867785498228 0.00023908539888260524 -0.0005521483004591268
10 0.00017351947844452327 -0.0002234839473440672 -0.0015944671361860865
11 0.0010464431061513178 0.00025727935058965227 0.0005581640158759346
91 0.0005718991714249404 -0.00034162710574466243 -0.0020826194565547757
90 -0.0014348018473351195 -3.840605576542528e-07 -0.0007654275348669358
89 -1.4048508830568856e-06 0.000432495282337225 0.00016490273121764893
86 0.0008661985852245807 -1.6705203443139353e-05 -0.0007541861575140427
88 -0.0013111124388420485 0.0014117526983750167 0.0003720799113319631
87 0.0007363917367017499 2.37306987063276e-05 0.000936427051296693
43 -0.0010464917814138202 -0.0009379146692342871 0.00033706212450664697
40 -0.0004059118709146096 0.0013195712114263064 -0.0009160270681147263
39 -0.00019892814442471916 -0.0002115382172066907 0.0001928366464939774
41 -0.0011637668872770102 0.0005053951451796901 0.0011259864436399456
59 0.0009499132574767223 -0.0019456833786862808 -0.00014842193882705213
42 0.0016779834074434987 0.0005218935765234521 -0.0012785214819255573
58 -0.0004055705044317542 -0.0003077352221998778 -0.0006990713949854357
64 -0.0001547872920793897 -0.001365970635159177 -0.001139390712323581
38 0.0010818149621583551 0.0008429654646222369 -0.0011407008682171652
37 -0.00035872117910705476 0.00019019820487281176 0.0007526486060721636
63 -0.0007230521399323868 -0.000993841343351377 9.316268998887616e-05
60 0.00020445590236114016 -0.0012893032424472937 -0.001028822566686737
65 -0.001550241855341265 0.00045154794900105645 0.000719976279127656
36 -0.0010491499609019347 0.0017232693975738184 -0.0021624930894833484
35 0.002721803674138676 -4.487639386473401e-05 -0.00017901924028675213
31 0.0011656765995862613 7.605947269051103e-05 0.0006146559081618466
33 -0.0008240260557488746 0.0002953808729623093 -0.0008452964914685315
32 -0.0004471993350216578 -0.0013259495346339438 0.0005119400631863735
83 0.0006482801719467202 -0.0014000707381953404 -0.00010756789709825811
82 -0.001166547284365999 -0.0007897606955263595 3.662163516424301e-05
12 -0.00034899854630280084 4.2717216714221565e-05 4.5600983737517956e-05
13 -0.0010294333551771734 0.0008812972869297827 8.510501184852412e-05
29 0.0006263353400498307 -0.0006036585064292689 -0.00042592746521658383
30 -0.00017436346648609977 -0.00032742622647531107 0.0007500960097908737
85 0.00023520656175069618 -0.00125874255211674 0.0011838575299269842
84 0.0002397585106720932 -0.000249899714510833 0.00027520152857544766
16 0.0006948481453969826 -0.002355592432492719 -0.0002232534548932759
14 -0.00034353346435949517 0.0007602970807021657 0.00010018693992697957
15 0.00027064260871807885 0.00017906053110593203 0.00019610413084512556
48 -0.00014589014838533337 0.0002884717999721005 -0.00031766496691093267
49 0.0007816800997224649 0.0004565827657188103 -0.0008912185656954895
47 6.805868267538445e-05 -0.0016546918368311432 -0.00036793893301323704
46 -0.0004891323842872304 -0.0006225232694916298 0.0003199906585174031
45 -0.00024072711366396202 0.0012782808940438627 -0.0005624799788053587
44 -0.0007582281882645045 0.0007417020939928853 -0.00018324260862535757
50 -6.768948145359999e-05 9.476794228651625e-05 0.0001841361743031842
51 0.000423064062777502 0.00032447751981936414 0.0013285090632017564
52 -8.507229797147344e-05 -1.786648487480667e-05 0.0001929607333347544
53 0.0002950970530335753 2.069903198064845e-05 -0.0007652590731133019
54 0.0008428524468963364 -0.0015548356192627427 7.0063294023431575e-06
55 0.0010544794890682656 -0.0006582434440208094 2.4959816440999615e-05
56 -0.0008890052447186383 7.242040488059914e-05 -0.00021301457803098815
57 -0.0006321340442157507 -0.0011893190121897933 0.0014263412193006146
66 -0.000657007041303968 -0.0005218774355349796 -0.0022815008858220187
67 0.0010338172673279573 -0.00043927903536546603 0.000753532587435324
68 -0.00032923228804409074 0.0008600509216423676 0.0007540935981866873
34 -0.0006900058939271578 0.0001315388459062802 0.0005497681309863747
69 -0.00031806262878422887 0.0008705868983128877 -0.00032785738398835617
81 0.00028702602043378055 -0.0008901181185993045 -6.838116437143547e-05
80 0.00043596546663919665 -0.0010490358937312923 0.0023692855485029224
20 0.000732884143029102 -0.0003730405526041055 -5.812745807193341e-05
19 -0.0012804947899023194 -0.0014483242146398503 -0.0004144797808498664
79 -0.0009502806329046359 0.0020613431536984053 0.00023996543626408223
78 -0.0004161829854979582 0.0009231705294075298 0.0019794309651878467
70 -0.000403550346475743 0.0013319801878181182 0.00028445226161701167
71 -0.00017344658009507672 0.0005529836691946089 0.0015156104695087616
72 0.0003433041856897461 -0.0005314062932159566 0.0005104294827786079
28 0.0001922708887937844 0.00021152398356182728 -0.00021156894222207942
27 -0.0009292285690194481 -0.00042899182414205125 0.0007933824047767986
26 0.0002547646392500207 -0.0004526784184191445 -0.0005792016332952624
25 -0.0005448493287720679 0.0016454520256774072 -0.000280350594357902
17 0.0014449083981827875 -3.433205921718877e-05 0.0017386805433389925
18 -0.0007014624818580663 -6.426997654719675e-05 0.0006155372987431022
74 0.0009105982077777658 1.9055341780333805e-05 0.0008254041260622271
75 0.0003242410192440048 5.601276995708329e-05 0.00032454127359049826
73 -0.00040624823410191494 -0.0006766725224330834 -0.0013651035995027034
76 -0.0005391887967889292 -0.000669149387366816 0.0005373928681157812
77 0.0005271644897735077 0.0011548613181195959 0.0014155059250507657
23 0.00027769494121322616 -0.0016035631955332468 -0.0010423548417615685
24 0.0001328426255678994 -0.0010423418804515435 -0.0008174502844023343
21 -0.0006204000517661711 0.0004104473582606988 0.0010272098937906698
22 -0.0014262164066396795 -0.0010289454708299808 0.0004543295416255119

Bonds

1 1 1 2
2 1 99 100
3 1 100 101
4 1 3 4
5 1 2 3
6 1 98 99
7 1 97 98
8 1 96 97
9 1 95 96
10 1 94 95
11 1 4 5
12 1 5 6
13 1 8 9
14 1 7 8
15 1 6 7
16 1 62 63
17 1 61 62
18 1 93 94
19 1 92 93
20 1 9 10
21 1 10 11
22 1 11 12
23 1 91 92
24 1 90 91
25 1 89 90
26 1 86 87
27 1 88 89
28 1 87 88
29 1 43 44
30 1 40 41
31 1 39 40
32 1 41 42
33 1 59 60
34 1 42 43
35 1 58 59
36 1 64 65
37 1 38 39
38 1 37 38
39 1 63 64
40 1 60 61
41 1 65 66
42 1 36 37
43 1 35 36
44 1 31 32
45 1 33 34
46 1 32 33
47 1 83 84
48 1 82 83
49 1 12 13
50 1 13 14
51 1 29 30
52 1 30 31
53 1 85 86
54 1 84 85
55 1 16 17
56 1 14 15
57 1 15 16
58 1 48 49
59 1 49 50
60 1 47 48
61 1 46 47
62 1 45 46
63 1 44 45
64 1 50 51
65 1 51 52
66 1 52 53
67 1 53 54
68 1 54 55
69 1 55 56
70 1 56 57
71 1 57 58
72 1 66 67
73 1 67 68
74 1 68 69
75 1 34 35
76 1 69 70
77 1 81 82
78 1 80 81
79 1 20 21
80 1 19 20
81 1 79 80
82 1 78 79
83 1 70 71
84 1 71 72
85 1 72 73
86 1 28 29
87 1 27 28
88 1 26 27
89 1 25 26
90 1 17 18
91 1 18 19
92 1 74 75
93 1 75 76
94 1 73 74
95 1 76 77
96 1 77 78
97 1 23 24
98 1 24 25
99 1 21 22
100 1 22 23

Angles

1 1 98 99 100
2 1 99 100 101
3 1 2 3 4
4 1 1 2 3
5 1 97 98 99
6 1 96 97 98
7 1 95 96 97
8 1 94 95 96
9 1 93 94 95
10 1 3 4 5
11 1 4 5 6
12 1 7 8 9
13 1 6 7 8
14 1 5 6 7
15 1 61 62 63
16 1 60 61 62
17 1 92 93 94
18 1 91 92 93
19 1 8 9 10
20 1 9 10 11
21 1 10 11 12
22 1 90 91 92
23 1 89 90 91
24 1 88 89 90
25 1 85 86 87
26 1 87 88 89
27 1 86 87 88
28 1 42 43 44
29 1 39 40 41
30 1 38 39 40
31 1 40 41 42
32 1 58 59 60
33 1 41 42 43
34 1 57 58 59
35 1 63 64 65
36 1 37 38 39
37 1 36 37 38
38 1 62 63 64
39 1 59 60 61
40 1 64 65 66
41 1 35 36 37
42 1 34 35 36
43 1 30 31 32
44 1 32 33 34
45 1 31 32 33
46 1 82 83 84
47 1 81 82 83
48 1 11 12 13
49 1 12 13 14
50 1 28 29 30
51 1 29 30 31
52 1 84 85 86
53 1 83 84 85
54 1 15 16 17
55 1 13 14 15
56 1 14 15 16
57 1 47 48 49
58 1 48 49 50
59 1 46 47 48
60 1 45 46 47
61 1 44 45 46
62 1 43 44 45
63 1 49 50 51
64 1 50 51 52
65 1 51 52 53
66 1 52 53 54
67 1 53 54 55
68 1 54 55 56
69 1 55 56 57
70 1 56 57 58
71 1 65 66 67
72 1 66 67 68
73 1 67 68 69
74 1 33 34 35
75 1 68 69 70
76 1 80 81 82
77 1 79 80 81
78 1 19 20 21
79 1 18 19 20
80 1 78 79 80
81 1 77 78 79
82 1 69 70 71
83 1 70 71 72
84 1 71 72 73
85 1 27 28 29
86 1 26 27 28
87 1 25 26 27
88 1 24 25 26
89 1 16 17 18
90 1 17 18 19
91 1 73 74 75
92 1 74 75 76
93 1 72 73 74
94 1 75 76 77
95 1 76 77 78
96 1 22 23 24
97 1 23 24 25
98 1 20 21 22
99 1 21 22 23
