LAMMPS data file via write_data, version 29 Aug 2024, timestep = 9490920, units = real

95 atoms
4 atom types
94 bonds
1 bond types
93 angles
1 angle types

-500.6 500.6 xlo xhi
-500.6 500.6 ylo yhi
-500.6 500.6 zlo zhi

Masses

1 329.2
2 305.2
3 345.2
4 306.2

Bond Coeffs # harmonic

1 7.5 5.9

Angle Coeffs # harmonic

1 5 150

Atoms # full

38 1 2 0 315.345348561172 -143.28881978618463 242.51177140427507 0 0 0
39 1 1 0 309.2306135782286 -142.1636757669016 243.09650052609055 0 0 0
37 1 1 0 320.572878275487 -141.51584991967954 244.35768470405344 0 0 0
40 1 3 0 303.72512340842655 -141.3340152112946 245.62228635084423 0 0 0
36 1 2 0 322.77989310305776 -140.8047486025956 249.69408026229212 0 0 0
41 1 3 0 299.23950912045296 -139.24512048902275 248.47988482241618 0 0 0
43 1 1 0 296.5807699392423 -139.75746450080294 259.48170134008785 0 0 0
42 1 4 0 296.6247195231919 -138.96341058885616 253.74599325707237 0 0 0
44 1 2 0 296.736414220872 -136.96039364240445 264.6196392077202 0 0 0
29 1 3 0 302.95578220358186 -131.75823387003035 258.94351991733726 0 0 0
30 1 1 0 305.8519023206151 -134.72461548861165 262.9201198401234 0 0 0
31 1 2 0 306.6786498557436 -140.46166671360876 264.93553547788406 0 0 0
35 1 1 0 322.97181353188995 -142.7636065372849 255.31974215904194 0 0 0
34 1 4 0 320.9858215310558 -145.03973835317493 260.3617721994207 0 0 0
33 1 2 0 315.4651127067742 -146.04316630673162 261.89824863303085 0 0 0
32 1 1 0 310.13865234819093 -145.08352384470285 262.40950918208245 0 0 0
25 1 1 0 287.32971337588367 -124.11457447292098 265.3497134669132 0 0 0
27 1 3 0 294.9854880884602 -126.16774198725206 256.634040065776 0 0 0
26 1 3 0 290.45546966461137 -125.2533828228931 260.21708825393335 0 0 0
49 1 3 0 293.38839480868353 -114.48005648198759 265.05394487403396 0 0 0
28 1 1 0 300.2304832992572 -127.84085073665086 255.57600357583178 0 0 0
50 1 2 0 288.02043353318595 -112.75191701065606 267.16439514345643 0 0 0
45 1 2 0 298.06810637598926 -132.4577262272963 268.126837545621 0 0 0
24 1 4 0 287.58544130307655 -124.84752136939039 270.8576910676255 0 0 0
23 1 3 0 289.6784485041051 -122.49772541068793 276.1204985412913 0 0 0
22 1 3 0 292.54435080370575 -118.56675569140064 279.6562108102321 0 0 0
47 1 3 0 301.1071967306978 -122.08226277732658 267.3009948497483 0 0 0
46 1 2 0 300.4021654986427 -127.27348870587907 269.3751006480417 0 0 0
48 1 2 0 298.4101579910215 -116.8207334024578 267.3897561205644 0 0 0
21 1 1 0 292.33419995776404 -113.83293133966755 283.11864764364503 0 0 0
51 1 4 0 283.90293689340865 -112.474241584613 271.78506697385944 0 0 0
52 1 1 0 283.05570538043264 -114.45654337984101 277.49359195100544 0 0 0
53 1 3 0 279.33266973404534 -116.94499119901238 281.65978165728427 0 0 0
55 1 3 0 283.14311306795327 -114.17154675256774 291.0239408409429 0 0 0
56 1 3 0 288.96323765669706 -113.29436633126032 292.3925092153833 0 0 0
54 1 2 0 278.73236496512624 -115.9439855129214 287.50834623872004 0 0 0
16 1 1 0 283.23293653679434 -103.57013915930607 297.73730747690814 0 0 0
20 1 4 0 293.55569042569005 -108.4849120577332 284.16366404313555 0 0 0
19 1 1 0 292.72916635253284 -102.9420427010523 286.3478567864353 0 0 0
18 1 2 0 290.4066218581476 -99.89147521163636 290.7447697560907 0 0 0
17 1 3 0 285.82669027523 -99.01435057317788 294.60274506765893 0 0 0
57 1 3 0 293.1147364711002 -112.21115056005914 295.6198526115148 0 0 0
58 1 2 0 294.7656381444787 -108.29777896529593 299.8793943497962 0 0 0
15 1 2 0 282.7422116345618 -106.495912534309 303.12906886938435 0 0 0
14 1 3 0 283.496109694505 -108.60980561733226 308.5255655049965 0 0 0
12 1 3 0 291.73225706130125 -109.80940990302597 314.6460659445023 0 0 0
13 1 4 0 285.73690640465134 -109.50527488229385 313.85437244885924 0 0 0
11 1 4 0 296.11843154559887 -108.43544623515405 318.1613055226036 0 0 0
59 1 2 0 294.94223789914764 -103.25749812661964 303.19595521743605 0 0 0
60 1 1 0 292.846829736016 -100.17383937754838 307.7167199876362 0 0 0
61 1 2 0 292.0983855061426 -99.7411333997526 313.77374429579635 0 0 0
62 1 2 0 293.84700307854575 -96.5228907551422 318.3533543915262 0 0 0
91 1 4 0 309.0850530477476 -120.25314444192387 317.11901808694427 0 0 0
92 1 3 0 314.2743949427661 -122.18895098526318 318.20935884289065 0 0 0
93 1 1 0 317.5795900335416 -125.15031842663873 321.9140879080891 0 0 0
94 1 2 0 316.47222833032896 -128.62044774806736 326.77372166365717 0 0 0
73 1 4 0 272.47252069275726 -106.84224452236154 326.8413378414026 0 0 0
72 1 3 0 273.83397918819526 -110.48110845336443 330.9778467319397 0 0 0
71 1 1 0 271.9908281991452 -109.13976116646735 336.1308209828096 0 0 0
70 1 2 0 271.2139342308137 -103.98257043301713 339.2005160874144 0 0 0
10 1 1 0 301.88422862630523 -107.1592559952112 319.35110257167605 0 0 0
9 1 3 0 307.32290142796825 -108.14450680172163 317.21850930173383 0 0 0
90 1 3 0 304.8771148502789 -117.53665889845594 320.0814434562856 0 0 0
89 1 3 0 302.2025101133654 -116.4099952967341 325.10863266264846 0 0 0
8 1 2 0 312.5719011313104 -110.78409082915664 318.0153205712583 0 0 0
7 1 2 0 316.755594744781 -110.89107264738183 322.8508667950534 0 0 0
88 1 2 0 302.27488926366027 -112.05166818059259 329.29923555727214 0 0 0
5 1 2 0 314.9607783023329 -117.04007550157895 331.2099667273323 0 0 0
6 1 3 0 317.9837680384929 -114.3809211363248 326.83532718472924 0 0 0
76 1 1 0 276.53656414139766 -90.11693580172603 322.3668579176313 0 0 0
75 1 1 0 273.70319987302696 -95.72617489790632 322.01744030518535 0 0 0
74 1 3 0 272.59477663823446 -101.02546172784201 325.02134618548456 0 0 0
67 1 2 0 279.2257866828353 -93.82193262832352 334.6277034829199 0 0 0
63 1 3 0 297.4771015293866 -95.87381423865885 323.1981366168562 0 0 0
64 1 1 0 295.4426709017175 -97.2978732984961 328.57253878970465 0 0 0
65 1 3 0 290.52391117453806 -96.91410206919237 331.76184811396485 0 0 0
66 1 4 0 284.9741154278874 -94.87930672159126 333.13105855636286 0 0 0
77 1 1 0 277.49415858268384 -84.62710180093252 324.37511383562065 0 0 0
78 1 4 0 280.39901340758655 -80.92711795125838 328.33268604926565 0 0 0
79 1 1 0 283.61323442918285 -81.55476784188158 333.3446039034987 0 0 0
80 1 2 0 287.4599683279054 -84.64314373634939 336.8408990525802 0 0 0
1 1 3 0 297.3828668403685 -126.67960020086099 330.2703802812911 0 0 0
2 1 3 0 301.29430384812775 -124.97918298929507 333.9401848682103 0 0 0
3 1 3 0 307.0149074050229 -123.46320691508461 335.08322749798384 0 0 0
4 1 4 0 312.0567823146763 -121.14961165914949 333.8727416573489 0 0 0
95 1 2 0 317.4120655406484 -131.1715125639655 331.67546205554004 0 0 0
69 1 1 0 269.4092916427064 -99.02166413533695 336.5563898521853 0 0 0
87 1 4 0 305.97231651968224 -109.55555240630474 333.855203044229 0 0 0
86 1 3 0 308.3140896291638 -107.6687599751345 338.86161611911666 0 0 0
68 1 1 0 273.66642845841255 -95.33269910900106 334.7641306158668 0 0 0
82 1 1 0 295.2397251589225 -93.52802204922435 339.4113425863713 0 0 0
81 1 4 0 290.9970978847702 -89.04760660980274 338.4949033690977 0 0 0
83 1 2 0 300.87064467798484 -94.45194748078475 340.57189665322585 0 0 0
85 1 2 0 306.17864279029453 -103.7195658143591 342.686833967503 0 0 0
84 1 2 0 305.29769755355653 -98.19218931943622 342.33950335414266 0 0 0

Velocities

38 0.0002600607248465772 -0.00044348681781215967 -0.001247931334874431
39 0.0009243501740888904 -0.0008695308368989944 -0.0012842411372490938
37 -0.00041956293282170324 0.0007143971747657599 0.0010727051615027738
40 0.00086967414414651 -0.0006609073924868005 0.00029522063247457283
36 0.000646824479813151 -0.0010182120047304314 0.0015937332134801133
41 -0.0006204858749231119 -0.0006004089006410676 0.0016185743049614916
43 9.566598731537782e-05 -0.0007492957884022397 -0.0010292276199807369
42 0.00029115833733452665 0.0007119004784540598 -0.0001452136385455688
44 -0.0009664609054294249 0.0017602921328227334 0.0006245288621709607
29 -0.0006701377324574922 -0.00043169557187966917 0.0005556414949988336
30 -7.759676748445364e-06 0.0007375692185345203 -0.0016739609428286213
31 0.001345623362418077 0.002084814484315608 0.00026327345808631206
35 0.00016557487028217574 0.001752738765759691 0.0006209436903574123
34 -0.0017356246596071073 0.0003298538084002862 -0.0014972040698329986
33 -0.00022045703332394207 -0.000358148000637355 -0.0011095239356845093
32 -0.002337382561355953 0.001360597050950207 -0.00010366843237575832
25 0.00018757177704509478 -0.00011287292996625861 -0.0002718178560572536
27 -0.00015740031446461817 -0.0010104131516597398 -0.001724039844244473
26 0.0005778609148931207 1.8189723143436155e-05 -0.00022222819943991718
49 2.318052203576594e-05 -0.0005248151539149029 -0.00033647875401226894
28 -0.000499818790562768 0.0010446594977400864 0.000409275961444922
50 0.0009696959840132772 0.00026882836381954397 -0.0003798462658028641
45 0.0009285856040915371 -0.0005469233763128079 -0.00048379403937676504
24 0.0016989285109982072 0.00015303885105523958 -0.00135679358650206
23 0.0011400832462421042 -0.0002552331815837157 0.0024589207976941385
22 -0.0006067120770321829 0.0007463432821891075 0.0008239673674262578
47 0.0006135358908566049 -0.0002913259160319398 0.0009233386647173977
46 -0.00025585763651109954 0.001214128920453111 -4.358205949413603e-05
48 0.0018990072223419134 0.00025069079674126864 0.0011060187421078676
21 0.000747122064270052 -0.00039345072442670937 0.0002087809042691431
51 -0.000848741505713511 0.0013016139134740857 0.0003657521804702146
52 -0.0013667035638202675 0.0005282298896220931 -0.001367732828307864
53 0.0004361876722523669 0.0003286085229552388 0.0007677362187303092
55 0.00010440879187798019 -0.0005529829612102476 -0.0008702068268352044
56 0.00025831733895137173 0.0004048302034049775 -0.0006875945551063584
54 0.0007396784061685138 0.0007503176304320679 0.0011934598534461324
16 0.0006795965438248945 0.0008115843034835227 -0.00027613943705849953
20 -0.000180891486690783 0.001590228759669264 0.001159192568286091
19 0.0001768036890769912 -0.0003557707100453749 0.0007952114197333633
18 -0.0017097498550260335 0.001564088177895649 0.0008385191778808696
17 0.001193128528076601 0.0005055112040197655 0.00013069140141712602
57 -0.0011345107219929507 0.0006899614116209847 7.238192663024668e-05
58 0.0012171464663769318 -3.790834981372384e-05 -6.28016090445117e-05
15 -0.0002917824283284128 -1.5687281521418764e-05 0.001049691363473147
14 -0.0005507365513966225 0.0004140707660840346 -0.0004713908032819682
12 -0.0016916846575112346 -0.0007596931325353228 -0.0007951026617163367
13 -0.0009040012870880339 0.0012353365156135673 0.000432091757302061
11 0.00016426590275875913 6.521874490041331e-05 0.0005164994319573219
59 -0.0006779589788940053 -0.0010905207074048606 0.0009573351363052848
60 0.001529774432449744 0.000656461522080249 0.0006368036591293364
61 -0.0009221971370278779 -0.00013713449534029454 -0.0014972484134683165
62 -0.0002752318448686064 -0.001472743262981443 2.620312062961703e-05
91 0.00012959409368788828 0.0010324835376176907 -0.0006928526782770617
92 0.0006226493352640644 -0.0015598803826783459 -0.0007397561238472705
93 -0.0009921319145065454 -0.000698411089449945 0.000810807290755861
94 0.001834150131056426 0.0006576738255644016 0.0011661701868638768
73 0.0012142436915741008 -0.0004660815665904009 0.0009875026798064315
72 -0.0008366086253178694 0.0002722980946549592 0.0017842294718260318
71 -0.000713730305055376 -0.00019334294989875944 -0.000658873607258688
70 -0.0008709347044673139 0.00015021466861753983 8.961854522256036e-05
10 -2.568128758504838e-05 -0.000528021896229702 -0.0014447437585917015
9 -0.0002695274519620933 -2.440643589177938e-05 0.0009494923389460779
90 0.0009835250244414847 -0.00027866434232339795 -6.389245934648953e-05
89 0.001258429056107673 -0.0011414321609846784 -0.0011779651875458135
8 -0.0003218400724884336 0.0005191668446738807 0.0006660620723397193
7 0.000474573695301957 0.0016593219612506612 -0.001480016308184936
88 0.0013503407848673796 -0.0006595058315898061 0.00030602010963118
5 -0.00026915541489090026 5.791831492576247e-05 -0.00039025800965193793
6 0.00044641235896405855 -0.0006759971903158734 -0.00012386139057291612
76 -0.0009664337469584248 -9.216329585595958e-05 0.0014940876533343034
75 -0.000784971559830457 -0.0010743244271449505 0.0006123820774700914
74 0.0003209643378063272 -0.0008395124168654907 0.0008865895069691053
67 0.0004854867360635584 7.05604133976249e-05 -0.0016103825645904456
63 4.484274214279366e-05 0.00099763370957438 -0.0007442537047151674
64 -3.0533407398816235e-05 0.0004477802964301111 -0.00015617441812989456
65 0.0012294392748300302 -0.00018218963244013 0.0022081022512320347
66 -6.593139764550271e-05 -0.00035775522416360415 -6.706176871206927e-05
77 -0.0002836864776520515 -1.758729150028017e-05 6.244131322457506e-05
78 0.00048048957778609177 -0.0008839484551491876 -0.0005247921274102184
79 -0.000809378351903106 -0.0014685465191580473 8.58164884926582e-05
80 0.0006693030430039153 0.00021512632400155893 0.0015930862344608727
1 -0.0002516647469694014 0.0006597058238430818 -0.00029249291388085743
2 0.0004789518858283514 -0.00014882052789043593 1.7537705261407944e-05
3 -0.0003906563866290857 -0.0011085615158689004 -0.0002654792304566895
4 -0.0010017340388577844 -0.0018474211388445872 -0.001508682374430578
95 0.00041647878640042337 -0.00042814367747475676 0.00012430324638037593
69 -0.0008698792736339064 6.985267290172284e-05 0.0002725072357108551
87 -0.0006839036945421981 -0.0015409976332257807 -0.0005479038579183215
86 0.00019983876112485542 -0.0014099107594178083 0.000639299814125274
68 -0.0005107601667766954 0.0005613741153260852 -0.0005562358447578734
82 -0.0007110616469585905 0.0014622812346146558 0.0014321184874289492
81 0.0007251548288675337 -0.00015929783655982662 0.0002659709895410101
83 -0.0003687112980839655 0.00023109151128330354 -0.0005051761144698015
85 -0.0003296565402811745 -0.0008444272211558295 -0.0005900572195568209
84 0.0010264266271368147 -0.0011654301612754666 -0.0002779937538599391

Bonds

1 1 38 39
2 1 39 40
3 1 37 38
4 1 40 41
5 1 36 37
6 1 41 42
7 1 43 44
8 1 42 43
9 1 44 45
10 1 29 30
11 1 30 31
12 1 31 32
13 1 35 36
14 1 34 35
15 1 33 34
16 1 32 33
17 1 25 26
18 1 27 28
19 1 26 27
20 1 49 50
21 1 28 29
22 1 50 51
23 1 45 46
24 1 24 25
25 1 23 24
26 1 22 23
27 1 47 48
28 1 46 47
29 1 48 49
30 1 21 22
31 1 51 52
32 1 52 53
33 1 53 54
34 1 55 56
35 1 56 57
36 1 54 55
37 1 16 17
38 1 20 21
39 1 19 20
40 1 18 19
41 1 17 18
42 1 57 58
43 1 58 59
44 1 15 16
45 1 14 15
46 1 12 13
47 1 13 14
48 1 11 12
49 1 59 60
50 1 60 61
51 1 61 62
52 1 62 63
53 1 91 92
54 1 92 93
55 1 93 94
56 1 94 95
57 1 73 74
58 1 72 73
59 1 71 72
60 1 70 71
61 1 10 11
62 1 9 10
63 1 90 91
64 1 89 90
65 1 8 9
66 1 7 8
67 1 88 89
68 1 5 6
69 1 6 7
70 1 76 77
71 1 75 76
72 1 74 75
73 1 67 68
74 1 63 64
75 1 64 65
76 1 65 66
77 1 66 67
78 1 77 78
79 1 78 79
80 1 79 80
81 1 80 81
82 1 1 2
83 1 2 3
84 1 3 4
85 1 4 5
86 1 69 70
87 1 87 88
88 1 86 87
89 1 68 69
90 1 82 83
91 1 81 82
92 1 83 84
93 1 85 86
94 1 84 85

Angles

1 1 37 38 39
2 1 38 39 40
3 1 36 37 38
4 1 39 40 41
5 1 35 36 37
6 1 40 41 42
7 1 42 43 44
8 1 41 42 43
9 1 43 44 45
10 1 28 29 30
11 1 29 30 31
12 1 30 31 32
13 1 34 35 36
14 1 33 34 35
15 1 32 33 34
16 1 31 32 33
17 1 24 25 26
18 1 26 27 28
19 1 25 26 27
20 1 48 49 50
21 1 27 28 29
22 1 49 50 51
23 1 44 45 46
24 1 23 24 25
25 1 22 23 24
26 1 21 22 23
27 1 46 47 48
28 1 45 46 47
29 1 47 48 49
30 1 20 21 22
31 1 50 51 52
32 1 51 52 53
33 1 52 53 54
34 1 54 55 56
35 1 55 56 57
36 1 53 54 55
37 1 15 16 17
38 1 19 20 21
39 1 18 19 20
40 1 17 18 19
41 1 16 17 18
42 1 56 57 58
43 1 57 58 59
44 1 14 15 16
45 1 13 14 15
46 1 11 12 13
47 1 12 13 14
48 1 10 11 12
49 1 58 59 60
50 1 59 60 61
51 1 60 61 62
52 1 61 62 63
53 1 90 91 92
54 1 91 92 93
55 1 92 93 94
56 1 93 94 95
57 1 72 73 74
58 1 71 72 73
59 1 70 71 72
60 1 69 70 71
61 1 9 10 11
62 1 8 9 10
63 1 89 90 91
64 1 88 89 90
65 1 7 8 9
66 1 6 7 8
67 1 87 88 89
68 1 4 5 6
69 1 5 6 7
70 1 75 76 77
71 1 74 75 76
72 1 73 74 75
73 1 66 67 68
74 1 62 63 64
75 1 63 64 65
76 1 64 65 66
77 1 65 66 67
78 1 76 77 78
79 1 77 78 79
80 1 78 79 80
81 1 79 80 81
82 1 1 2 3
83 1 2 3 4
84 1 3 4 5
85 1 68 69 70
86 1 86 87 88
87 1 85 86 87
88 1 67 68 69
89 1 81 82 83
90 1 80 81 82
91 1 82 83 84
92 1 84 85 86
93 1 83 84 85
