LAMMPS data file via write_data, version 29 Aug 2024, timestep = 10000000, units = real

51 atoms
4 atom types
50 bonds
1 bond types
49 angles
1 angle types

-500.6 500.6 xlo xhi
-500.6 500.6 ylo yhi
-500.6 500.6 zlo zhi

Masses

1 329.2
2 305.2
3 345.2
4 306.2

Bond Coeffs # harmonic

1 7.5 5.9

Angle Coeffs # harmonic

1 5 150

Atoms # full

21 1 4 0 -420.9406403127419 165.5042410663119 -409.14059502878035 1 0 1
34 1 4 0 -402.5642508757676 150.38045383909727 -402.0530864531256 1 0 1
19 1 3 0 -412.21352673543146 161.9459582656095 -404.18428643544524 1 0 1
20 1 3 0 -416.38127845748096 162.06957439945884 -408.0322006297353 1 0 1
33 1 1 0 -408.1613585932485 152.72059022723874 -401.45242792584315 1 0 1
24 1 2 0 -423.1558724922185 180.85619750800288 -408.9600605533351 1 0 1
25 1 1 0 -422.8058857989246 181.79188886023178 -403.02992078494253 1 0 1
23 1 2 0 -425.2635722170937 175.51798559195626 -411.0514379754631 1 0 1
22 1 2 0 -423.7700693540645 169.95539553428665 -411.8371525165464 1 0 1
36 1 1 0 -394.3429082815481 148.83058053831877 -394.92351787087233 1 0 1
35 1 1 0 -397.777117699392 147.52194140991438 -399.6623093524234 1 0 1
31 1 3 0 -418.5724074573105 153.8138197755145 -398.78521312067176 1 0 1
30 1 2 0 -423.2268802368408 156.72789059597858 -397.4588928531382 1 0 1
29 1 2 0 -426.28046991289006 161.49286435026093 -397.998627883345 1 0 1
18 1 2 0 -409.27080245103366 164.16222515315974 -399.6510051936655 1 0 1
32 1 3 0 -412.4285212450912 154.11205109006448 -397.9132326653289 1 0 1
17 1 2 0 -408.9280572026324 162.5713928387061 -394.1304162366663 1 0 1
16 1 3 0 -409.548838498146 161.70948056279263 -388.56965766924236 1 0 1
37 1 1 0 -391.770466171569 153.14182176832438 -391.4531195403503 1 0 1
38 1 1 0 -391.6272967980551 156.394122571012 -386.223693654376 1 0 1
26 1 1 0 -424.44907976390147 178.8262756805367 -398.2938894635035 1 0 1
28 1 2 0 -426.1252581970066 167.20225993590452 -399.64491947433055 1 0 1
27 1 3 0 -424.81310435344096 172.71049494183035 -397.9494568703625 1 0 1
15 1 1 0 -411.545309917824 163.39164736232001 -383.30701142454984 1 0 1
13 1 2 0 -412.67022175198514 156.29324551294994 -373.8104218087935 1 0 1
12 1 3 0 -411.1418598811632 154.66698792959707 -368.0699848306346 1 0 1
14 1 2 0 -413.37116716239507 160.6764026168343 -378.4594592513531 1 0 1
43 1 1 0 -409.6901889181183 166.85778010468115 -371.05219674301753 1 0 1
41 1 3 0 -400.84902776030924 166.69421815055244 -378.8902313089725 1 0 1
39 1 3 0 -394.44561535537343 158.36197805361195 -381.5415681995488 1 0 1
40 1 4 0 -396.08711307807704 163.4875924166024 -379.86511761495365 1 0 1
42 1 3 0 -405.45550663754506 167.80192708700054 -375.3905712644592 1 0 1
3 1 3 0 -405.67436624630994 180.36439660537036 -369.14213216425867 1 0 1
2 1 2 0 -408.62877488578414 180.8917279047181 -374.32787013054445 1 0 1
5 1 2 0 -397.1524853533121 173.41296699478426 -367.1737681804814 1 0 1
1 1 2 0 -409.00253776700004 183.76188456923927 -379.6936765386299 1 0 1
11 1 4 0 -407.6778477601597 156.1139514345133 -362.9553611303601 1 0 1
44 1 3 0 -409.277218896705 166.47381677326834 -365.3008107353411 1 0 1
10 1 2 0 -403.4619777512849 155.27429780638352 -359.1478996979859 1 0 1
45 1 3 0 -406.6443271377663 166.47984548036507 -360.0232245208042 1 0 1
8 1 2 0 -394.0199375985578 160.17300977616924 -361.6923579921954 1 0 1
7 1 1 0 -394.5452323429618 162.6348968681313 -366.9991188140244 1 0 1
9 1 1 0 -398.2437023645236 157.4822860266188 -358.54245559290416 1 0 1
4 1 2 0 -401.19280657765995 177.3446428601606 -366.6565464625385 1 0 1
46 1 3 0 -402.8218559497817 168.6675924825277 -355.8629381946989 1 0 1
6 1 1 0 -397.0840967152369 167.73174908961337 -366.6202175012718 1 0 1
47 1 3 0 -398.311054358371 172.06283433164373 -356.7046349224205 1 0 1
48 1 3 0 -392.3641413073614 172.64899348577836 -355.97833264218656 1 0 1
49 1 2 0 -387.65089175291615 169.46651284679467 -353.20757838441165 1 0 1
50 1 3 0 -384.9769444476044 170.54368531585868 -348.0937318731963 1 0 1
51 1 3 0 -383.3370781686731 174.95428483608993 -344.58767069234216 1 0 1

Velocities

21 -0.0004292109133386455 0.0022016758977971914 -0.00028926640216733285
34 0.0006246173700249292 0.00036233504967320113 0.0007338429090455932
19 0.0010809196254202439 -0.0002217014773755134 -0.00016250333826821833
20 -0.0003426650301529693 8.768813551022104e-05 0.0002472723017700338
33 -0.000973932033288582 -8.530314946206061e-05 0.0002498337872760667
24 0.0016851165240225868 -0.0011107079614348003 -0.00012003103512830359
25 0.0009612350012264261 -0.00019073336571163101 -0.0003492486094657681
23 -0.00027239052295527377 -0.0004680117975037594 0.0015905448903216737
22 -0.00029959499062645725 -0.0007552707527728473 -0.0015986059914632927
36 0.0007763054172430713 0.0016968671641850468 -0.0003370778311334813
35 -0.0010461717835035815 -0.0010644993614741115 -0.00015007335617149637
31 0.00015517136116348362 -1.6708157992749668e-05 -0.0005106759087777185
30 -4.279382817097918e-05 -0.0008663673277231702 -0.0001507947567384904
29 -0.0005651010056978343 0.0011136768772083308 0.0004049490461188273
18 0.0004844696139495171 0.0014273123942322434 0.0017318163664547827
32 0.0005124318867364202 -1.8180218927594005e-05 -0.0002619291185153904
17 -0.0005748137803929798 -0.0016374418310960166 -0.0009789383432914104
16 -0.0008706618003995682 -0.0012864439484417758 -0.000188622361826752
37 0.0011375975665524544 0.00039021839026193844 0.00026132767495140087
38 0.00010490750161105065 -0.0008973490793807949 -0.0005393838989455982
26 -0.00012988293891804913 -0.0008025089202296193 0.0009473499757978996
28 -0.0006176751419891335 -0.0008279303021168326 0.00046270735052529697
27 0.00033151522244342376 -0.001432641728244328 -8.028532891049604e-05
15 -0.0004392114612694478 -0.0005830997910579568 0.0006088418132353998
13 -0.0013184387916622296 -9.320704596809616e-06 0.00010388661687555356
12 0.000865923562327064 -0.001134119393234397 0.0008935517311666847
14 -0.0002940354924345111 -0.00022452531590850283 -0.001196884889388734
43 -0.0006619966254194119 -0.0009042881185891814 0.00028443757486127855
41 0.0005220583052605883 -0.0016607658683362161 0.00023897965383500632
39 6.465524278628112e-05 0.001995260562627419 6.004451534027925e-05
40 -0.000812749323868374 0.0003628211995203129 -0.000478994973537763
42 -0.0016143045245859036 -0.0004901232991287483 0.00017071751558167742
3 0.0007560639524927104 -0.0004975857574716284 0.00055278723626984
2 0.0010507753733532009 -6.42004541231357e-05 0.001264222163520494
5 -0.00048708615576936124 0.0009716002841419385 -0.00037548836328952405
1 0.00034720896774814226 -0.0011288196750268336 -0.0001194617811118811
11 0.0013475181510208317 -0.0009462074812718432 0.0012721105278765488
44 -7.285065645104184e-05 0.0007536703915552873 0.0005795885430868823
10 0.0006347732324404685 -0.00044067783651926363 0.0010449773239514534
45 -0.0008106235776587525 0.0013255132874545475 0.00020004451125241535
8 0.0007582990531376677 -2.46921919092015e-05 0.0003562429880246657
7 -0.0008445628916404684 -0.00022798938399515046 0.001949358395774486
9 -0.000731091052362065 0.0025872763593435774 0.0008717099887761324
4 -0.0015470894267696858 -0.00011942893449977117 0.0013112837548044667
46 -0.001502653373642975 0.0002043379085783369 -0.0013941573858349476
6 0.00010344401788925659 -6.733467033149366e-05 0.00015627075818040913
47 -8.117118527178035e-05 -0.0012496670021330033 -0.0007507558661614731
48 -0.0014219528886409564 0.0005262533422724492 -0.0002867132251001814
49 -0.00043350463799917804 -0.0011800580124963946 -0.00045610096310713194
50 0.0007120925082806726 0.0007324920522989773 0.0004441546855240098
51 -0.0008362280945407316 -0.00019196744681639356 -6.418367982886242e-06

Bonds

1 1 21 22
2 1 34 35
3 1 19 20
4 1 20 21
5 1 33 34
6 1 24 25
7 1 25 26
8 1 23 24
9 1 22 23
10 1 36 37
11 1 35 36
12 1 31 32
13 1 30 31
14 1 29 30
15 1 18 19
16 1 32 33
17 1 17 18
18 1 16 17
19 1 37 38
20 1 38 39
21 1 26 27
22 1 28 29
23 1 27 28
24 1 15 16
25 1 13 14
26 1 12 13
27 1 14 15
28 1 43 44
29 1 41 42
30 1 39 40
31 1 40 41
32 1 42 43
33 1 3 4
34 1 2 3
35 1 5 6
36 1 1 2
37 1 11 12
38 1 44 45
39 1 10 11
40 1 45 46
41 1 8 9
42 1 7 8
43 1 9 10
44 1 4 5
45 1 46 47
46 1 6 7
47 1 47 48
48 1 48 49
49 1 49 50
50 1 50 51

Angles

1 1 20 21 22
2 1 33 34 35
3 1 18 19 20
4 1 19 20 21
5 1 32 33 34
6 1 23 24 25
7 1 24 25 26
8 1 22 23 24
9 1 21 22 23
10 1 35 36 37
11 1 34 35 36
12 1 30 31 32
13 1 29 30 31
14 1 28 29 30
15 1 17 18 19
16 1 31 32 33
17 1 16 17 18
18 1 15 16 17
19 1 36 37 38
20 1 37 38 39
21 1 25 26 27
22 1 27 28 29
23 1 26 27 28
24 1 14 15 16
25 1 12 13 14
26 1 11 12 13
27 1 13 14 15
28 1 42 43 44
29 1 40 41 42
30 1 38 39 40
31 1 39 40 41
32 1 41 42 43
33 1 2 3 4
34 1 1 2 3
35 1 4 5 6
36 1 10 11 12
37 1 43 44 45
38 1 9 10 11
39 1 44 45 46
40 1 7 8 9
41 1 6 7 8
42 1 8 9 10
43 1 3 4 5
44 1 45 46 47
45 1 5 6 7
46 1 46 47 48
47 1 47 48 49
48 1 48 49 50
49 1 49 50 51
