LAMMPS data file via write_data, version 29 Aug 2024, timestep = 7277110, units = real

117 atoms
4 atom types
116 bonds
1 bond types
115 angles
1 angle types

-500.6 500.6 xlo xhi
-500.6 500.6 ylo yhi
-500.6 500.6 zlo zhi

Masses

1 329.2
2 305.2
3 345.2
4 306.2

Bond Coeffs # harmonic

1 7.5 5.9

Angle Coeffs # harmonic

1 5 150

Atoms # full

96 1 2 0 264.5100069595299 37.22209729129029 149.27927615096928 0 0 0
99 1 3 0 255.62090161039137 39.45467185232165 161.03929343593003 0 0 0
100 1 2 0 253.78505101898006 42.02057245880531 166.20551510045695 0 0 0
97 1 4 0 260.73858199770575 41.45688003846337 151.7845365507227 0 0 0
98 1 2 0 256.7967792660547 42.40438992403829 156.17009219524414 0 0 0
95 1 2 0 268.7071965718062 35.182205533683316 152.58768496849012 0 0 0
94 1 1 0 269.41829585491325 37.24630665415884 158.22544452276932 0 0 0
93 1 1 0 269.9581140451556 42.540709079722355 160.65673562353507 0 0 0
92 1 4 0 269.9547991133504 46.64338224470605 165.16133183879515 0 0 0
51 1 1 0 209.15985535284963 8.38611113689931 183.65649848310923 0 0 0
50 1 1 0 215.03997556598378 9.673089839236432 183.64876822093814 0 0 0
91 1 2 0 266.5146720888353 48.91684710331479 169.4961294891848 0 0 0
101 1 1 0 251.55560269125755 42.177178811402584 171.6637578496272 0 0 0
102 1 1 0 252.73289427229648 45.63264506854875 176.60425284051473 0 0 0
103 1 3 0 251.785067335768 48.42205941320019 181.43121167150235 0 0 0
86 1 3 0 243.37729005087286 59.467021781307224 178.95966926279837 0 0 0
87 1 4 0 249.44538655496322 59.12569106088845 177.73296512152916 0 0 0
85 1 2 0 239.57836333181473 57.58078893782549 183.04771423103875 0 0 0
90 1 3 0 262.07451465283077 51.836884053339475 172.31699701680083 0 0 0
89 1 1 0 258.95057262074243 56.580946335362256 172.84229770513713 0 0 0
88 1 2 0 253.28150817155267 57.62592143379163 173.6025464204601 0 0 0
53 1 3 0 211.3635335174973 -0.3827546053991992 188.20126628122213 0 0 0
54 1 3 0 216.51965568442088 -3.0911650753226465 187.59647529576492 0 0 0
21 1 2 0 216.1123255884096 -1.9123637649476837 197.3440963258447 0 0 0
22 1 3 0 216.220674969574 -7.490201707009338 198.07228003383167 0 0 0
55 1 1 0 222.0970816490317 -2.7698723839021024 186.03206286047865 0 0 0
56 1 1 0 227.75136672302963 -4.654163595650542 185.6937287436092 0 0 0
57 1 3 0 232.60269225587962 -5.065641193346525 188.6877834066504 0 0 0
23 1 3 0 219.2946006056162 -12.29978497866951 199.8225677264185 0 0 0
58 1 1 0 235.80153460280462 -0.9137742841860343 190.46628698953813 0 0 0
52 1 1 0 207.3762775279592 4.239499003432888 187.13079437078093 0 0 0
20 1 3 0 214.58368312219943 3.286801731027317 199.78754540563756 0 0 0
49 1 3 0 219.82148810803088 8.996181115440898 186.85841718794788 0 0 0
48 1 2 0 222.76483290068217 6.077959902248137 191.35972783614454 0 0 0
47 1 2 0 226.8262999276819 2.931025445871047 193.94782869493986 0 0 0
46 1 4 0 228.0890525064941 0.42851967483102005 198.8006625751575 0 0 0
59 1 3 0 237.4890842259526 4.642182581281852 192.5293149177096 0 0 0
60 1 4 0 242.262494309623 7.441701322048472 191.8110006568069 0 0 0
61 1 1 0 243.57623169593805 12.831665480543528 193.83498933695267 0 0 0
62 1 3 0 244.67398549775194 16.76081105172166 198.24828292185373 0 0 0
82 1 3 0 242.76522602995024 49.382321234933634 196.77303622746942 0 0 0
81 1 1 0 247.97621847171223 46.40333347478426 198.37949416728875 0 0 0
80 1 3 0 254.05846505015873 45.183422870694514 197.140736660864 0 0 0
79 1 2 0 259.890834905293 45.517994581661796 195.52690297180962 0 0 0
78 1 2 0 264.6413944089112 48.21408913759681 196.75457717153643 0 0 0
83 1 2 0 239.32458731527902 51.88134194104991 192.5273235920831 0 0 0
84 1 2 0 238.91179583135565 54.275768666604606 187.4602960571891 0 0 0
106 1 4 0 248.8714509881802 57.66897765124031 194.5512921455138 0 0 0
107 1 2 0 249.63035811035346 57.814396649906385 200.20791595642814 0 0 0
104 1 2 0 253.59974365900175 52.395354533885495 184.74968270370385 0 0 0
105 1 3 0 252.11589531341025 56.11855883638071 189.4853814525776 0 0 0
24 1 3 0 224.3688372368927 -14.223491711853143 201.33748339100597 0 0 0
45 1 4 0 226.90898808162328 -0.7534275867159348 204.31595458571385 0 0 0
44 1 2 0 223.2755586640078 -2.3674326703271418 208.7518540373815 0 0 0
43 1 4 0 220.86614243114195 -6.144729798075501 212.34266103434243 0 0 0
25 1 3 0 229.37343128509286 -13.595513750370749 204.32814168493712 0 0 0
26 1 3 0 231.97595075824913 -13.532163136596894 209.18009038129745 0 0 0
27 1 1 0 231.32934453867418 -10.579185369217234 214.2073393216878 0 0 0
19 1 3 0 217.05829323500242 8.180415225125072 202.13860612190203 0 0 0
17 1 3 0 227.26431762224752 14.016158748387557 201.47911052500484 0 0 0
18 1 3 0 221.2919690420216 12.116161030059608 201.32921121077942 0 0 0
15 1 1 0 236.19880192521487 13.818145408210398 207.03599122928546 0 0 0
14 1 3 0 240.5622056999396 14.142247191198368 211.210766455721 0 0 0
13 1 2 0 246.22122546628935 12.503068171971382 211.81751636082564 0 0 0
12 1 2 0 251.4537501332729 13.299056589178608 209.60332599458988 0 0 0
16 1 1 0 231.54168335603802 16.637252975164547 204.38736374116323 0 0 0
63 1 3 0 241.99155062716352 20.768564768642154 201.64452977988128 0 0 0
64 1 3 0 242.9007857681774 23.73757931354957 206.9607302745993 0 0 0
65 1 4 0 246.56331042897037 25.150938948453025 211.2615514849778 0 0 0
66 1 4 0 247.95700770408195 28.855624431685786 215.75943205809966 0 0 0
10 1 1 0 259.1986470494278 21.48797870405573 207.75216986692578 0 0 0
11 1 2 0 254.97704599138027 17.852833964234055 209.66544599810626 0 0 0
9 1 1 0 258.82911756602306 26.756026810602858 205.49810399132235 0 0 0
8 1 3 0 255.44313693594043 31.15921932053065 205.24222825199828 0 0 0
6 1 2 0 244.90339394709736 36.02322378911736 206.6210640672897 0 0 0
5 1 3 0 240.962288848066 39.93896728870566 208.43006651635608 0 0 0
7 1 4 0 249.97393320366535 32.8202135536486 205.36993890116153 0 0 0
4 1 2 0 242.0595522846049 45.39119314238799 209.95588659878723 0 0 0
110 1 1 0 261.01301073418915 49.09006360492329 208.23282249759544 0 0 0
111 1 1 0 263.01531766828526 45.039343411318505 212.13901293475095 0 0 0
77 1 2 0 268.28067152766073 50.62540519155748 200.33350433129874 0 0 0
2 1 1 0 242.5489117547173 56.63584801770363 207.0089313173268 0 0 0
3 1 4 0 243.138340539786 51.17597191865659 209.60258843566302 0 0 0
1 1 3 0 242.63085865070946 62.30438224513455 207.69077820696074 0 0 0
109 1 3 0 256.00629082578104 52.22850894699084 206.75554185498714 0 0 0
108 1 2 0 252.881662405609 56.652319373116626 204.6059991932826 0 0 0
74 1 2 0 266.72011993486706 57.50457179167575 214.37618941307656 0 0 0
75 1 3 0 266.80140524598585 57.45243386650606 208.32019806436665 0 0 0
76 1 1 0 270.308562958007 54.31952752293794 204.35221155923634 0 0 0
39 1 1 0 228.7448137931499 -20.237835886541873 227.40131186093075 0 0 0
38 1 3 0 234.4977091291492 -19.629713806738952 229.02979496063347 0 0 0
42 1 2 0 220.54906410573818 -9.18307498499483 217.43870695217376 0 0 0
40 1 1 0 224.53219328926951 -15.995292548995003 226.27997519159445 0 0 0
41 1 4 0 222.94779922830733 -13.300997212453895 221.21530331020077 0 0 0
29 1 2 0 233.01932714202232 -6.672411467270835 223.84027007300233 0 0 0
37 1 2 0 238.53878214801264 -16.035570185040847 227.17518551873073 0 0 0
36 1 3 0 244.17155804909044 -14.692966083473864 226.44691097677503 0 0 0
35 1 3 0 248.89930283507653 -13.108169323383356 223.46865627429247 0 0 0
28 1 2 0 234.41362689401373 -8.736911137743279 218.59800584752577 0 0 0
30 1 2 0 237.04701831548218 -6.602923475236831 227.6714900347634 0 0 0
31 1 1 0 241.18383049365022 -3.4219147951252826 229.32842959167206 0 0 0
32 1 3 0 246.78072853861588 -2.046859010774479 230.9297851624841 0 0 0
34 1 3 0 252.55679747814432 -8.685589229374832 225.02762975732568 0 0 0
33 1 3 0 252.14443310139774 -4.872908775593655 229.85267760650692 0 0 0
67 1 1 0 252.12210108396658 30.635332122011086 219.53132726087108 0 0 0
70 1 2 0 256.02604083766863 44.74485638791661 227.7414215133701 0 0 0
68 1 2 0 254.90784992802162 34.963989655125786 222.37469860832726 0 0 0
69 1 4 0 254.84503531597449 40.83016373529271 223.47576260901644 0 0 0
115 1 3 0 264.82425249070087 37.492086204108176 232.17634440527374 0 0 0
112 1 3 0 264.8764393492525 43.14665638790053 216.99442776100577 0 0 0
71 1 2 0 259.58792412218395 49.250816506478614 228.2104307860782 0 0 0
114 1 1 0 267.7912329603795 38.81860888254241 227.5498750026953 0 0 0
113 1 3 0 267.9980972206879 40.47542843016524 221.92334880943386 0 0 0
73 1 4 0 264.76047720842155 55.97799518112967 219.4648166306376 0 0 0
72 1 4 0 263.1415636462559 52.09319957039747 223.8838233949323 0 0 0
117 1 1 0 254.53999187676916 38.63930968511481 236.916831146832 0 0 0
116 1 1 0 260.1895751117699 37.51896363718983 235.784861942393 0 0 0

Velocities

96 -0.0006366728054029732 -0.0007072808950464973 -0.0006013702934114451
99 -0.0005278299280861604 -0.00044782338203588976 -0.00020834599121696698
100 0.0008933737143882732 -0.000767425518793984 -0.0003201937190896903
97 0.0008371496023004312 0.0012379961495691705 -0.0001618876671079502
98 0.000631776911315586 0.001179588585999392 -0.0008488815253613651
95 5.2297742927792755e-05 -0.0005639721962735849 0.0006334601138429456
94 -0.0008666569669228711 0.0013397055117574579 0.0013569355662132693
93 -0.0008110621104473203 4.553374539933662e-05 0.0026345894904196
92 0.00045969108350161575 -0.0006195987259216947 -0.001845842408189627
51 0.0015700960693101047 0.0009158048812319371 0.00034504025627316574
50 -0.00037716860829631674 2.1170982672371106e-06 0.00018136825817402296
91 -2.8436605720361327e-05 -0.0005295557140046606 -0.0006545665530814169
101 0.002399168453688436 -0.0003795846345125927 0.0005182462176314261
102 -0.0011399214657673042 -0.0012863903044566683 -0.0010808040725595479
103 0.0018087638290758795 -0.0006680101742427172 0.001042788395181987
86 0.000833344764550749 0.00025797973372104034 0.0016448224459123188
87 -0.0021761032136888626 0.0010348358481870417 0.00028696412954481803
85 0.0008679017191641096 0.0008563330584098419 -0.0010510486728311753
90 -4.73272214776061e-05 0.002164722254689866 0.000648630712426899
89 -0.00026376616419987556 0.000740181037578291 0.0006871162652429099
88 0.00156721167206108 -6.724147264191297e-05 -0.00013945101775634768
53 -2.631427448684458e-05 0.0007503730307333806 0.0001949503362965711
54 -0.0007689968716240648 0.0003370659479401849 -0.0012740255805918526
21 -0.0008936346338483047 -0.0005947964482245832 -4.0470759520829704e-05
22 7.287356285235484e-05 0.00048550399933514093 -0.0009590463552503795
55 -0.00019360865780837175 -1.88047189152731e-05 -0.0010475381096142656
56 0.0012636739620767645 -0.00023238865729121675 -0.0002526337074009929
57 -0.0008414595420818165 0.0005999358393650595 0.000281456439431863
23 -0.0003289233058358861 0.0001189454942689869 0.0011503755132714936
58 -0.0032158430450340693 0.0009543675815010552 -5.588268361889861e-05
52 -0.0008019035863100087 -0.000854466921543924 6.563625354310915e-05
20 0.0005330947018039403 0.001300927583317249 0.00023324418643403153
49 0.0006862493090311622 0.0005853118727574303 -0.0005873201894061155
48 0.0009262159290321307 0.0001631000451484209 -0.0009349273274113027
47 0.0009540319097478625 -8.352961920492359e-05 -0.0003299877642035103
46 -0.00011408611483865904 0.00014151527130668362 0.00014519877534099378
59 0.00043803309388848596 -0.0008679824746139059 0.000650301560398123
60 -0.0009558217275289913 0.0008823664746493898 -0.0014338115087601535
61 0.0014251519270896923 0.00030787675832013927 0.00045177188766161485
62 0.000200542686573544 0.0008223391325622765 9.442942225719233e-05
82 -0.00010604774805888468 0.0007823230837455568 0.0013106412194335176
81 -0.0010030350710588237 0.00048372273524067245 0.0001713668398544665
80 8.566399243547284e-05 -0.00033447029656784284 0.0009134461635031893
79 0.00021534445114786285 -0.00024863869143984394 -0.0005656312594954836
78 -0.0013899395665227829 0.00017748420290072522 5.287112777981058e-05
83 -0.0009608344779967619 0.0005251431764447917 -0.0006845831712144198
84 0.00010454373948350838 0.0014371518887564031 -0.00020733636001381007
106 -0.0017769867582529924 -0.0007249314173249603 0.0007385668574770413
107 0.0010786454135098967 -0.0006926695588689901 0.00201676712675365
104 -0.0005831149104750154 0.00038202432876010623 0.0019557778317086153
105 0.001428015389520376 0.0010567486512888854 4.002491873900336e-06
24 0.0003601261218920498 -0.00016760804670421919 0.0014824629534509633
45 -0.0020478955767869746 -6.15345839524864e-05 0.0014631868688920826
44 0.0011707545732257275 0.0002450919611829551 -9.224560121939563e-06
43 0.0007015804597021778 -0.000543023573539571 -0.0011846320908751012
25 -0.001325669396756229 -0.0003443851851516673 -0.0016832478798721449
26 -0.000477584501958521 -0.0007785658389778095 4.8410499416580836e-05
27 -0.0005130220471836111 -0.000655733855012691 -0.0010835372398858168
19 0.00035375682919823627 -0.0005111088947265984 0.00015603866680690413
17 -0.0019247285205191778 -0.00101027314665901 -0.0014492953848226642
18 0.0005106405844344852 -0.0007515094852658614 -0.0012877871125190326
15 0.0013945062135958545 0.00035392355606133654 0.0001891225534174152
14 0.0007239642751885998 0.000829190283183117 -0.0003963243681072205
13 -0.0013467061853296885 -0.000660126156802687 -0.0011419364856148672
12 0.0010125541197798663 0.0010991595120694502 0.0009342099699174743
16 0.0011511663484462605 -0.0012346031388052656 -0.00045892569104758526
63 -0.0006182956710835454 6.970971411154367e-05 0.0005575059735201149
64 0.000489899865946649 -0.00037961249579601675 -0.0008271889045686099
65 -0.0007649498903422859 -0.00185725990441806 -0.0011283810309943689
66 1.2742830546655542e-05 -0.001259031132126062 0.001361046665311792
10 -0.0008596351803532369 -0.0005836830489080828 -0.0003651971013028846
11 -0.00029415766420866915 -4.128275456992838e-05 0.0012440221331996273
9 0.0003007780557263215 -0.0010082646696580341 -2.527979317736961e-05
8 0.0010156990200074097 -0.001593499021659869 0.0004109608503664749
6 -6.806915078497287e-05 -0.00034813506562100794 -0.001901571094138508
5 0.000863634259294115 0.0002877627801162298 -0.0011132033877131952
7 -0.0008384283633145672 -0.000887901377990198 -8.49494954175443e-05
4 -0.0003241581054533467 -0.0011711976615041211 -0.00047850246317000333
110 -0.0005290407188017866 0.0016537667123241629 0.0003593959121200516
111 0.0005262182283493806 -0.00017931805396118224 0.0006930797709415967
77 0.0008859809808884699 0.0014826246829481118 -0.001421777511221938
2 -0.0006075563399601984 0.0003996439059624963 0.0010502528845865427
3 -0.0008009399017717565 -0.00012636020821228376 0.00042320964052590225
1 -0.0019155005753880396 -0.001028064416158818 -0.0011053544069762535
109 -0.00018417771769430432 0.0001099312960450107 0.0004100097595505895
108 0.0005598486596791472 0.0008521345064809445 -0.0004345908821974289
74 0.0015815704790540844 0.0007657739513656968 -0.0012859416985486229
75 0.001041485955535964 -0.000282049049465092 -8.692605334760941e-05
76 0.0004027401353377727 -0.0006949249838072613 -0.0010229287999900484
39 -0.0006667802930507439 -0.00025951169825596615 -0.0006854216639088471
38 -0.0011826796598542921 -0.0005022264445981896 -8.84858034683063e-06
42 0.0007760659446581199 0.0002947957191471631 -0.0007476562713955719
40 -0.0011491847085879322 -0.00017386492474576553 0.0015289926677732684
41 -0.0002074577408365812 -0.0009519191649645477 -0.0014263405047507405
29 0.0002371306424226134 0.0008979329674730185 -0.0007910847630499547
37 0.00038878598655406674 0.0009306200751586055 -0.00045291925401465895
36 -0.00014826439454454507 0.001023892403317192 -0.0006947585573908598
35 -0.0005835916660461508 -0.0006904592496154552 -2.446972730867047e-06
28 0.00020255442148794708 -0.0007163996284937675 0.0011852566134348418
30 -0.0003748500395745118 -0.0018443201462733296 0.0015906250333334105
31 -0.0009582955148610642 0.002140434638926241 -0.0004802210266567138
32 -0.00013365581042773373 4.0126809531328794e-05 0.000828769818949385
34 0.001264090736801084 0.0009465112683791381 0.0005660848036261973
33 -0.0007610948088851351 0.0008381540670589412 0.0003142995919058809
67 -0.0012022402792148102 -0.001128169862922905 0.0009940070532854835
70 -0.000512383022852584 0.000901354676621045 -6.96008475386265e-05
68 -0.0007725182921091232 -0.0008461163108715155 -0.00016431062094548557
69 0.00015602356772616066 7.378859255263845e-05 -0.0005923331059084081
115 0.0005153786132082486 0.0009533503809080752 0.0008866069449383286
112 0.0004155527807452908 0.0012540866491516569 -0.000547745004064227
71 -0.0009303127986565916 -0.0014770614084628998 0.0008347559890779122
114 -0.0009585264251604335 -0.00029973739338934774 0.000629501972410863
113 -0.000280010541783463 -1.3571577947937078e-05 -0.00038140010160531834
73 0.00012529336772907398 -0.0004793246346023996 0.0006719334555733913
72 0.0005753254374298586 -0.0013883024580822756 0.0006634437586693599
117 0.00025175821073596864 0.0005047767551300239 -0.0025360267123717755
116 0.0013400301457626518 0.0005626700643101197 0.0011279902216719414

Bonds

1 1 96 97
2 1 99 100
3 1 100 101
4 1 97 98
5 1 98 99
6 1 95 96
7 1 94 95
8 1 93 94
9 1 92 93
10 1 51 52
11 1 50 51
12 1 91 92
13 1 101 102
14 1 102 103
15 1 103 104
16 1 86 87
17 1 87 88
18 1 85 86
19 1 90 91
20 1 89 90
21 1 88 89
22 1 53 54
23 1 54 55
24 1 21 22
25 1 22 23
26 1 55 56
27 1 56 57
28 1 57 58
29 1 23 24
30 1 58 59
31 1 52 53
32 1 20 21
33 1 49 50
34 1 48 49
35 1 47 48
36 1 46 47
37 1 59 60
38 1 60 61
39 1 61 62
40 1 62 63
41 1 82 83
42 1 81 82
43 1 80 81
44 1 79 80
45 1 78 79
46 1 83 84
47 1 84 85
48 1 106 107
49 1 107 108
50 1 104 105
51 1 105 106
52 1 24 25
53 1 45 46
54 1 44 45
55 1 43 44
56 1 25 26
57 1 26 27
58 1 27 28
59 1 19 20
60 1 17 18
61 1 18 19
62 1 15 16
63 1 14 15
64 1 13 14
65 1 12 13
66 1 16 17
67 1 63 64
68 1 64 65
69 1 65 66
70 1 66 67
71 1 10 11
72 1 11 12
73 1 9 10
74 1 8 9
75 1 6 7
76 1 5 6
77 1 7 8
78 1 4 5
79 1 110 111
80 1 111 112
81 1 77 78
82 1 2 3
83 1 3 4
84 1 1 2
85 1 109 110
86 1 108 109
87 1 74 75
88 1 75 76
89 1 76 77
90 1 39 40
91 1 38 39
92 1 42 43
93 1 40 41
94 1 41 42
95 1 29 30
96 1 37 38
97 1 36 37
98 1 35 36
99 1 28 29
100 1 30 31
101 1 31 32
102 1 32 33
103 1 34 35
104 1 33 34
105 1 67 68
106 1 70 71
107 1 68 69
108 1 69 70
109 1 115 116
110 1 112 113
111 1 71 72
112 1 114 115
113 1 113 114
114 1 73 74
115 1 72 73
116 1 116 117

Angles

1 1 95 96 97
2 1 98 99 100
3 1 99 100 101
4 1 96 97 98
5 1 97 98 99
6 1 94 95 96
7 1 93 94 95
8 1 92 93 94
9 1 91 92 93
10 1 50 51 52
11 1 49 50 51
12 1 90 91 92
13 1 100 101 102
14 1 101 102 103
15 1 102 103 104
16 1 85 86 87
17 1 86 87 88
18 1 84 85 86
19 1 89 90 91
20 1 88 89 90
21 1 87 88 89
22 1 52 53 54
23 1 53 54 55
24 1 20 21 22
25 1 21 22 23
26 1 54 55 56
27 1 55 56 57
28 1 56 57 58
29 1 22 23 24
30 1 57 58 59
31 1 51 52 53
32 1 19 20 21
33 1 48 49 50
34 1 47 48 49
35 1 46 47 48
36 1 45 46 47
37 1 58 59 60
38 1 59 60 61
39 1 60 61 62
40 1 61 62 63
41 1 81 82 83
42 1 80 81 82
43 1 79 80 81
44 1 78 79 80
45 1 77 78 79
46 1 82 83 84
47 1 83 84 85
48 1 105 106 107
49 1 106 107 108
50 1 103 104 105
51 1 104 105 106
52 1 23 24 25
53 1 44 45 46
54 1 43 44 45
55 1 42 43 44
56 1 24 25 26
57 1 25 26 27
58 1 26 27 28
59 1 18 19 20
60 1 16 17 18
61 1 17 18 19
62 1 14 15 16
63 1 13 14 15
64 1 12 13 14
65 1 11 12 13
66 1 15 16 17
67 1 62 63 64
68 1 63 64 65
69 1 64 65 66
70 1 65 66 67
71 1 9 10 11
72 1 10 11 12
73 1 8 9 10
74 1 7 8 9
75 1 5 6 7
76 1 4 5 6
77 1 6 7 8
78 1 3 4 5
79 1 109 110 111
80 1 110 111 112
81 1 76 77 78
82 1 1 2 3
83 1 2 3 4
84 1 108 109 110
85 1 107 108 109
86 1 73 74 75
87 1 74 75 76
88 1 75 76 77
89 1 38 39 40
90 1 37 38 39
91 1 41 42 43
92 1 39 40 41
93 1 40 41 42
94 1 28 29 30
95 1 36 37 38
96 1 35 36 37
97 1 34 35 36
98 1 27 28 29
99 1 29 30 31
100 1 30 31 32
101 1 31 32 33
102 1 33 34 35
103 1 32 33 34
104 1 66 67 68
105 1 69 70 71
106 1 67 68 69
107 1 68 69 70
108 1 114 115 116
109 1 111 112 113
110 1 70 71 72
111 1 113 114 115
112 1 112 113 114
113 1 72 73 74
114 1 71 72 73
115 1 115 116 117
