LAMMPS data file via write_data, version 29 Aug 2024, timestep = 10000000, units = real

74 atoms
4 atom types
73 bonds
1 bond types
72 angles
1 angle types

-500.6 500.6 xlo xhi
-500.6 500.6 ylo yhi
-500.6 500.6 zlo zhi

Masses

1 329.2
2 305.2
3 345.2
4 306.2

Bond Coeffs # harmonic

1 7.5 5.9

Angle Coeffs # harmonic

1 5 150

Atoms # full

37 1 2 0 -181.7370896718191 -112.54649206973747 -468.8980368000873 1 0 1
22 1 1 0 -184.85601289441354 -117.44958874962651 -454.82835579678164 1 0 1
23 1 3 0 -188.14001173560303 -120.17142957773568 -450.9523543330718 1 0 1
50 1 3 0 -195.4622552512375 -103.90603121541896 -454.52421082260423 1 0 1
36 1 4 0 -183.98437437335545 -107.72326829671772 -466.82896577339136 1 0 1
35 1 4 0 -186.17243817933476 -105.07044703475701 -462.4062481792026 1 0 1
34 1 4 0 -184.63003581072414 -105.0104975814068 -456.7978857831615 1 0 1
38 1 1 0 -176.7690164841274 -115.27065401638222 -466.4846383186777 1 0 1
21 1 2 0 -181.30873891194682 -113.23322985112596 -453.89537036019175 1 0 1
39 1 2 0 -172.09417602115593 -114.0264508644705 -463.11172839260365 1 0 1
40 1 3 0 -170.19095905573457 -109.93759823864052 -459.6186125571925 1 0 1
41 1 3 0 -171.39208623816637 -104.17867312773502 -460.3433408904964 1 0 1
33 1 2 0 -182.3909558887612 -101.33158877650366 -453.02353075210976 1 0 1
61 1 2 0 -160.1490176255396 -113.77909225753078 -450.6349174507992 1 0 1
48 1 2 0 -195.86625346357033 -95.61660034304876 -462.1456858627706 1 0 1
49 1 1 0 -197.0977228603003 -99.9112988506901 -458.7984203636581 1 0 1
47 1 1 0 -191.16934056132158 -92.80524132899559 -464.27140397605837 1 0 1
45 1 4 0 -183.62891900255053 -91.24075086962577 -457.16398864788323 1 0 1
46 1 1 0 -186.05181334136986 -91.11313993365675 -462.50614496029243 1 0 1
42 1 2 0 -172.20022567480999 -98.65603396738656 -458.5313323327487 1 0 1
43 1 3 0 -173.50860658498877 -94.23169927619571 -454.53751712079975 1 0 1
44 1 3 0 -178.81844096060263 -91.18397635355397 -453.77933893061794 1 0 1
24 1 3 0 -190.92193236565237 -121.3523354735101 -445.854601478261 1 0 1
25 1 1 0 -193.13760587964728 -121.18570812415467 -440.24686983048645 1 0 1
26 1 2 0 -193.43704894702114 -118.31211668770958 -435.5142640045079 1 0 1
57 1 3 0 -178.19957242681556 -122.65978782972047 -444.37176884915687 1 0 1
56 1 2 0 -180.90768067126243 -121.4174255074659 -439.14507375346614 1 0 1
58 1 1 0 -174.1662199612662 -120.37008713621248 -447.746999725443 1 0 1
59 1 1 0 -168.68497846429267 -121.17496137297054 -449.95511362713836 1 0 1
60 1 4 0 -163.3713608512003 -118.80338804160009 -449.96996908308125 1 0 1
51 1 3 0 -195.27842721550047 -106.54633387218503 -449.43568232403146 1 0 1
52 1 3 0 -191.53859486414848 -109.46021442567512 -446.01280130021246 1 0 1
53 1 3 0 -185.87092290673127 -109.73165732594452 -443.39987695105566 1 0 1
54 1 4 0 -182.43003710248513 -111.56896636224367 -438.87086379809836 1 0 1
20 1 2 0 -178.46327105136655 -110.16828207281584 -449.88930185950676 1 0 1
19 1 2 0 -173.6442747004741 -109.69662089551198 -446.24707270353053 1 0 1
18 1 3 0 -169.72705949898142 -109.62149201708073 -441.78940714782885 1 0 1
55 1 4 0 -181.47387483553166 -116.39267528928433 -436.1986331226169 1 0 1
17 1 3 0 -165.68110639692028 -111.49872842984385 -438.0138396153916 1 0 1
63 1 2 0 -158.87685371432033 -102.68300746056117 -446.79799320642826 1 0 1
62 1 2 0 -158.12061479072412 -108.12344972276637 -448.86804525676126 1 0 1
16 1 1 0 -160.60630464243843 -111.75283414830865 -435.15624974477487 1 0 1
15 1 3 0 -155.40474275602108 -109.13771056435816 -435.1806947165822 1 0 1
30 1 3 0 -187.63389126591406 -99.01196647620549 -437.01255790563505 1 0 1
31 1 2 0 -184.963891658955 -97.83281733823766 -441.97785336324785 1 0 1
32 1 2 0 -183.88921523628295 -98.95283647485512 -447.91311387412316 1 0 1
6 1 2 0 -168.616576561559 -87.05469585048135 -436.8669146701349 1 0 1
64 1 2 0 -162.30827631296597 -99.39325301134336 -443.5858641244648 1 0 1
65 1 4 0 -164.9357287365714 -100.01762136674137 -438.19259968974524 1 0 1
7 1 4 0 -162.94611446767811 -86.32298982585272 -437.63251433242203 1 0 1
8 1 4 0 -157.66858048741565 -84.22114783007511 -435.53880086259176 1 0 1
29 1 2 0 -191.3885581377921 -102.02379260842005 -433.85269556485036 1 0 1
27 1 1 0 -190.79260947997648 -113.40209611317368 -433.57338793413913 1 0 1
28 1 2 0 -191.86038230150533 -107.60856344708282 -432.09673614872986 1 0 1
14 1 1 0 -152.2648050585647 -104.68277252816361 -433.7497840209244 1 0 1
13 1 4 0 -150.9679483893626 -101.84007676324946 -428.7935935538638 1 0 1
4 1 2 0 -176.04481322112778 -88.76988992727917 -428.1815051909866 1 0 1
3 1 2 0 -176.977562291643 -89.5770884404225 -422.3644334013533 1 0 1
5 1 2 0 -173.57743670387475 -87.41003981333604 -433.4464832815319 1 0 1
67 1 3 0 -164.37943105628236 -95.89756497628063 -427.6643414547463 1 0 1
68 1 3 0 -163.38644595293852 -91.07805109933527 -424.57057200351926 1 0 1
66 1 1 0 -165.7577710648444 -99.18126652406156 -432.0325812338257 1 0 1
12 1 2 0 -150.7239554755388 -97.45069229298879 -425.250830512183 1 0 1
11 1 4 0 -151.1864657679475 -91.79949808963808 -425.4318343633113 1 0 1
69 1 3 0 -163.40645713343184 -85.21726411419897 -424.21716151192254 1 0 1
10 1 3 0 -151.0514418532029 -86.6405035587049 -428.2842020043506 1 0 1
74 1 2 0 -183.59525851382148 -78.99389402677814 -429.83973949430754 1 0 1
73 1 3 0 -178.8659524028021 -75.9962769360218 -432.4438960571471 1 0 1
72 1 2 0 -173.11564204280168 -74.97103194911557 -432.6346731880511 1 0 1
71 1 1 0 -168.49015016069802 -76.2856630853381 -429.3601187186566 1 0 1
70 1 3 0 -165.58015623166153 -79.69550709687753 -425.70799906677627 1 0 1
9 1 2 0 -154.62461983464632 -82.48419193386721 -430.50033258116696 1 0 1
2 1 4 0 -175.79961868429712 -92.30648196203708 -417.1096375891454 1 0 1
1 1 3 0 -172.47560165468678 -96.50116783021521 -414.35030847354307 1 0 1

Velocities

37 -0.0005812347076328278 0.0002663224196417482 -0.0004080835831182776
22 0.00014755649521752174 -0.00044420142943198755 0.0008088344615443998
23 0.00017064891143377548 0.00014740275670404432 -0.000663517772208265
50 -0.0004830052974190692 -0.000850990526954272 -0.00047485589213353495
36 0.0003349100711726592 -0.00040453405845217687 0.0010421048500433054
35 0.0009926970638008427 -0.0003689820877057387 0.0002998109468506354
34 -0.000576712220825306 -0.0009040053053429756 0.001307971855429155
38 0.002013917346544261 0.0002397525784250814 0.00048726837238444946
21 0.000742450607428181 -0.0008162902454799203 0.00024218295663064077
39 0.0012011453337567354 0.0007304065682160373 0.00021863278788216843
40 -0.00015229956437941167 4.696955175932222e-05 -0.0004910097788944411
41 -0.0011220629356285365 -0.00044104211072019885 0.0005949992656916413
33 -0.0012866545017930955 0.00042289119578095 8.259646672308586e-05
61 -0.0005171761897306126 -0.0004024157237998882 -0.0015552675958297134
48 -0.0007655541070162492 0.00013812372419873 0.001141204798044607
49 0.0008014806878670051 0.0015120262015932548 0.0007876672086938086
47 -0.00022183963597791588 -0.0003202389125239999 0.00105761269306311
45 0.0003610128598852847 -0.0003607128620401557 -0.000879189329417635
46 -0.001623551719732521 0.00031666826551477383 0.0005429204157139586
42 -0.0001305847548490464 -0.0007869520524047662 -0.0007504774525921244
43 -0.0004864472841238049 0.0020182242587280714 0.0006931030116028868
44 -0.0006033334498077896 -0.0002555534226896359 -0.0001742663855088712
24 -0.0004175793124237456 0.001227955928202961 -0.0012141682104266525
25 -0.00034778509416879324 0.000906816672988578 0.0001913531564671352
26 -0.0007022185898466633 0.002024650131617232 0.00031011662430395357
57 0.0007309295364024309 -3.286001498418937e-06 0.0004347061091827494
56 0.0009676775778066528 -0.0014736146211393876 -0.00010873823940111966
58 0.0004987251512183465 -0.0002273153145459741 -0.0004957840379932317
59 -0.0019964262246458626 -0.00039989450530808984 -0.0008240364761992638
60 -0.0009901333111482329 -0.0010642336940301274 -0.0009017943325165251
51 -0.00045014826934986553 -0.0014333080444449973 0.0014526302068484619
52 0.00026074929980074495 0.0012368861053580979 -0.0008273157228435731
53 0.0001597086293225478 -0.0011898080970623231 -0.00024484786488383634
54 -5.501998521424755e-06 -0.0005199111907201845 0.0003078939334660922
20 -0.0008921990630464729 5.14859298497889e-06 -0.0008322831031839068
19 -0.0007331307601201549 -0.0002582434387967518 0.0013914093505539161
18 0.0006975819842908324 0.0004232386984835295 0.0018417812439714837
55 0.00040955098370822274 0.0007410592304948275 0.00015803592726738527
17 0.0010303968340663922 -5.7290824134254434e-05 0.000794570908726778
63 0.001525730305629979 -0.0008733798884648053 -0.0015937886972781283
62 -4.661269942165427e-06 -3.1800309010640705e-05 -0.0009076541171419305
16 0.0007474201875018389 -0.0007011805744584689 0.00042602608698994387
15 -0.0017442061612078772 0.0008399736911870052 -0.00035441519208853585
30 -0.001090982938764421 0.00020757684373633623 -0.0006533872292635969
31 -0.0001859471543467976 -0.001189149404653136 0.0012523127264163182
32 0.0010690299456868205 -4.9638493934333885e-05 -0.0013124051147511036
6 -0.0006658933714485127 0.0005185374563625928 -0.0001097853515411861
64 -0.0007990951227345359 0.00017950495717431697 -0.00040872945457902295
65 -0.0007051597913414871 6.94066925064178e-05 -0.0013861640093897137
7 0.0002750406601159267 5.0720484264583344e-05 -0.0008617478084934671
8 -0.0005607067470279496 -0.0015439640387801858 -0.0005762648712741921
29 0.00188335801596712 0.0007053793361155014 -0.0004665128879874653
27 0.0014306710142951537 0.001003189015817133 -0.0006871828504934275
28 -0.001671854310247273 -0.0005838079935021987 -0.00014582630610925347
14 0.0005316805511853955 -0.0016756425698255108 -0.0009615503154471819
13 -0.0006284177416606295 0.0004328403609719837 0.00026442752133548506
4 -0.00020752681730852525 -0.000555233741243089 -0.0007447616510360775
3 0.00045722653886437595 0.0002608361478333003 -0.0006939797708973641
5 -0.000307281725266941 0.0003021798183165466 -0.0005414465670024543
67 0.00030246331783241755 0.00019860087993460804 -0.0007963146829993865
68 0.0012348100821734818 0.0008132641579466133 -0.0010849111127873745
66 -0.0007002390446954303 -0.0007024882870586599 -0.000563434713372178
12 0.00036662089968014696 -0.0006243984407261333 -0.0011472243712995556
11 -0.0013181470723627364 -0.0007262048868377408 0.0006180193936266681
69 2.459939361987584e-05 -0.0007233950750346293 0.00042971779757181445
10 0.0005397998365659288 0.00048507320002841417 -0.0005422839465963808
74 -4.376477913760666e-05 0.00025526818672953083 1.5185001743179405e-05
73 0.0007723965439230598 -0.00018915961886348354 0.000222319423099755
72 7.363965837218032e-05 -0.00010867503521083843 0.0005019001518745125
71 -0.0010454020105686765 0.00032150301420506546 0.0004471917305838582
70 -0.0001022266331920266 -0.002964235909081978 -0.00039234292789199133
9 0.001481062795578775 -7.039899152528306e-05 0.0004959133331259597
2 0.0003168768333966298 0.00018871636713616984 0.0012185029065151383
1 0.0007419482693709309 0.0007477293750454572 0.0009067599247546278

Bonds

1 1 37 38
2 1 22 23
3 1 23 24
4 1 50 51
5 1 36 37
6 1 35 36
7 1 34 35
8 1 38 39
9 1 21 22
10 1 39 40
11 1 40 41
12 1 41 42
13 1 33 34
14 1 61 62
15 1 48 49
16 1 49 50
17 1 47 48
18 1 45 46
19 1 46 47
20 1 42 43
21 1 43 44
22 1 44 45
23 1 24 25
24 1 25 26
25 1 26 27
26 1 57 58
27 1 56 57
28 1 58 59
29 1 59 60
30 1 60 61
31 1 51 52
32 1 52 53
33 1 53 54
34 1 54 55
35 1 20 21
36 1 19 20
37 1 18 19
38 1 55 56
39 1 17 18
40 1 63 64
41 1 62 63
42 1 16 17
43 1 15 16
44 1 30 31
45 1 31 32
46 1 32 33
47 1 6 7
48 1 64 65
49 1 65 66
50 1 7 8
51 1 8 9
52 1 29 30
53 1 27 28
54 1 28 29
55 1 14 15
56 1 13 14
57 1 4 5
58 1 3 4
59 1 5 6
60 1 67 68
61 1 68 69
62 1 66 67
63 1 12 13
64 1 11 12
65 1 69 70
66 1 10 11
67 1 73 74
68 1 72 73
69 1 71 72
70 1 70 71
71 1 9 10
72 1 2 3
73 1 1 2

Angles

1 1 36 37 38
2 1 21 22 23
3 1 22 23 24
4 1 49 50 51
5 1 35 36 37
6 1 34 35 36
7 1 33 34 35
8 1 37 38 39
9 1 20 21 22
10 1 38 39 40
11 1 39 40 41
12 1 40 41 42
13 1 32 33 34
14 1 60 61 62
15 1 47 48 49
16 1 48 49 50
17 1 46 47 48
18 1 44 45 46
19 1 45 46 47
20 1 41 42 43
21 1 42 43 44
22 1 43 44 45
23 1 23 24 25
24 1 24 25 26
25 1 25 26 27
26 1 56 57 58
27 1 55 56 57
28 1 57 58 59
29 1 58 59 60
30 1 59 60 61
31 1 50 51 52
32 1 51 52 53
33 1 52 53 54
34 1 53 54 55
35 1 19 20 21
36 1 18 19 20
37 1 17 18 19
38 1 54 55 56
39 1 16 17 18
40 1 62 63 64
41 1 61 62 63
42 1 15 16 17
43 1 14 15 16
44 1 29 30 31
45 1 30 31 32
46 1 31 32 33
47 1 5 6 7
48 1 63 64 65
49 1 64 65 66
50 1 6 7 8
51 1 7 8 9
52 1 28 29 30
53 1 26 27 28
54 1 27 28 29
55 1 13 14 15
56 1 12 13 14
57 1 3 4 5
58 1 2 3 4
59 1 4 5 6
60 1 66 67 68
61 1 67 68 69
62 1 65 66 67
63 1 11 12 13
64 1 10 11 12
65 1 68 69 70
66 1 9 10 11
67 1 72 73 74
68 1 71 72 73
69 1 70 71 72
70 1 69 70 71
71 1 8 9 10
72 1 1 2 3
