LAMMPS data file via write_data, version 29 Aug 2024, timestep = 5633440, units = real

132 atoms
4 atom types
131 bonds
1 bond types
130 angles
1 angle types

-500.6 500.6 xlo xhi
-500.6 500.6 ylo yhi
-500.6 500.6 zlo zhi

Masses

1 329.2
2 305.2
3 345.2
4 306.2

Bond Coeffs # harmonic

1 7.5 5.9

Angle Coeffs # harmonic

1 5 150

Atoms # full

35 1 3 0 461.14770399296384 -84.7745547217096 245.36483856495107 0 0 0
34 1 3 0 466.462918850389 -82.45339156149363 245.1274681749103 0 0 0
116 1 1 0 453.0956431168897 -68.86994710741469 251.65566026602582 0 0 0
33 1 4 0 471.9591220866075 -80.65284447497095 247.21913893682284 0 0 0
1 1 2 0 461.2816280387834 -20.22929333923429 232.86778567424417 0 0 0
2 1 1 0 462.68034585677447 -23.982453170419184 237.2697981676042 0 0 0
4 1 2 0 458.44937404204666 -23.87828615878554 247.78598159246258 0 0 0
3 1 4 0 459.84228319786365 -24.32048972312 242.11850166911577 0 0 0
37 1 1 0 453.1564013963694 -85.88094461761217 253.65522371880266 0 0 0
36 1 3 0 456.81901547459233 -85.29887943663985 248.7807237689465 0 0 0
121 1 4 0 471.43020583161507 -86.9626434734927 257.8702773753549 0 0 0
122 1 2 0 476.63063359292056 -87.01159854563292 259.88535529576274 0 0 0
39 1 3 0 450.67362724524554 -77.74993534320613 260.54548194913053 0 0 0
38 1 1 0 451.27269758710776 -83.27162759971534 258.2490606088946 0 0 0
40 1 4 0 451.25887893764775 -71.97765688685898 260.9577571812545 0 0 0
115 1 2 0 447.3506002617449 -67.03682209421596 252.74314640057284 0 0 0
117 1 4 0 457.43824717275527 -72.03920706958884 253.95133210352657 0 0 0
120 1 3 0 465.44396095808486 -86.3339306667489 257.6444560508296 0 0 0
119 1 2 0 461.79293406800394 -81.73312538554747 259.3342789227929 0 0 0
118 1 2 0 460.33769150141836 -75.84422424449014 258.0353922343128 0 0 0
123 1 2 0 481.5923113517487 -84.50862137807276 262.04326457171834 0 0 0
29 1 3 0 472.44744776776093 -75.09551735174793 265.0345689493765 0 0 0
31 1 3 0 476.07661616830484 -74.51585186883584 254.2283466657579 0 0 0
32 1 4 0 476.0804524425789 -79.2553505540573 250.81038201996833 0 0 0
30 1 3 0 473.66389942954686 -73.53825530410404 259.59729443664105 0 0 0
124 1 4 0 485.23342213991464 -79.9234933122039 263.00644962988656 0 0 0
125 1 1 0 486.3910091475233 -75.00148484350677 266.01636879127796 0 0 0
126 1 1 0 483.83051723551193 -69.63466492478486 266.0215971778872 0 0 0
112 1 4 0 437.8316714831977 -62.6456121243391 266.0791280452882 0 0 0
113 1 1 0 442.01940522335883 -62.799116758054765 261.7665570658608 0 0 0
114 1 1 0 443.3591079500726 -64.60199731035998 255.94034553339043 0 0 0
41 1 1 0 451.05685712187244 -66.36123424282856 262.37764428474145 0 0 0
42 1 4 0 454.0096928973309 -61.85920033074333 264.0425718201215 0 0 0
43 1 2 0 455.13342530822024 -56.83862898293683 266.95305597241895 0 0 0
58 1 4 0 473.3012072593645 -40.45073746961464 262.0144341711725 0 0 0
57 1 1 0 474.55692837736063 -40.115626038028424 256.2831459718179 0 0 0
56 1 2 0 476.6295570954582 -36.31680458830042 252.38101776250662 0 0 0
5 1 2 0 459.6863005730148 -26.601782795407498 253.0694003386571 0 0 0
6 1 3 0 463.5662630540561 -28.854835870696856 257.09957018605155 0 0 0
7 1 3 0 467.7498978866273 -29.93071754168648 261.34503383581665 0 0 0
54 1 1 0 474.04634402508634 -25.15981040885367 253.7867314518791 0 0 0
55 1 2 0 476.5346517018975 -30.30887344320207 252.1511407220775 0 0 0
53 1 2 0 474.32936658799827 -20.411202063352984 257.047116465593 0 0 0
52 1 4 0 471.32013249764265 -17.74618417856096 261.12692469228733 0 0 0
72 1 4 0 425.4968729263443 -86.8828972606906 278.6747774486726 0 0 0
73 1 3 0 425.05893157705395 -92.64350001449952 279.8155020564396 0 0 0
107 1 4 0 439.204435136116 -87.8249575748356 270.50180041842856 0 0 0
108 1 2 0 437.9293332827368 -83.57523085068524 266.96266238718624 0 0 0
106 1 1 0 437.45381202028045 -90.78010750053187 275.39134542486147 0 0 0
105 1 3 0 437.60467567350724 -94.20507203641414 280.1953053423343 0 0 0
109 1 2 0 435.34246603081914 -78.52014611532243 266.0485535677248 0 0 0
110 1 2 0 433.43885539721435 -72.79136220165577 267.0843879688452 0 0 0
71 1 4 0 429.990578443977 -83.09253801389971 277.44091516366433 0 0 0
70 1 3 0 432.2110960433784 -77.52203472380683 277.99329126315706 0 0 0
111 1 3 0 434.6755497656822 -67.24874756493253 267.8820199092534 0 0 0
69 1 3 0 436.38793188244796 -73.68450651218804 279.2762037056626 0 0 0
68 1 3 0 440.8632196011171 -69.6119474210063 278.064631577299 0 0 0
67 1 2 0 445.79720565543477 -69.68206853055013 275.53255889298947 0 0 0
28 1 4 0 473.48118588737594 -77.34042502171678 270.41167526364325 0 0 0
27 1 3 0 477.66943748461796 -79.00779487168823 274.4305830139667 0 0 0
26 1 3 0 482.1456389338261 -77.5331078696314 278.1410069370599 0 0 0
128 1 3 0 480.0341468119435 -66.53001523871082 276.11646106600006 0 0 0
25 1 3 0 487.0325284633733 -74.37938627571525 279.4865990392046 0 0 0
66 1 4 0 450.771073436813 -71.92569292501769 273.01751165799976 0 0 0
65 1 1 0 456.166814532537 -69.11547588133469 273.53215801827554 0 0 0
64 1 1 0 461.6800887409723 -67.13713378632508 273.76683616925885 0 0 0
63 1 2 0 464.8867164956565 -62.54327280253628 272.7155048888327 0 0 0
62 1 3 0 464.4497429778747 -56.94263160499436 271.4120643101056 0 0 0
44 1 1 0 453.42326000307116 -52.38185356605817 269.46107628148803 0 0 0
61 1 4 0 466.866370700591 -51.35454124749424 272.7614292068638 0 0 0
129 1 3 0 477.68142322861723 -65.53901003759059 281.189062343714 0 0 0
127 1 2 0 480.87393301269213 -66.3545750818309 269.88186310297715 0 0 0
45 1 4 0 455.00234639725403 -47.356162134402716 272.21132639963696 0 0 0
46 1 3 0 456.3944499430876 -41.724845656398614 270.98400148567333 0 0 0
47 1 3 0 454.5390903815184 -36.08063303855792 269.38018059659146 0 0 0
60 1 1 0 468.8112857033815 -45.69323518542862 271.07306928227655 0 0 0
59 1 3 0 470.8034968960999 -42.324202893874016 266.8172729295024 0 0 0
50 1 1 0 461.7499194686304 -21.202173654698328 266.4543580837067 0 0 0
11 1 2 0 459.7247803649017 -28.25682864517464 279.3217876087698 0 0 0
10 1 4 0 464.6574118452004 -29.65855161837045 276.1866094499056 0 0 0
48 1 2 0 455.8362503890905 -30.450438073327383 268.33091088852734 0 0 0
49 1 4 0 458.6076039165802 -25.27920098754242 268.9626306931494 0 0 0
12 1 2 0 454.2905174406975 -31.133577761947503 280.08045140809446 0 0 0
51 1 1 0 466.59915570943105 -17.782609278906417 264.65270869969896 0 0 0
8 1 4 0 469.0773448954218 -32.556303063010205 266.36459447085446 0 0 0
9 1 1 0 468.4055896027601 -30.79603662548677 272.13928113637 0 0 0
76 1 2 0 427.91999916231487 -100.07243105954285 293.5548688223952 0 0 0
77 1 1 0 431.43770890341693 -102.30524639855922 297.63148467328114 0 0 0
75 1 1 0 423.9914320154904 -98.0241412797509 289.5411601864966 0 0 0
74 1 1 0 422.6188162577974 -95.49431688073756 284.5473984008826 0 0 0
102 1 3 0 435.735414304596 -91.83486945967631 296.31330250362896 0 0 0
104 1 2 0 437.7176554454745 -93.19733510441307 286.13885462523655 0 0 0
103 1 1 0 434.1413352725457 -93.28085325582012 291.04204028027357 0 0 0
131 1 3 0 478.3935133650415 -70.6115408916756 291.1411982720178 0 0 0
132 1 1 0 475.2051722523663 -73.27127503333308 294.92950243068424 0 0 0
24 1 2 0 489.72153926749485 -69.34500339647529 280.86073199777377 0 0 0
130 1 2 0 477.8903035945548 -66.98999924823408 286.7569144555197 0 0 0
19 1 1 0 480.11612055271047 -46.535540714438746 291.70258228128756 0 0 0
20 1 4 0 483.12556457851997 -51.14073711264885 290.70331663535507 0 0 0
23 1 4 0 489.75734666889286 -65.19604168085684 285.3719895856067 0 0 0
21 1 2 0 484.69327242453096 -55.913336777112455 287.5112148161471 0 0 0
22 1 4 0 488.2207878137918 -59.553871858472924 284.88055257622443 0 0 0
16 1 3 0 465.27803661973354 -46.02638862194266 287.56723121250303 0 0 0
15 1 1 0 459.6195198418223 -44.58782394449317 286.3106530717009 0 0 0
14 1 1 0 455.15223152197865 -40.68906518986002 284.870122103639 0 0 0
13 1 2 0 453.22755090527886 -34.97023433069914 284.35835770129705 0 0 0
17 1 1 0 470.2538987649804 -43.49901073383545 290.0698183472984 0 0 0
18 1 2 0 475.773517869847 -43.188869214808015 289.5826171044044 0 0 0
78 1 2 0 435.7266954593988 -103.97915311591913 301.4335060306704 0 0 0
79 1 4 0 435.2392568662462 -102.31388468601115 307.58646481544986 0 0 0
99 1 3 0 424.6167028383754 -93.16083260754887 308.91005820566147 0 0 0
100 1 3 0 430.1043009877014 -91.93239424729639 306.4023997669994 0 0 0
101 1 3 0 433.84699459293506 -90.62693394761608 301.7535244124386 0 0 0
98 1 3 0 420.8774761397908 -92.67232291914605 313.95772807712234 0 0 0
80 1 4 0 436.9153925192738 -98.84960724569932 312.42448050275016 0 0 0
86 1 3 0 414.987998402708 -86.62757505122651 325.45695214237827 0 0 0
87 1 3 0 411.3801476009724 -87.4272074376749 330.3741917387312 0 0 0
96 1 3 0 418.1367763409817 -95.49625270651613 324.92864625750656 0 0 0
97 1 4 0 418.9541190659992 -93.75936908226458 319.6826094966068 0 0 0
85 1 3 0 419.4091494909961 -83.05393890054387 324.3622485088959 0 0 0
83 1 4 0 428.308272985551 -88.19160945338363 321.20911454140816 0 0 0
84 1 4 0 425.2617463645773 -83.33991581431759 323.22156523507715 0 0 0
95 1 3 0 421.120202252448 -94.69761280881181 330.662546251558 0 0 0
82 1 1 0 432.7657536152549 -90.89916497055597 318.9225202841418 0 0 0
81 1 1 0 434.12546156587575 -96.27506547824306 316.8831120731087 0 0 0
88 1 4 0 412.60435869110484 -88.68368286547303 335.679160866102 0 0 0
89 1 4 0 410.53868726067117 -85.74222176360603 340.51728099594965 0 0 0
94 1 2 0 423.5491930217571 -91.40449793043977 335.00809209699815 0 0 0
93 1 1 0 425.03619589377786 -86.0418336301591 337.2340992728012 0 0 0
92 1 1 0 424.52674290189805 -84.54528047948246 342.7115093232637 0 0 0
90 1 1 0 414.0689813798923 -81.9041051413226 343.6559082718439 0 0 0
91 1 1 0 419.9958951754007 -82.04118779851838 345.1076481444723 0 0 0

Velocities

35 -0.0002668019550867633 2.8637578462853814e-05 -0.0003892918788972105
34 0.0007881560097169544 -0.0012379760177887405 0.0004747759190011183
116 -0.00045983279091789067 0.00045251508080211843 0.0019935387467514697
33 -0.00033207511726754104 -0.0005130339178277087 -0.0009642857969223793
1 -0.001739876104922556 0.0009906635638713478 -0.0009560508304144683
2 0.0005409895382050554 -0.00018995370689872573 0.001152841652690075
4 -0.0008221430155684569 6.0569993588452e-05 -8.160472505250492e-05
3 0.0003092406943323684 0.0001332229971787659 -0.00016531836164896538
37 0.0013641846365290526 0.00013213731711114228 -0.000653495782881167
36 0.0008104897824248018 -0.0007576898420752241 0.0001571211834683085
121 -0.0010607687653612415 -0.00038830778242741047 0.0005439787834807525
122 0.00018360987995147044 -0.0023923989288851355 -7.048133016295055e-05
39 0.0012585425599815384 -0.0009882389721386916 -0.00019502617693162714
38 0.0009832399573058417 -0.00012486642223800154 0.0006247260102031035
40 -4.149752664349614e-06 -0.0004017000914930941 0.00044968342316491314
115 0.0005358765626644948 0.001706644264775368 -0.00031896834912675294
117 0.0005588879374364607 0.002244783938398991 -0.00030512751911328207
120 0.0005650342839676321 -0.0006995884108181216 0.0004136204944677201
119 0.000599509731516449 -0.00101287798074887 -0.00025423787022206047
118 0.0010312270581481515 -0.001912053903527291 7.905553447911417e-05
123 0.0008326719175039852 -7.455362401407106e-05 -0.0007925730013373709
29 0.001493450853805331 -0.0002420261429331599 0.0014149933405314037
31 0.0005078998708672459 -0.0012982281820557448 -0.001953453154069464
32 0.001249616186343685 -0.001032394848763819 0.00022633482710658954
30 -7.230525999234884e-05 -0.000171869448161579 -0.0002612979873047113
124 -0.0008912416651611296 4.8193733015802066e-05 -0.001219963073295495
125 -0.0007490351882401427 -0.00045620901858113425 2.0494948128775466e-05
126 -0.0018190757448549588 0.00020225493276425867 0.0009164048664681244
112 -0.0004866796973398935 -0.0010814196189128595 0.0014640006919302995
113 0.001436730836927828 0.00016753454972072022 -0.0002723692388808978
114 0.001417981923305973 0.0002839737365972103 0.0007983374868733313
41 0.000333361525594673 -0.0012706009012951756 -8.856956422083192e-05
42 -0.00022115279994851033 0.0005401889909115818 0.00026870541688377343
43 0.00046019185908875975 -0.0003559652321341041 0.0005132578932532869
58 0.0006078458294661698 -0.0002995009628040583 -0.0004974426646218302
57 0.00040811303919470606 0.0006250371864345447 -0.001437515556085543
56 -0.000504414043891934 -0.0014911763907345284 0.0005809054666473322
5 -0.000502908223876936 3.614273199321524e-05 -0.0009632411221391031
6 -0.00019160838764007551 -0.0009255614251298268 -0.0011827636663939538
7 4.930254660047686e-05 2.6341739629107222e-05 -0.0002424611037734706
54 0.0004163844517960368 -0.0009417146941917665 0.0010736983640801615
55 0.001453324530382411 8.242065838617147e-05 9.116823023943806e-05
53 -0.0006648288790804599 0.0010510624780701086 -0.0008389652755241698
52 -0.0012433047262004958 0.0007825226131443257 -0.0009415274457133351
72 -0.0004306480602875515 0.0010911267922459284 0.0004360896018822141
73 0.0005486005816274307 -0.00133509716082867 0.00015792252599879054
107 0.0002106103060293028 -0.00021625727749309515 7.930972894850268e-05
108 0.00022738907458751985 0.00019339866570788672 -0.0008098618245451678
106 -0.0013389222421735607 0.0007165385775700214 -0.0007472259850344435
105 0.0002751553249337082 0.00187039470689262 0.000903717745461684
109 0.0011659519100087003 -0.00017752079061841838 5.7334439095378845e-06
110 6.898035472331009e-05 0.0003725253680401105 0.0009199699291661356
71 0.00011488985126315826 6.861840185204948e-05 0.0003002052397370017
70 0.00016377683778175255 0.0005268273240791776 -0.0006675919454961331
111 -0.00019077444377429284 1.6859219736502376e-05 -0.00013545513895312197
69 -0.00011025618493018164 0.001051904878764186 -0.0007361153015696104
68 8.256120514758867e-05 -0.00047303136419286386 -0.0009311238812027013
67 0.0007824894109346557 -0.0005124731478612959 -0.00012955011753308838
28 -0.0017340116081839662 0.0007787803255375031 0.0007545623426161775
27 8.211412665130302e-05 5.949347391310641e-05 0.0010243434773198744
26 0.00016240509011466507 0.0009115927685239674 -0.0013553985008265235
128 -0.0006031224396735568 0.00011580816526060014 -7.649817795012057e-05
25 0.0007776247754642723 5.808663725313164e-05 -0.0010071391316178028
66 -0.00014167473532406325 -0.0008352231502857885 0.000627651033230138
65 0.0005420066048374424 -0.0019780788936632375 1.751619777310264e-05
64 -0.00025658568729239507 0.000565933705880444 0.0007639748002439289
63 0.0013992479786349304 0.00022072863048860163 -0.0006503792887187495
62 -0.000263258262342974 0.0003285132384262567 0.0001452905477642549
44 -0.00046284660306184086 -0.0012930432768118944 0.0005333368499370082
61 -0.0009541123429364151 -0.0001723837869695261 8.061091679858842e-05
129 -0.0008171563232557813 -0.0007071261920367094 -0.0003312250574406794
127 -0.0009645737175242733 -0.00043384615093890633 0.00037623361806307507
45 0.0016203820862247117 -0.0012075167149894256 -0.0002513133688464015
46 0.0012185159100973723 -0.0007312455502980945 0.0006836137430990881
47 0.00022200223233048052 0.0008135068148624219 -0.0030809839105044724
60 -0.0015973439425963647 -0.0012576622964593468 -0.000997084896371742
59 -0.0006650841602033002 0.0009451712705117375 -0.0007699585980541549
50 0.0008036259121156432 0.00030500025695450974 0.0010757443810590042
11 -0.00013912364559858685 -0.001483986765253113 -0.0006917776544888423
10 -0.00036228066105996955 -0.00019839982964786634 -0.0005431370674945754
48 1.9222479397761658e-05 0.0014860095313164788 0.0006301931018909679
49 0.0005047243710669674 -0.0006879139613301966 -7.864033737794219e-05
12 0.0004635604720131023 -0.0016448486365450371 -0.0008896559922969017
51 -0.0017856657492066866 0.0012840910159045789 0.0007613140236496211
8 0.0007083338394603841 0.0008547195516884736 0.0004889374451135113
9 -0.0010415916763350578 0.0005307777150216475 0.0002094637724262255
76 -2.824605956102363e-05 0.00040023262362613173 0.00014042653824651471
77 0.0009407499296437518 0.00011978369473671045 -0.0017121144355478595
75 -0.00017011813715264024 0.00011056489815647425 -0.0008580263834003724
74 0.0004323927141675986 0.0007466097235709343 0.00034393388034943684
102 -0.0005992248681503958 0.00039264348277430364 0.0003243250276685243
104 0.0006172645802352413 -9.002520684042915e-05 -0.000676763991412829
103 0.000714960208082673 0.00045580525758148597 -0.0008013793150164125
131 0.0008516610138973509 -0.00017290488613809529 0.00010121929966529619
132 0.0002983868129741666 -0.00021839328904293273 -0.00032918890610890265
24 -0.0002726887283571582 0.000595674603817124 0.0015615405138638386
130 0.0011317082312227403 -0.0009098052892744913 0.0002176242134352336
19 0.0007762834319320853 0.00020510136358498028 -0.001944414641110542
20 -0.0002146888229365024 0.001394182598337861 -0.0008886839793000055
23 0.0004377292402909309 0.0004406554991142924 0.000495571189076681
21 0.00019895240701744721 0.0010194154182006818 0.00036918643001082005
22 0.0006504971720243035 8.784004631531447e-05 -0.0005156790800393749
16 0.0004023265855775563 -0.00024172705907530586 -0.0007739683018576086
15 0.00022607708505576897 0.0011902179583116702 -0.000654664663545751
14 0.0009422812466278559 -0.0008757736514205848 0.0008404206584359813
13 0.00015484603222155817 -0.0008016106976254983 3.059666703058246e-05
17 -9.461587196908689e-07 0.0005352801670701422 -0.0009539944674105415
18 -0.001209129445360377 0.00016721454804464236 -0.00038214636013307
78 0.0011729462652111354 0.00038378109258174986 -0.001549378876841779
79 -0.000983149771643297 1.924512341992297e-05 8.043060196737315e-05
99 -0.00032585425140047557 -0.00036536775964502875 -0.0005293823628173214
100 0.0001229953023146302 8.932807341634712e-05 -0.0008152546463952785
101 0.0001835787328162956 -0.00024700447697938285 4.42245789420923e-05
98 0.0015972636324150284 -3.4998485174166636e-05 0.0005893907043924928
80 0.000665352200710605 0.00021252287269860908 -0.0006773461921393891
86 0.00027143797249585454 -6.386060916276438e-05 4.6487122259342e-05
87 4.896387923927608e-05 -0.00018546776295090396 -0.00031789495365287904
96 -0.0007149195177912477 0.0010547499599553522 -0.0012127290206844458
97 -0.0013507253328657355 0.0006491518034303708 -0.0004881889960907468
85 -7.608160712733894e-05 0.00044569209323170044 -0.0013314441820184554
83 -0.001430829968987387 -0.0009449771246758826 0.0002091976769078292
84 -0.0006723231184183304 0.0007313741136475923 -0.001420582572620297
95 0.0016087729639361894 -0.000990777970496715 -0.000325506380873709
82 0.00010622854816616362 -0.00010853516923031659 -0.00018388065503856357
81 -0.000886839805911883 0.002855794645967631 -0.0003701274091652403
88 -0.00026713876656927625 0.00035463832524662217 -0.0008712456549141656
89 -0.00017666058009738645 -0.0006705357815249484 -0.000964088624456926
94 -3.286597184924199e-05 -0.0007024614720629007 0.0003760533088680893
93 0.00012764038332523946 5.0355822574583746e-05 0.0010694736835024777
92 -0.0007239710685157051 0.0008668121304878459 0.001834014841021089
90 -0.0001294868661570387 0.00020941908478440383 0.00023294252775945154
91 9.404243355476568e-05 -0.000569832949371911 0.0014503439309832844

Bonds

1 1 35 36
2 1 34 35
3 1 116 117
4 1 33 34
5 1 1 2
6 1 2 3
7 1 4 5
8 1 3 4
9 1 37 38
10 1 36 37
11 1 121 122
12 1 122 123
13 1 39 40
14 1 38 39
15 1 40 41
16 1 115 116
17 1 117 118
18 1 120 121
19 1 119 120
20 1 118 119
21 1 123 124
22 1 29 30
23 1 31 32
24 1 32 33
25 1 30 31
26 1 124 125
27 1 125 126
28 1 126 127
29 1 112 113
30 1 113 114
31 1 114 115
32 1 41 42
33 1 42 43
34 1 43 44
35 1 58 59
36 1 57 58
37 1 56 57
38 1 5 6
39 1 6 7
40 1 7 8
41 1 54 55
42 1 55 56
43 1 53 54
44 1 52 53
45 1 72 73
46 1 73 74
47 1 107 108
48 1 108 109
49 1 106 107
50 1 105 106
51 1 109 110
52 1 110 111
53 1 71 72
54 1 70 71
55 1 111 112
56 1 69 70
57 1 68 69
58 1 67 68
59 1 28 29
60 1 27 28
61 1 26 27
62 1 128 129
63 1 25 26
64 1 66 67
65 1 65 66
66 1 64 65
67 1 63 64
68 1 62 63
69 1 44 45
70 1 61 62
71 1 129 130
72 1 127 128
73 1 45 46
74 1 46 47
75 1 47 48
76 1 60 61
77 1 59 60
78 1 50 51
79 1 11 12
80 1 10 11
81 1 48 49
82 1 49 50
83 1 12 13
84 1 51 52
85 1 8 9
86 1 9 10
87 1 76 77
88 1 77 78
89 1 75 76
90 1 74 75
91 1 102 103
92 1 104 105
93 1 103 104
94 1 131 132
95 1 24 25
96 1 130 131
97 1 19 20
98 1 20 21
99 1 23 24
100 1 21 22
101 1 22 23
102 1 16 17
103 1 15 16
104 1 14 15
105 1 13 14
106 1 17 18
107 1 18 19
108 1 78 79
109 1 79 80
110 1 99 100
111 1 100 101
112 1 101 102
113 1 98 99
114 1 80 81
115 1 86 87
116 1 87 88
117 1 96 97
118 1 97 98
119 1 85 86
120 1 83 84
121 1 84 85
122 1 95 96
123 1 82 83
124 1 81 82
125 1 88 89
126 1 89 90
127 1 94 95
128 1 93 94
129 1 92 93
130 1 90 91
131 1 91 92

Angles

1 1 34 35 36
2 1 33 34 35
3 1 115 116 117
4 1 32 33 34
5 1 1 2 3
6 1 3 4 5
7 1 2 3 4
8 1 36 37 38
9 1 35 36 37
10 1 120 121 122
11 1 121 122 123
12 1 38 39 40
13 1 37 38 39
14 1 39 40 41
15 1 114 115 116
16 1 116 117 118
17 1 119 120 121
18 1 118 119 120
19 1 117 118 119
20 1 122 123 124
21 1 28 29 30
22 1 30 31 32
23 1 31 32 33
24 1 29 30 31
25 1 123 124 125
26 1 124 125 126
27 1 125 126 127
28 1 111 112 113
29 1 112 113 114
30 1 113 114 115
31 1 40 41 42
32 1 41 42 43
33 1 42 43 44
34 1 57 58 59
35 1 56 57 58
36 1 55 56 57
37 1 4 5 6
38 1 5 6 7
39 1 6 7 8
40 1 53 54 55
41 1 54 55 56
42 1 52 53 54
43 1 51 52 53
44 1 71 72 73
45 1 72 73 74
46 1 106 107 108
47 1 107 108 109
48 1 105 106 107
49 1 104 105 106
50 1 108 109 110
51 1 109 110 111
52 1 70 71 72
53 1 69 70 71
54 1 110 111 112
55 1 68 69 70
56 1 67 68 69
57 1 66 67 68
58 1 27 28 29
59 1 26 27 28
60 1 25 26 27
61 1 127 128 129
62 1 24 25 26
63 1 65 66 67
64 1 64 65 66
65 1 63 64 65
66 1 62 63 64
67 1 61 62 63
68 1 43 44 45
69 1 60 61 62
70 1 128 129 130
71 1 126 127 128
72 1 44 45 46
73 1 45 46 47
74 1 46 47 48
75 1 59 60 61
76 1 58 59 60
77 1 49 50 51
78 1 10 11 12
79 1 9 10 11
80 1 47 48 49
81 1 48 49 50
82 1 11 12 13
83 1 50 51 52
84 1 7 8 9
85 1 8 9 10
86 1 75 76 77
87 1 76 77 78
88 1 74 75 76
89 1 73 74 75
90 1 101 102 103
91 1 103 104 105
92 1 102 103 104
93 1 130 131 132
94 1 23 24 25
95 1 129 130 131
96 1 18 19 20
97 1 19 20 21
98 1 22 23 24
99 1 20 21 22
100 1 21 22 23
101 1 15 16 17
102 1 14 15 16
103 1 13 14 15
104 1 12 13 14
105 1 16 17 18
106 1 17 18 19
107 1 77 78 79
108 1 78 79 80
109 1 98 99 100
110 1 99 100 101
111 1 100 101 102
112 1 97 98 99
113 1 79 80 81
114 1 85 86 87
115 1 86 87 88
116 1 95 96 97
117 1 96 97 98
118 1 84 85 86
119 1 82 83 84
120 1 83 84 85
121 1 94 95 96
122 1 81 82 83
123 1 80 81 82
124 1 87 88 89
125 1 88 89 90
126 1 93 94 95
127 1 92 93 94
128 1 91 92 93
129 1 89 90 91
130 1 90 91 92
